<event>
 7    0  0.4737014E-002  0.4456563E+03  0.7546771E-02  0.1029025E+00
         21   -1    0    0  502  501  0.00000000000E+00  0.00000000000E+00  0.14016179186E+03  0.14016179186E+03  0.00000000000E+00 0.  1.
         21   -1    0    0  501  502 -0.00000000000E+00 -0.00000000000E+00 -0.35425045400E+03  0.35425045400E+03  0.00000000000E+00 0.  1.
      99926    2    1    2    0    0  0.00000000000E+00 -0.14210854715E-13 -0.21408866214E+03  0.49441224586E+03  0.44565627293E+03 0.  0.
      99925    2    3    3    0    0 -0.50989975512E+02  0.90401990004E+02 -0.14440477188E+03  0.31756245067E+03  0.26309822221E+03 0.  0.
         25    1    3    3    0    0  0.50989975512E+02 -0.90401990004E+02 -0.69683890262E+02  0.17684979520E+03  0.12509000000E+03 0.  0.
         25    1    4    4    0    0 -0.26361508340E+02  0.24154325487E+01 -0.68683284073E+02  0.14514015656E+03  0.12509000000E+03 0.  0.
         25    1    4    4    0    0 -0.24628467172E+02  0.87986557455E+02 -0.75721487803E+02  0.17242229410E+03  0.12509000000E+03 0.  0.
<mgrwt>
<rscale>  2 0.44565627E+03</rscale>
<asrwt>0</asrwt>
<pdfrwt beam="1">  1       21 0.20612029E-01 0.44565627E+03</pdfrwt>
<pdfrwt beam="2">  1       21 0.52095654E-01 0.44565627E+03</pdfrwt>
<totfact> 0.70770252E+04</totfact>
</mgrwt>
</event>
<event>
 7    0  0.4737014E-002  0.4513078E+03  0.7546771E-02  0.1027333E+00
         21   -1    0    0  502  501  0.00000000000E+00  0.00000000000E+00  0.91651292708E+03  0.91651292708E+03  0.00000000000E+00 0.  1.
         21   -1    0    0  501  502 -0.00000000000E+00 -0.00000000000E+00 -0.55558073670E+02  0.55558073670E+02  0.00000000000E+00 0.  1.
      99926    2    1    2    0    0 -0.16653345369E-14  0.14210854715E-13  0.86095485341E+03  0.97207100075E+03  0.45130784492E+03 0.  0.
      99925    2    3    3    0    0 -0.94394460176E+00 -0.82515669016E+02  0.69907969907E+03  0.75147906899E+03  0.26305634152E+03 0.  0.
         25    1    3    3    0    0  0.94394460176E+00  0.82515669016E+02  0.16187515434E+03  0.22059193176E+03  0.12509000000E+03 0.  0.
         25    1    4    4    0    0 -0.24101409923E+02 -0.75198076622E+02  0.39413080996E+03  0.42097770980E+03  0.12509000000E+03 0.  0.
         25    1    4    4    0    0  0.23157465321E+02 -0.73175923944E+01  0.30494888911E+03  0.33050135919E+03  0.12509000000E+03 0.  0.
<mgrwt>
<rscale>  2 0.45130784E+03</rscale>
<asrwt>0</asrwt>
<pdfrwt beam="1">  1       21 0.13478130E+00 0.45130784E+03</pdfrwt>
<pdfrwt beam="2">  1       21 0.81703055E-02 0.45130784E+03</pdfrwt>
<totfact> 0.41443125E+04</totfact>
</mgrwt>
</event>
<event>
 7    0  0.4737014E-002  0.4582241E+03  0.7546771E-02  0.1025298E+00
         21   -1    0    0  502  501  0.00000000000E+00  0.00000000000E+00  0.34550989401E+03  0.34550989401E+03  0.00000000000E+00 0.  1.
         21   -1    0    0  501  502 -0.00000000000E+00 -0.00000000000E+00 -0.15192716399E+03  0.15192716399E+03  0.00000000000E+00 0.  1.
      99926    2    1    2    0    0  0.00000000000E+00  0.00000000000E+00  0.19358273002E+03  0.49743705800E+03  0.45822412999E+03 0.  0.
      99925    2    3    3    0    0 -0.15671508143E+02 -0.74445613688E+02  0.21680806144E+03  0.34919850133E+03  0.26295648358E+03 0.  0.
         25    1    4    4    0    0 -0.14551166834E+02  0.35185894974E+01  0.91053277410E+02  0.15544235059E+03  0.12509000000E+03 0.  0.
         25    1    4    4    0    0 -0.11203413090E+01 -0.77964203186E+02  0.12575478403E+03  0.19375615074E+03  0.12509000000E+03 0.  0.
         25    1    3    3    0    0  0.15671508143E+02  0.74445613688E+02 -0.23225331417E+02  0.14823855667E+03  0.12509000000E+03 0.  0.
<mgrwt>
<rscale>  2 0.45822413E+03</rscale>
<asrwt>0</asrwt>
<pdfrwt beam="1">  1       21 0.50810279E-01 0.45822413E+03</pdfrwt>
<pdfrwt beam="2">  1       21 0.22342230E-01 0.45822413E+03</pdfrwt>
<totfact> 0.63802383E+04</totfact>
</mgrwt>
</event>
<event>
 7    0  0.4737014E-002  0.4529638E+03  0.7546771E-02  0.1026842E+00
         21   -1    0    0  502  501  0.00000000000E+00  0.00000000000E+00  0.10602100518E+03  0.10602100518E+03  0.00000000000E+00 0.  1.
         21   -1    0    0  501  502 -0.00000000000E+00 -0.00000000000E+00 -0.48381031197E+03  0.48381031197E+03  0.00000000000E+00 0.  1.
      99926    2    1    2    0    0  0.00000000000E+00  0.00000000000E+00 -0.37778930679E+03  0.58983131716E+03  0.45296382016E+03 0.  0.
      99925    2    3    3    0    0 -0.98483658333E+02  0.51967769342E+02 -0.23305967314E+03  0.36848576160E+03  0.26280271165E+03 0.  0.
         25    1    3    3    0    0  0.98483658333E+02 -0.51967769342E+02 -0.14472963364E+03  0.22134555556E+03  0.12509000000E+03 0.  0.
         25    1    4    4    0    0 -0.71966073436E+02 -0.60429138578E+01 -0.12977141622E+03  0.19417456348E+03  0.12509000000E+03 0.  0.
         25    1    4    4    0    0 -0.26517584896E+02  0.58010683200E+02 -0.10328825693E+03  0.17431119813E+03  0.12509000000E+03 0.  0.
<mgrwt>
<rscale>  2 0.45296382E+03</rscale>
<asrwt>0</asrwt>
<pdfrwt beam="1">  1       21 0.15591324E-01 0.45296382E+03</pdfrwt>
<pdfrwt beam="2">  1       21 0.71148575E-01 0.45296382E+03</pdfrwt>
<totfact> 0.60272705E+04</totfact>
</mgrwt>
</event>
<event>
 7    0  0.4737014E-002  0.4253520E+03  0.7546771E-02  0.1035338E+00
         21   -1    0    0  502  501  0.00000000000E+00  0.00000000000E+00  0.59417994141E+02  0.59417994141E+02  0.00000000000E+00 0.  1.
         21   -1    0    0  501  502 -0.00000000000E+00 -0.00000000000E+00 -0.76123551075E+03  0.76123551075E+03  0.00000000000E+00 0.  1.
      99926    2    1    2    0    0 -0.17763568394E-14  0.00000000000E+00 -0.70181751661E+03  0.82065350489E+03  0.42535202888E+03 0.  0.
      99925    2    3    3    0    0  0.50328346396E+01  0.44256785180E+02 -0.58905333410E+03  0.64644885106E+03  0.26254198553E+03 0.  0.
         25    1    4    4    0    0 -0.26804289699E+02  0.14101921806E+02 -0.35290453130E+03  0.37564138544E+03  0.12509000000E+03 0.  0.
         25    1    3    3    0    0 -0.50328346396E+01 -0.44256785180E+02 -0.11276418251E+03  0.17420465383E+03  0.12509000000E+03 0.  0.
         25    1    4    4    0    0  0.31837124339E+02  0.30154863375E+02 -0.23614880279E+03  0.27080746561E+03  0.12509000000E+03 0.  0.
<mgrwt>
<rscale>  2 0.42535203E+03</rscale>
<asrwt>0</asrwt>
<pdfrwt beam="1">  1       21 0.87379408E-02 0.42535203E+03</pdfrwt>
<pdfrwt beam="2">  1       21 0.11194639E+00 0.42535203E+03</pdfrwt>
<totfact> 0.59451366E+04</totfact>
</mgrwt>
</event>
<event>
 7    0  0.4737014E-002  0.4683515E+03  0.7546771E-02  0.1022387E+00
         21   -1    0    0  502  501  0.00000000000E+00  0.00000000000E+00  0.33434427443E+02  0.33434427443E+02  0.00000000000E+00 0. -1.
         21   -1    0    0  501  502 -0.00000000000E+00 -0.00000000000E+00 -0.16401738885E+04  0.16401738885E+04  0.00000000000E+00 0. -1.
      99926    2    1    2    0    0  0.00000000000E+00  0.00000000000E+00 -0.16067394610E+04  0.16736083159E+04  0.46835147002E+03 0.  0.
      99925    2    3    3    0    0  0.87038439945E+02 -0.35378404566E+02 -0.12929899893E+04  0.13230180128E+04  0.26405724416E+03 0.  0.
         25    1    4    4    0    0  0.23383363928E+02 -0.32931983928E+02 -0.78764192237E+03  0.79853528616E+03  0.12509000000E+03 0.  0.
         25    1    4    4    0    0  0.63655076017E+02 -0.24464206379E+01 -0.50534806691E+03  0.52448272660E+03  0.12509000000E+03 0.  0.
         25    1    3    3    0    0 -0.87038439945E+02  0.35378404566E+02 -0.31374947174E+03  0.35059030314E+03  0.12509000000E+03 0.  0.
<mgrwt>
<rscale>  2 0.46835147E+03</rscale>
<asrwt>0</asrwt>
<pdfrwt beam="1">  1       21 0.49168287E-02 0.46835147E+03</pdfrwt>
<pdfrwt beam="2">  1       21 0.24120199E+00 0.46835147E+03</pdfrwt>
<totfact> 0.17888941E+04</totfact>
</mgrwt>
</event>
<event>
 7    0  0.4737014E-002  0.4519302E+03  0.7546771E-02  0.1027148E+00
         21   -1    0    0  502  501  0.00000000000E+00  0.00000000000E+00  0.95621962838E+03  0.95621962838E+03  0.00000000000E+00 0. -1.
         21   -1    0    0  501  502 -0.00000000000E+00 -0.00000000000E+00 -0.53398003559E+02  0.53398003559E+02  0.00000000000E+00 0. -1.
      99926    2    1    2    0    0  0.00000000000E+00  0.00000000000E+00  0.90282162482E+03  0.10096176319E+04  0.45193016770E+03 0.  0.
      99925    2    3    3    0    0  0.29283197371E+02 -0.82790284072E+02  0.42065763807E+03  0.50381000546E+03  0.26298276816E+03 0.  0.
         25    1    4    4    0    0 -0.20876533651E+02 -0.59700810284E+02  0.22562199673E+03  0.26561778915E+03  0.12509000000E+03 0.  0.
         25    1    3    3    0    0 -0.29283197371E+02  0.82790284072E+02  0.48216398676E+03  0.50580762648E+03  0.12509000000E+03 0.  0.
         25    1    4    4    0    0  0.50159731021E+02 -0.23089473788E+02  0.19503564133E+03  0.23819221630E+03  0.12509000000E+03 0.  0.
<mgrwt>
<rscale>  2 0.45193017E+03</rscale>
<asrwt>0</asrwt>
<pdfrwt beam="1">  1       21 0.14062052E+00 0.45193017E+03</pdfrwt>
<pdfrwt beam="2">  1       21 0.78526482E-02 0.45193017E+03</pdfrwt>
<totfact> 0.39738867E+04</totfact>
</mgrwt>
</event>
<event>
 7    0  0.4737014E-002  0.4582581E+03  0.7546771E-02  0.1025288E+00
         21   -1    0    0  502  501  0.00000000000E+00  0.00000000000E+00  0.38422437536E+03  0.38422437536E+03  0.00000000000E+00 0. -1.
         21   -1    0    0  501  502 -0.00000000000E+00 -0.00000000000E+00 -0.13663924831E+03  0.13663924831E+03  0.00000000000E+00 0. -1.
      99926    2    1    2    0    0  0.00000000000E+00  0.00000000000E+00  0.24758512705E+03  0.52086362367E+03  0.45825813613E+03 0.  0.
      99925    2    3    3    0    0  0.44890720628E+02 -0.31778000558E+02  0.27167340834E+03  0.38210926694E+03  0.26301337031E+03 0.  0.
         25    1    4    4    0    0 -0.10363106703E+00 -0.31453905583E+01  0.17555115761E+03  0.21558205227E+03  0.12509000000E+03 0.  0.
         25    1    3    3    0    0 -0.44890720628E+02  0.31778000558E+02 -0.24088281293E+02  0.13875435674E+03  0.12509000000E+03 0.  0.
         25    1    4    4    0    0  0.44994351695E+02 -0.28632610000E+02  0.96122250729E+02  0.16652721467E+03  0.12509000000E+03 0.  0.
<mgrwt>
<rscale>  2 0.45825814E+03</rscale>
<asrwt>0</asrwt>
<pdfrwt beam="1">  1       21 0.56503585E-01 0.45825814E+03</pdfrwt>
<pdfrwt beam="2">  1       21 0.20094007E-01 0.45825814E+03</pdfrwt>
<totfact> 0.62204833E+04</totfact>
</mgrwt>
</event>
<event>
 7    0  0.4737014E-002  0.4326508E+03  0.7546771E-02  0.1033026E+00
         21   -1    0    0  502  501  0.00000000000E+00  0.00000000000E+00  0.10516319920E+04  0.10516319920E+04  0.00000000000E+00 0.  1.
         21   -1    0    0  501  502 -0.00000000000E+00 -0.00000000000E+00 -0.44499097536E+02  0.44499097536E+02  0.00000000000E+00 0.  1.
      99926    2    1    2    0    0  0.71054273576E-14 -0.35527136788E-14  0.10071328945E+04  0.10961310895E+04  0.43265078104E+03 0.  0.
      99925    2    3    3    0    0  0.41559997599E+02 -0.27226471418E+02  0.83962609283E+03  0.88124844519E+03  0.26297971831E+03 0.  0.
         25    1    4    4    0    0  0.53672698087E+02  0.25322923863E+01  0.48879755135E+03  0.50740292207E+03  0.12509000000E+03 0.  0.
         25    1    3    3    0    0 -0.41559997599E+02  0.27226471418E+02  0.16750680162E+03  0.21488264434E+03  0.12509000000E+03 0.  0.
         25    1    4    4    0    0 -0.12112700487E+02 -0.29758763804E+02  0.35082854148E+03  0.37384552312E+03  0.12509000000E+03 0.  0.
<mgrwt>
<rscale>  2 0.43265078E+03</rscale>
<asrwt>0</asrwt>
<pdfrwt beam="1">  1       21 0.15465175E+00 0.43265078E+03</pdfrwt>
<pdfrwt beam="2">  1       21 0.65439856E-02 0.43265078E+03</pdfrwt>
<totfact> 0.42582483E+04</totfact>
</mgrwt>
</event>
<event>
 7    0  0.4737014E-002  0.4536841E+03  0.7546771E-02  0.1026629E+00
         21   -1    0    0  502  501  0.00000000000E+00  0.00000000000E+00  0.39687277402E+03  0.39687277402E+03  0.00000000000E+00 0.  1.
         21   -1    0    0  501  502 -0.00000000000E+00 -0.00000000000E+00 -0.12965694526E+03  0.12965694526E+03  0.00000000000E+00 0.  1.
      99926    2    1    2    0    0  0.44408920985E-15  0.00000000000E+00  0.26721582876E+03  0.52652971928E+03  0.45368408187E+03 0.  0.
      99925    2    3    3    0    0 -0.30010092351E+01  0.67051358672E+02  0.27245705842E+03  0.38447385230E+03  0.26283531661E+03 0.  0.
         25    1    4    4    0    0  0.29509811245E+02  0.40996204342E+02  0.17268343188E+03  0.21913145250E+03  0.12509000000E+03 0.  0.
         25    1    4    4    0    0 -0.32510820480E+02  0.26055154330E+02  0.99773626548E+02  0.16534239980E+03  0.12509000000E+03 0.  0.
         25    1    3    3    0    0  0.30010092351E+01 -0.67051358672E+02 -0.52412296663E+01  0.14205586698E+03  0.12509000000E+03 0.  0.
<mgrwt>
<rscale>  2 0.45368408E+03</rscale>
<asrwt>0</asrwt>
<pdfrwt beam="1">  1       21 0.58363643E-01 0.45368408E+03</pdfrwt>
<pdfrwt beam="2">  1       21 0.19067198E-01 0.45368408E+03</pdfrwt>
<totfact> 0.64108163E+04</totfact>
</mgrwt>
</event>
<event>
 6    0  0.4737014E-002  0.4569689E+03  0.7546771E-02  0.1025664E+00
         21   -1    0    0  502  501  0.00000000000E+00  0.00000000000E+00  0.23898122712E+03  0.23898122712E+03  0.00000000000E+00 0.  1.
         21   -1    0    0  501  502 -0.00000000000E+00 -0.00000000000E+00 -0.21844869295E+03  0.21844869295E+03  0.00000000000E+00 0.  1.
      99926    2    1    2    0    0  0.00000000000E+00 -0.14210854715E-13  0.20532534168E+02  0.45742992008E+03  0.45696886855E+03 0.  0.
         25    1    3    3    0    0  0.86437618663E+01 -0.73623144160E+02 -0.82572713954E+02  0.16721496095E+03  0.12509000000E+03 0.  0.
         25    1    3    3    0    0 -0.50448940698E+01  0.15830419106E+02  0.16101895115E+02  0.12721176145E+03  0.12509000000E+03 0.  0.
         25    1    3    3    0    0 -0.35988677965E+01  0.57792725054E+02  0.87003353006E+02  0.16300319768E+03  0.12509000000E+03 0.  0.
<mgrwt>
<rscale>  2 0.45696887E+03</rscale>
<asrwt>0</asrwt>
<pdfrwt beam="1">  1       21 0.35144298E-01 0.45696887E+03</pdfrwt>
<pdfrwt beam="2">  1       21 0.32124808E-01 0.45696887E+03</pdfrwt>
<totfact> 0.67304624E+04</totfact>
</mgrwt>
</event>
<event>
 7    0  0.4737014E-002  0.4517510E+03  0.7546771E-02  0.1027201E+00
         21   -1    0    0  502  501  0.00000000000E+00  0.00000000000E+00  0.30472278191E+03  0.30472278191E+03  0.00000000000E+00 0. -1.
         21   -1    0    0  501  502 -0.00000000000E+00 -0.00000000000E+00 -0.16742999561E+03  0.16742999561E+03  0.00000000000E+00 0. -1.
      99926    2    1    2    0    0  0.00000000000E+00  0.00000000000E+00  0.13729278630E+03  0.47215277752E+03  0.45175096696E+03 0.  0.
      99925    2    3    3    0    0 -0.23854921697E+02 -0.77370067061E+02  0.86491007895E+01  0.27529777889E+03  0.26298075129E+03 0.  0.
         25    1    4    4    0    0 -0.11863116265E+02 -0.73651009687E+02 -0.18096534616E+02  0.14676579104E+03  0.12509000000E+03 0.  0.
         25    1    3    3    0    0  0.23854921697E+02  0.77370067061E+02  0.12864368551E+03  0.19685499863E+03  0.12509000000E+03 0.  0.
         25    1    4    4    0    0 -0.11991805432E+02 -0.37190573731E+01  0.26745635406E+02  0.12853198784E+03  0.12509000000E+03 0.  0.
<mgrwt>
<rscale>  2 0.45175097E+03</rscale>
<asrwt>0</asrwt>
<pdfrwt beam="1">  1       21 0.44812174E-01 0.45175097E+03</pdfrwt>
<pdfrwt beam="2">  1       21 0.24622058E-01 0.45175097E+03</pdfrwt>
<totfact> 0.69038824E+04</totfact>
</mgrwt>
</event>
<event>
 7    0  0.4737014E-002  0.4466310E+03  0.7546771E-02  0.1028731E+00
         21   -1    0    0  502  501  0.00000000000E+00  0.00000000000E+00  0.31989467610E+03  0.31989467610E+03  0.00000000000E+00 0. -1.
         21   -1    0    0  501  502 -0.00000000000E+00 -0.00000000000E+00 -0.15589446403E+03  0.15589446403E+03  0.00000000000E+00 0. -1.
      99926    2    1    2    0    0  0.71054273576E-14  0.00000000000E+00  0.16400021207E+03  0.47578914014E+03  0.44663098450E+03 0.  0.
      99925    2    3    3    0    0 -0.46837300579E+02 -0.73035144480E+02  0.16722568037E+03  0.32352037512E+03  0.26300787039E+03 0.  0.
         25    1    3    3    0    0  0.46837300579E+02  0.73035144480E+02 -0.32254682998E+01  0.15226876502E+03  0.12509000000E+03 0.  0.
         25    1    4    4    0    0 -0.40007438284E+02 -0.47348630238E+02  0.12891169947E+03  0.19002163630E+03  0.12509000000E+03 0.  0.
         25    1    4    4    0    0 -0.68298622947E+01 -0.25686514242E+02  0.38313980904E+02  0.13349873882E+03  0.12509000000E+03 0.  0.
<mgrwt>
<rscale>  2 0.44663098E+03</rscale>
<asrwt>0</asrwt>
<pdfrwt beam="1">  1       21 0.47043335E-01 0.44663098E+03</pdfrwt>
<pdfrwt beam="2">  1       21 0.22925657E-01 0.44663098E+03</pdfrwt>
<totfact> 0.71650632E+04</totfact>
</mgrwt>
</event>
<event>
 7    0  0.4737014E-002  0.3998545E+03  0.7546771E-02  0.1043830E+00
         21   -1    0    0  502  501  0.00000000000E+00  0.00000000000E+00  0.15459350851E+04  0.15459350851E+04  0.00000000000E+00 0. -1.
         21   -1    0    0  501  502 -0.00000000000E+00 -0.00000000000E+00 -0.25855482833E+02  0.25855482833E+02  0.00000000000E+00 0. -1.
      99926    2    1    2    0    0 -0.35527136788E-14  0.00000000000E+00  0.15200796023E+04  0.15717905680E+04  0.39985446379E+03 0.  0.
      99925    2    3    3    0    0  0.27352966602E+02  0.28226081257E+02  0.11035225920E+04  0.11350845486E+04  0.26288766594E+03 0.  0.
         25    1    4    4    0    0 -0.19076998886E+02 -0.94782863125E+01  0.55268751786E+03  0.56706681290E+03  0.12509000000E+03 0.  0.
         25    1    3    3    0    0 -0.27352966602E+02 -0.28226081257E+02  0.41655701027E+03  0.43670601936E+03  0.12509000000E+03 0.  0.
         25    1    4    4    0    0  0.46429965488E+02  0.37704367570E+02  0.55083507416E+03  0.56801773568E+03  0.12509000000E+03 0.  0.
<mgrwt>
<rscale>  2 0.39985446E+03</rscale>
<asrwt>0</asrwt>
<pdfrwt beam="1">  1       21 0.22734333E+00 0.39985446E+03</pdfrwt>
<pdfrwt beam="2">  1       21 0.38022779E-02 0.39985446E+03</pdfrwt>
<totfact> 0.34738419E+04</totfact>
</mgrwt>
</event>
<event>
 7    0  0.4737014E-002  0.4537561E+03  0.7546771E-02  0.1026608E+00
         21   -1    0    0  502  501  0.00000000000E+00  0.00000000000E+00  0.55089550910E+02  0.55089550910E+02  0.00000000000E+00 0. -1.
         21   -1    0    0  501  502 -0.00000000000E+00 -0.00000000000E+00 -0.93436319188E+03  0.93436319188E+03  0.00000000000E+00 0. -1.
      99926    2    1    2    0    0  0.00000000000E+00  0.00000000000E+00 -0.87927364097E+03  0.98945274279E+03  0.45375609584E+03 0.  0.
      99925    2    3    3    0    0 -0.37211036011E+02  0.35515760965E+02 -0.33777263834E+03  0.43131577535E+03  0.26324306710E+03 0.  0.
         25    1    3    3    0    0  0.37211036011E+02 -0.35515760965E+02 -0.54150100263E+03  0.55813696745E+03  0.12509000000E+03 0.  0.
         25    1    4    4    0    0  0.12306969803E+02  0.86767361312E+01 -0.12038456690E+03  0.17426043528E+03  0.12509000000E+03 0.  0.
         25    1    4    4    0    0 -0.49518005814E+02  0.26839024834E+02 -0.21738807144E+03  0.25705534007E+03  0.12509000000E+03 0.  0.
<mgrwt>
<rscale>  2 0.45375610E+03</rscale>
<asrwt>0</asrwt>
<pdfrwt beam="1">  1       21 0.81014041E-02 0.45375610E+03</pdfrwt>
<pdfrwt beam="2">  1       21 0.13740636E+00 0.45375610E+03</pdfrwt>
<totfact> 0.39966394E+04</totfact>
</mgrwt>
</event>
<event>
 7    0  0.4737014E-002  0.4480167E+03  0.7546771E-02  0.1028315E+00
         21   -1    0    0  502  501  0.00000000000E+00  0.00000000000E+00  0.40062326359E+02  0.40062326359E+02  0.00000000000E+00 0.  1.
         21   -1    0    0  501  502 -0.00000000000E+00 -0.00000000000E+00 -0.12525419767E+04  0.12525419767E+04  0.00000000000E+00 0.  1.
      99926    2    1    2    0    0  0.44408920985E-15  0.00000000000E+00 -0.12124796503E+04  0.12926043031E+04  0.44801672044E+03 0.  0.
      99925    2    3    3    0    0  0.23179928517E+01  0.40071925114E+02 -0.48317557038E+03  0.55156241395E+03  0.26296640925E+03 0.  0.
         25    1    4    4    0    0 -0.16138906989E+02  0.68469162956E+01 -0.30868038312E+03  0.33352425940E+03  0.12509000000E+03 0.  0.
         25    1    3    3    0    0 -0.23179928517E+01 -0.40071925114E+02 -0.72930407996E+03  0.74104188912E+03  0.12509000000E+03 0.  0.
         25    1    4    4    0    0  0.18456899840E+02  0.33225008818E+02 -0.17449518726E+03  0.21803815455E+03  0.12509000000E+03 0.  0.
<mgrwt>
<rscale>  2 0.44801672E+03</rscale>
<asrwt>0</asrwt>
<pdfrwt beam="1">  1       21 0.58915187E-02 0.44801672E+03</pdfrwt>
<pdfrwt beam="2">  1       21 0.18419735E+00 0.44801672E+03</pdfrwt>
<totfact> 0.30978938E+04</totfact>
</mgrwt>
</event>
<event>
 7    0  0.4737014E-002  0.4526817E+03  0.7546771E-02  0.1026925E+00
         21   -1    0    0  502  501  0.00000000000E+00  0.00000000000E+00  0.59092168245E+03  0.59092168245E+03  0.00000000000E+00 0.  1.
         21   -1    0    0  501  502 -0.00000000000E+00 -0.00000000000E+00 -0.86695397105E+02  0.86695397105E+02  0.00000000000E+00 0.  1.
      99926    2    1    2    0    0 -0.14210854715E-13  0.00000000000E+00  0.50422628535E+03  0.67761707956E+03  0.45268174215E+03 0.  0.
      99925    2    3    3    0    0 -0.10038983211E+03 -0.31917322580E+02  0.37022448603E+03  0.46619138530E+03  0.26300456993E+03 0.  0.
         25    1    4    4    0    0 -0.54549653304E+02 -0.18743457665E+02  0.12126699554E+03  0.18352159053E+03  0.12509000000E+03 0.  0.
         25    1    3    3    0    0  0.10038983211E+03  0.31917322580E+02  0.13400179932E+03  0.21142569426E+03  0.12509000000E+03 0.  0.
         25    1    4    4    0    0 -0.45840178805E+02 -0.13173864915E+02  0.24895749048E+03  0.28266979477E+03  0.12509000000E+03 0.  0.
<mgrwt>
<rscale>  2 0.45268174E+03</rscale>
<asrwt>0</asrwt>
<pdfrwt beam="1">  1       21 0.86900245E-01 0.45268174E+03</pdfrwt>
<pdfrwt beam="2">  1       21 0.12749323E-01 0.45268174E+03</pdfrwt>
<totfact> 0.55135324E+04</totfact>
</mgrwt>
</event>
<event>
 7    0  0.4737014E-002  0.4619080E+03  0.7546771E-02  0.1024229E+00
         21   -1    0    0  502  501  0.00000000000E+00  0.00000000000E+00  0.18003726181E+03  0.18003726181E+03  0.00000000000E+00 0.  1.
         21   -1    0    0  501  502 -0.00000000000E+00 -0.00000000000E+00 -0.29627061938E+03  0.29627061938E+03  0.00000000000E+00 0.  1.
      99926    2    1    2    0    0 -0.71054273576E-14  0.00000000000E+00 -0.11623335757E+03  0.47630788119E+03  0.46190800412E+03 0.  0.
      99925    2    3    3    0    0 -0.63797410600E+02 -0.83309897520E+02 -0.13686879121E+02  0.28350244307E+03  0.26301265358E+03 0.  0.
         25    1    3    3    0    0  0.63797410600E+02  0.83309897520E+02 -0.10254647844E+03  0.19280543811E+03  0.12509000000E+03 0.  0.
         25    1    4    4    0    0 -0.56193081092E+02 -0.34697335588E+02  0.24958167258E+02  0.14363838509E+03  0.12509000000E+03 0.  0.
         25    1    4    4    0    0 -0.76043295077E+01 -0.48612561932E+02 -0.38645046378E+02  0.13986405798E+03  0.12509000000E+03 0.  0.
<mgrwt>
<rscale>  2 0.46190800E+03</rscale>
<asrwt>0</asrwt>
<pdfrwt beam="1">  1       21 0.26476068E-01 0.46190800E+03</pdfrwt>
<pdfrwt beam="2">  1       21 0.43569209E-01 0.46190800E+03</pdfrwt>
<totfact> 0.63421742E+04</totfact>
</mgrwt>
</event>
<event>
 7    0  0.4737014E-002  0.4582566E+03  0.7546771E-02  0.1025288E+00
         21   -1    0    0  502  501  0.00000000000E+00  0.00000000000E+00  0.17457783182E+03  0.17457783182E+03  0.00000000000E+00 0. -1.
         21   -1    0    0  501  502 -0.00000000000E+00 -0.00000000000E+00 -0.30072423438E+03  0.30072423438E+03  0.00000000000E+00 0. -1.
      99926    2    1    2    0    0  0.00000000000E+00  0.00000000000E+00 -0.12614640257E+03  0.47530206620E+03  0.45825663035E+03 0.  0.
      99925    2    3    3    0    0 -0.64709174818E+02 -0.93366782611E+02 -0.53789963913E+02  0.29148804140E+03  0.26299673887E+03 0.  0.
         25    1    4    4    0    0 -0.66737841021E+02 -0.68595682971E+02 -0.15154625534E+02  0.15822919428E+03  0.12509000000E+03 0.  0.
         25    1    3    3    0    0  0.64709174818E+02  0.93366782611E+02 -0.72356438655E+02  0.18381402481E+03  0.12509000000E+03 0.  0.
         25    1    4    4    0    0  0.20286662029E+01 -0.24771099640E+02 -0.38635338379E+02  0.13325884712E+03  0.12509000000E+03 0.  0.
<mgrwt>
<rscale>  2 0.45825663E+03</rscale>
<asrwt>0</asrwt>
<pdfrwt beam="1">  1       21 0.25673211E-01 0.45825663E+03</pdfrwt>
<pdfrwt beam="2">  1       21 0.44224152E-01 0.45825663E+03</pdfrwt>
<totfact> 0.65338865E+04</totfact>
</mgrwt>
</event>
<event>
 7    0  0.4737014E-002  0.4598266E+03  0.7546771E-02  0.1024832E+00
         21   -1    0    0  502  501  0.00000000000E+00  0.00000000000E+00  0.58234457595E+03  0.58234457595E+03  0.00000000000E+00 0.  1.
         21   -1    0    0  501  502 -0.00000000000E+00 -0.00000000000E+00 -0.90771217076E+02  0.90771217076E+02  0.00000000000E+00 0.  1.
      99926    2    1    2    0    0  0.00000000000E+00  0.00000000000E+00  0.49157335888E+03  0.67311579303E+03  0.45982660174E+03 0.  0.
      99925    2    3    3    0    0  0.12626854583E+02 -0.73101838736E+02  0.17476631754E+03  0.32452215306E+03  0.26318823264E+03 0.  0.
         25    1    3    3    0    0 -0.12626854583E+02  0.73101838736E+02  0.31680704134E+03  0.34859363997E+03  0.12509000000E+03 0.  0.
         25    1    4    4    0    0  0.30301403149E+02 -0.27462538951E+02  0.12431551569E+03  0.18103652013E+03  0.12509000000E+03 0.  0.
         25    1    4    4    0    0 -0.17674548566E+02 -0.45639299785E+02  0.50450801846E+02  0.14348563294E+03  0.12509000000E+03 0.  0.
<mgrwt>
<rscale>  2 0.45982660E+03</rscale>
<asrwt>0</asrwt>
<pdfrwt beam="1">  1       21 0.85638907E-01 0.45982660E+03</pdfrwt>
<pdfrwt beam="2">  1       21 0.13348709E-01 0.45982660E+03</pdfrwt>
<totfact> 0.52366362E+04</totfact>
</mgrwt>
</event>
<event>
 7    0  0.4737014E-002  0.4631374E+03  0.7546771E-02  0.1023875E+00
         21   -1    0    0  502  501  0.00000000000E+00  0.00000000000E+00  0.77316536504E+03  0.77316536504E+03  0.00000000000E+00 0. -1.
         21   -1    0    0  501  502 -0.00000000000E+00 -0.00000000000E+00 -0.69356531777E+02  0.69356531777E+02  0.00000000000E+00 0. -1.
      99926    2    1    2    0    0  0.00000000000E+00 -0.14210854715E-13  0.70380883327E+03  0.84252189682E+03  0.46313742328E+03 0.  0.
      99925    2    3    3    0    0 -0.36353468644E+02 -0.11491922645E+03  0.43529926103E+03  0.52272054946E+03  0.26310325518E+03 0.  0.
         25    1    3    3    0    0  0.36353468644E+02  0.11491922645E+03  0.26850957223E+03  0.31980134736E+03  0.12509000000E+03 0.  0.
         25    1    4    4    0    0  0.16204338513E+02 -0.35035472292E+02  0.21975421888E+03  0.25579188752E+03  0.12509000000E+03 0.  0.
         25    1    4    4    0    0 -0.52557807158E+02 -0.79883754154E+02  0.21554504215E+03  0.26692866194E+03  0.12509000000E+03 0.  0.
<mgrwt>
<rscale>  2 0.46313742E+03</rscale>
<asrwt>0</asrwt>
<pdfrwt beam="1">  1       21 0.11370078E+00 0.46313742E+03</pdfrwt>
<pdfrwt beam="2">  1       21 0.10199490E-01 0.46313742E+03</pdfrwt>
<totfact> 0.42966390E+04</totfact>
</mgrwt>
</event>
<event>
 7    0  0.4737014E-002  0.4668395E+03  0.7546771E-02  0.1022816E+00
         21   -1    0    0  502  501  0.00000000000E+00  0.00000000000E+00  0.64015017380E+02  0.64015017380E+02  0.00000000000E+00 0. -1.
         21   -1    0    0  501  502 -0.00000000000E+00 -0.00000000000E+00 -0.85112488604E+03  0.85112488604E+03  0.00000000000E+00 0. -1.
      99926    2    1    2    0    0  0.00000000000E+00  0.00000000000E+00 -0.78710986866E+03  0.91513990342E+03  0.46683947722E+03 0.  0.
      99925    2    3    3    0    0  0.12081220292E+03  0.17688745083E+02 -0.44835596561E+03  0.53394415973E+03  0.26299204120E+03 0.  0.
         25    1    4    4    0    0  0.49387932250E+02  0.33770688874E+02 -0.27499319564E+03  0.30797466297E+03  0.12509000000E+03 0.  0.
         25    1    3    3    0    0 -0.12081220292E+03 -0.17688745083E+02 -0.33875390304E+03  0.38119574369E+03  0.12509000000E+03 0.  0.
         25    1    4    4    0    0  0.71424270671E+02 -0.16081943791E+02 -0.17336276997E+03  0.22596949677E+03  0.12509000000E+03 0.  0.
<mgrwt>
<rscale>  2 0.46683948E+03</rscale>
<asrwt>0</asrwt>
<pdfrwt beam="1">  1       21 0.94139736E-02 0.46683948E+03</pdfrwt>
<pdfrwt beam="2">  1       21 0.12516542E+00 0.46683948E+03</pdfrwt>
<totfact> 0.38857248E+04</totfact>
</mgrwt>
</event>
<event>
 7    0  0.4737014E-002  0.4340801E+03  0.7546771E-02  0.1032579E+00
         21   -1    0    0  502  501  0.00000000000E+00  0.00000000000E+00  0.35764070970E+03  0.35764070970E+03  0.00000000000E+00 0. -1.
         21   -1    0    0  501  502 -0.00000000000E+00 -0.00000000000E+00 -0.13171429038E+03  0.13171429038E+03  0.00000000000E+00 0. -1.
      99926    2    1    2    0    0  0.00000000000E+00  0.71054273576E-14  0.22592641932E+03  0.48935500008E+03  0.43408014139E+03 0.  0.
      99925    2    3    3    0    0 -0.21379809499E+02 -0.27445411018E+02  0.48881794223E+02  0.26980397135E+03  0.26304829653E+03 0.  0.
         25    1    4    4    0    0 -0.38295718576E+02  0.55786955623E+01  0.47592410864E+02  0.13932059997E+03  0.12509000000E+03 0.  0.
         25    1    3    3    0    0  0.21379809499E+02  0.27445411018E+02  0.17704462510E+03  0.21955102873E+03  0.12509000000E+03 0.  0.
         25    1    4    4    0    0  0.16915909077E+02 -0.33024106581E+02  0.12893833592E+01  0.13048337137E+03  0.12509000000E+03 0.  0.
<mgrwt>
<rscale>  2 0.43408014E+03</rscale>
<asrwt>0</asrwt>
<pdfrwt beam="1">  1       21 0.52594222E-01 0.43408014E+03</pdfrwt>
<pdfrwt beam="2">  1       21 0.19369749E-01 0.43408014E+03</pdfrwt>
<totfact> 0.78230843E+04</totfact>
</mgrwt>
</event>
<event>
 7    0  0.4737014E-002  0.4550310E+03  0.7546771E-02  0.1026232E+00
         21   -1    0    0  502  501  0.00000000000E+00  0.00000000000E+00  0.21171092219E+03  0.21171092219E+03  0.00000000000E+00 0.  1.
         21   -1    0    0  501  502 -0.00000000000E+00 -0.00000000000E+00 -0.24449987862E+03  0.24449987862E+03  0.00000000000E+00 0.  1.
      99926    2    1    2    0    0  0.00000000000E+00  0.00000000000E+00 -0.32788956433E+02  0.45621080081E+03  0.45503096501E+03 0.  0.
      99925    2    3    3    0    0 -0.59586293928E+02 -0.39330986069E+02  0.65457366360E+02  0.28186258335E+03  0.26469680050E+03 0.  0.
         25    1    4    4    0    0 -0.65368034437E+02 -0.30921640727E+02  0.59369611032E+02  0.15620943187E+03  0.12509000000E+03 0.  0.
         25    1    3    3    0    0  0.59586293928E+02  0.39330986069E+02 -0.98246322792E+02  0.17434821746E+03  0.12509000000E+03 0.  0.
         25    1    4    4    0    0  0.57817405087E+01 -0.84093453423E+01  0.60877553275E+01  0.12565315148E+03  0.12509000000E+03 0.  0.
<mgrwt>
<rscale>  2 0.45503097E+03</rscale>
<asrwt>0</asrwt>
<pdfrwt beam="1">  1       21 0.31133960E-01 0.45503097E+03</pdfrwt>
<pdfrwt beam="2">  1       21 0.35955864E-01 0.45503097E+03</pdfrwt>
<totfact> 0.68440307E+04</totfact>
</mgrwt>
</event>
<event>
 7    0  0.4737014E-002  0.4712273E+03  0.7546771E-02  0.1021574E+00
         21   -1    0    0  502  501  0.00000000000E+00  0.00000000000E+00  0.13485298182E+03  0.13485298182E+03  0.00000000000E+00 0.  1.
         21   -1    0    0  501  502 -0.00000000000E+00 -0.00000000000E+00 -0.41166163312E+03  0.41166163312E+03  0.00000000000E+00 0.  1.
      99926    2    1    2    0    0  0.00000000000E+00  0.00000000000E+00 -0.27680865130E+03  0.54651461494E+03  0.47122732827E+03 0.  0.
      99925    2    3    3    0    0  0.74740880210E+02  0.29769305945E+02 -0.28717329605E+03  0.39742623607E+03  0.26269126442E+03 0.  0.
         25    1    4    4    0    0  0.61583181712E+02 -0.17159100792E+02 -0.14554031415E+03  0.20227806147E+03  0.12509000000E+03 0.  0.
         25    1    3    3    0    0 -0.74740880210E+02 -0.29769305945E+02  0.10364644753E+02  0.14908837886E+03  0.12509000000E+03 0.  0.
         25    1    4    4    0    0  0.13157698498E+02  0.46928406737E+02 -0.14163298190E+03  0.19514817460E+03  0.12509000000E+03 0.  0.
<mgrwt>
<rscale>  2 0.47122733E+03</rscale>
<asrwt>0</asrwt>
<pdfrwt beam="1">  1       21 0.19831321E-01 0.47122733E+03</pdfrwt>
<pdfrwt beam="2">  1       21 0.60538475E-01 0.47122733E+03</pdfrwt>
<totfact> 0.54719607E+04</totfact>
</mgrwt>
</event>
<event>
 7    0  0.4737014E-002  0.4544969E+03  0.7546771E-02  0.1026389E+00
         21   -1    0    0  502  501  0.00000000000E+00  0.00000000000E+00  0.37682316417E+03  0.37682316417E+03  0.00000000000E+00 0. -1.
         21   -1    0    0  501  502 -0.00000000000E+00 -0.00000000000E+00 -0.13704532974E+03  0.13704532974E+03  0.00000000000E+00 0. -1.
      99926    2    1    2    0    0  0.71054273576E-14  0.14210854715E-13  0.23977783442E+03  0.51386849391E+03  0.45449688575E+03 0.  0.
      99925    2    3    3    0    0 -0.34798384279E+02  0.75077454924E+02  0.23770116693E+03  0.36387058581E+03  0.26277824619E+03 0.  0.
         25    1    3    3    0    0  0.34798384279E+02 -0.75077454924E+02  0.20766674860E+01  0.14999790810E+03  0.12509000000E+03 0.  0.
         25    1    4    4    0    0 -0.14328374127E+02 -0.18243099736E+01  0.91528189755E+02  0.15567128198E+03  0.12509000000E+03 0.  0.
         25    1    4    4    0    0 -0.20470010152E+02  0.76901764897E+02  0.14617297718E+03  0.20819930384E+03  0.12509000000E+03 0.  0.
<mgrwt>
<rscale>  2 0.45449689E+03</rscale>
<asrwt>0</asrwt>
<pdfrwt beam="1">  1       21 0.55415171E-01 0.45449689E+03</pdfrwt>
<pdfrwt beam="2">  1       21 0.20153725E-01 0.45449689E+03</pdfrwt>
<totfact> 0.64564313E+04</totfact>
</mgrwt>
</event>
<event>
 7    0  0.4737014E-002  0.4531445E+03  0.7546771E-02  0.1026788E+00
         21   -1    0    0  502  501  0.00000000000E+00  0.00000000000E+00  0.19626741720E+02  0.19626741720E+02  0.00000000000E+00 0. -1.
         21   -1    0    0  501  502 -0.00000000000E+00 -0.00000000000E+00 -0.26155629820E+04  0.26155629820E+04  0.00000000000E+00 0. -1.
      99926    2    1    2    0    0 -0.71054273576E-14 -0.71054273576E-14 -0.25959362403E+04  0.26351897237E+04  0.45314447630E+03 0.  0.
      99925    2    3    3    0    0 -0.35807200252E+02 -0.45562307232E+02 -0.21898660874E+04  0.22063557738E+04  0.26293390895E+03 0.  0.
         25    1    3    3    0    0  0.35807200252E+02  0.45562307232E+02 -0.40607015287E+03  0.42883394989E+03  0.12509000000E+03 0.  0.
         25    1    4    4    0    0 -0.57352351598E+01 -0.61596175620E+02 -0.11550660675E+04  0.11634655603E+04  0.12509000000E+03 0.  0.
         25    1    4    4    0    0 -0.30071965092E+02  0.16033868388E+02 -0.10348000200E+04  0.10428902135E+04  0.12509000000E+03 0.  0.
<mgrwt>
<rscale>  2 0.45314448E+03</rscale>
<asrwt>0</asrwt>
<pdfrwt beam="1">  1       21 0.28862864E-02 0.45314448E+03</pdfrwt>
<pdfrwt beam="2">  1       21 0.38464150E+00 0.45314448E+03</pdfrwt>
<totfact> 0.59302830E+03</totfact>
</mgrwt>
</event>
<event>
 7    0  0.4737014E-002  0.4486598E+03  0.7546771E-02  0.1028122E+00
         21   -1    0    0  502  501  0.00000000000E+00  0.00000000000E+00  0.90202128832E+02  0.90202128832E+02  0.00000000000E+00 0. -1.
         21   -1    0    0  501  502 -0.00000000000E+00 -0.00000000000E+00 -0.55790151732E+03  0.55790151732E+03  0.00000000000E+00 0. -1.
      99926    2    1    2    0    0  0.00000000000E+00  0.00000000000E+00 -0.46769938849E+03  0.64810364615E+03  0.44865980226E+03 0.  0.
      99925    2    3    3    0    0  0.37758989844E+02 -0.40533989422E+01 -0.15142503388E+03  0.30587689845E+03  0.26303795309E+03 0.  0.
         25    1    4    4    0    0 -0.18173572920E+02 -0.50239311322E+00 -0.92715326688E+02  0.15676151012E+03  0.12509000000E+03 0.  0.
         25    1    4    4    0    0  0.55932562764E+02 -0.35510058290E+01 -0.58709707190E+02  0.14911538833E+03  0.12509000000E+03 0.  0.
         25    1    3    3    0    0 -0.37758989844E+02  0.40533989422E+01 -0.31627435461E+03  0.34222674770E+03  0.12509000000E+03 0.  0.
<mgrwt>
<rscale>  2 0.44865980E+03</rscale>
<asrwt>0</asrwt>
<pdfrwt beam="1">  1       21 0.13265019E-01 0.44865980E+03</pdfrwt>
<pdfrwt beam="2">  1       21 0.82044339E-01 0.44865980E+03</pdfrwt>
<totfact> 0.58691890E+04</totfact>
</mgrwt>
</event>
<event>
 7    0  0.4737014E-002  0.4597849E+03  0.7546771E-02  0.1024844E+00
         21   -1    0    0  502  501  0.00000000000E+00  0.00000000000E+00  0.50713168126E+03  0.50713168126E+03  0.00000000000E+00 0.  1.
         21   -1    0    0  501  502 -0.00000000000E+00 -0.00000000000E+00 -0.10421461469E+03  0.10421461469E+03  0.00000000000E+00 0.  1.
      99926    2    1    2    0    0  0.00000000000E+00  0.00000000000E+00  0.40291706657E+03  0.61134629594E+03  0.45978487473E+03 0.  0.
      99925    2    3    3    0    0 -0.62363501124E+02 -0.99589862369E+02  0.24648884312E+03  0.37912949175E+03  0.26301154874E+03 0.  0.
         25    1    4    4    0    0 -0.38123792062E+02 -0.32535978332E+02  0.16724399467E+03  0.21477913134E+03  0.12509000000E+03 0.  0.
         25    1    4    4    0    0 -0.24239709061E+02 -0.67053884037E+02  0.79244848453E+02  0.16435036041E+03  0.12509000000E+03 0.  0.
         25    1    3    3    0    0  0.62363501124E+02  0.99589862369E+02  0.15642822345E+03  0.23221680420E+03  0.12509000000E+03 0.  0.
<mgrwt>
<rscale>  2 0.45978487E+03</rscale>
<asrwt>0</asrwt>
<pdfrwt beam="1">  1       21 0.74578188E-01 0.45978487E+03</pdfrwt>
<pdfrwt beam="2">  1       21 0.15325679E-01 0.45978487E+03</pdfrwt>
<totfact> 0.55844500E+04</totfact>
</mgrwt>
</event>
<event>
 7    0  0.4737014E-002  0.4493688E+03  0.7546771E-02  0.1027910E+00
         21   -1    0    0  502  501  0.00000000000E+00  0.00000000000E+00  0.39965441078E+03  0.39965441078E+03  0.00000000000E+00 0.  1.
         21   -1    0    0  501  502 -0.00000000000E+00 -0.00000000000E+00 -0.12631685859E+03  0.12631685859E+03  0.00000000000E+00 0.  1.
      99926    2    1    2    0    0  0.71054273576E-14 -0.14210854715E-13  0.27333755219E+03  0.52597126938E+03  0.44936884491E+03 0.  0.
      99925    2    3    3    0    0  0.53546148871E+02 -0.82755031700E+02  0.12216064509E+03  0.30638631845E+03  0.26312310350E+03 0.  0.
         25    1    4    4    0    0  0.30824854658E+02  0.67753950453E+00  0.59610351386E+02  0.14195609468E+03  0.12509000000E+03 0.  0.
         25    1    3    3    0    0 -0.53546148871E+02  0.82755031700E+02  0.15117690710E+03  0.21958495092E+03  0.12509000000E+03 0.  0.
         25    1    4    4    0    0  0.22721294212E+02 -0.83432571205E+02  0.62550293700E+02  0.16443022377E+03  0.12509000000E+03 0.  0.
<mgrwt>
<rscale>  2 0.44936884E+03</rscale>
<asrwt>0</asrwt>
<pdfrwt beam="1">  1       21 0.58772707E-01 0.44936884E+03</pdfrwt>
<pdfrwt beam="2">  1       21 0.18576009E-01 0.44936884E+03</pdfrwt>
<totfact> 0.66393506E+04</totfact>
</mgrwt>
</event>
<event>
 7    0  0.4737014E-002  0.4608597E+03  0.7546771E-02  0.1024532E+00
         21   -1    0    0  502  501  0.00000000000E+00  0.00000000000E+00  0.41741818895E+02  0.41741818895E+02  0.00000000000E+00 0. -1.
         21   -1    0    0  501  502 -0.00000000000E+00 -0.00000000000E+00 -0.12720554947E+04  0.12720554947E+04  0.00000000000E+00 0. -1.
      99926    2    1    2    0    0 -0.35527136788E-14  0.00000000000E+00 -0.12303136758E+04  0.13137973136E+04  0.46085967532E+03 0.  0.
      99925    2    3    3    0    0 -0.31709058822E+02 -0.10129697176E+03 -0.62032300128E+03  0.68213073065E+03  0.26312576249E+03 0.  0.
         25    1    4    4    0    0  0.11402624480E+02 -0.25215690976E+02 -0.23446379300E+03  0.26718276375E+03  0.12509000000E+03 0.  0.
         25    1    3    3    0    0  0.31709058822E+02  0.10129697176E+03 -0.60999067450E+03  0.63166658292E+03  0.12509000000E+03 0.  0.
         25    1    4    4    0    0 -0.43111683302E+02 -0.76081280785E+02 -0.38585920828E+03  0.41494796691E+03  0.12509000000E+03 0.  0.
<mgrwt>
<rscale>  2 0.46085968E+03</rscale>
<asrwt>0</asrwt>
<pdfrwt beam="1">  1       21 0.61385039E-02 0.46085968E+03</pdfrwt>
<pdfrwt beam="2">  1       21 0.18706695E+00 0.46085968E+03</pdfrwt>
<totfact> 0.27444566E+04</totfact>
</mgrwt>
</event>
<event>
 7    0  0.4737014E-002  0.4387049E+03  0.7546771E-02  0.1031145E+00
         21   -1    0    0  502  501  0.00000000000E+00  0.00000000000E+00  0.38363255324E+03  0.38363255324E+03  0.00000000000E+00 0.  1.
         21   -1    0    0  501  502 -0.00000000000E+00 -0.00000000000E+00 -0.12542081113E+03  0.12542081113E+03  0.00000000000E+00 0.  1.
      99926    2    1    2    0    0  0.71054273576E-14  0.26645352591E-14  0.25821174212E+03  0.50905336437E+03  0.43870493958E+03 0.  0.
      99925    2    3    3    0    0 -0.59695122653E+02  0.74793272038E+01  0.25346046424E+03  0.37016660926E+03  0.26298605224E+03 0.  0.
         25    1    4    4    0    0 -0.21171996198E+02  0.38988424316E+02  0.15062093821E+03  0.20075488981E+03  0.12509000000E+03 0.  0.
         25    1    3    3    0    0  0.59695122653E+02 -0.74793272038E+01  0.47512778746E+01  0.13888675511E+03  0.12509000000E+03 0.  0.
         25    1    4    4    0    0 -0.38523126455E+02 -0.31509097112E+02  0.10283952603E+03  0.16941171945E+03  0.12509000000E+03 0.  0.
<mgrwt>
<rscale>  2 0.43870494E+03</rscale>
<asrwt>0</asrwt>
<pdfrwt beam="1">  1       21 0.56416552E-01 0.43870494E+03</pdfrwt>
<pdfrwt beam="2">  1       21 0.18444237E-01 0.43870494E+03</pdfrwt>
<totfact> 0.73717114E+04</totfact>
</mgrwt>
</event>
<event>
 7    0  0.4737014E-002  0.4468505E+03  0.7546771E-02  0.1028665E+00
         21   -1    0    0  502  501  0.00000000000E+00  0.00000000000E+00  0.47373188601E+02  0.47373188601E+02  0.00000000000E+00 0.  1.
         21   -1    0    0  501  502 -0.00000000000E+00 -0.00000000000E+00 -0.10537363844E+04  0.10537363844E+04  0.00000000000E+00 0.  1.
      99926    2    1    2    0    0  0.00000000000E+00  0.14210854715E-13 -0.10063631958E+04  0.11011095730E+04  0.44685054538E+03 0.  0.
      99925    2    3    3    0    0 -0.64231153519E+02  0.81164393551E+02 -0.59061992484E+03  0.65478763167E+03  0.26306205944E+03 0.  0.
         25    1    4    4    0    0 -0.56341277111E+02  0.34167034343E+02 -0.37759707049E+03  0.40319819132E+03  0.12509000000E+03 0.  0.
         25    1    4    4    0    0 -0.78898764086E+01  0.46997359208E+02 -0.21302285434E+03  0.25158944035E+03  0.12509000000E+03 0.  0.
         25    1    3    3    0    0  0.64231153519E+02 -0.81164393551E+02 -0.41574327100E+03  0.44632194136E+03  0.12509000000E+03 0.  0.
<mgrwt>
<rscale>  2 0.44685055E+03</rscale>
<asrwt>0</asrwt>
<pdfrwt beam="1">  1       21 0.69666456E-02 0.44685055E+03</pdfrwt>
<pdfrwt beam="2">  1       21 0.15496123E+00 0.44685055E+03</pdfrwt>
<totfact> 0.37802379E+04</totfact>
</mgrwt>
</event>
<event>
 7    0  0.4737014E-002  0.4544175E+03  0.7546771E-02  0.1026413E+00
         21   -1    0    0  502  501  0.00000000000E+00  0.00000000000E+00  0.26482574876E+03  0.26482574876E+03  0.00000000000E+00 0. -1.
         21   -1    0    0  501  502 -0.00000000000E+00 -0.00000000000E+00 -0.19493502623E+03  0.19493502623E+03  0.00000000000E+00 0. -1.
      99926    2    1    2    0    0  0.14210854715E-13  0.00000000000E+00  0.69890722532E+02  0.45976077500E+03  0.45441749210E+03 0.  0.
      99925    2    3    3    0    0  0.10703695458E+03  0.28950717978E+02  0.24583430110E+02  0.28656922623E+03  0.26310173445E+03 0.  0.
         25    1    3    3    0    0 -0.10703695458E+03 -0.28950717978E+02  0.45307292422E+02  0.17319154876E+03  0.12509000000E+03 0.  0.
         25    1    4    4    0    0  0.96187844176E+02  0.23165642682E+02  0.20609981654E+02  0.16081364311E+03  0.12509000000E+03 0.  0.
         25    1    4    4    0    0  0.10849110402E+02  0.57850752963E+01  0.39734484563E+01  0.12575558312E+03  0.12509000000E+03 0.  0.
<mgrwt>
<rscale>  2 0.45441749E+03</rscale>
<asrwt>0</asrwt>
<pdfrwt beam="1">  1       21 0.38944963E-01 0.45441749E+03</pdfrwt>
<pdfrwt beam="2">  1       21 0.28666915E-01 0.45441749E+03</pdfrwt>
<totfact> 0.68515717E+04</totfact>
</mgrwt>
</event>
<event>
 7    0  0.4737014E-002  0.4573073E+03  0.7546771E-02  0.1025565E+00
         21   -1    0    0  502  501  0.00000000000E+00  0.00000000000E+00  0.19864032800E+03  0.19864032800E+03  0.00000000000E+00 0.  1.
         21   -1    0    0  501  502 -0.00000000000E+00 -0.00000000000E+00 -0.26320174186E+03  0.26320174186E+03  0.00000000000E+00 0.  1.
      99926    2    1    2    0    0  0.00000000000E+00  0.00000000000E+00 -0.64561413867E+02  0.46184206986E+03  0.45730725047E+03 0.  0.
      99925    2    3    3    0    0 -0.76015522733E+02 -0.86102207737E+02 -0.31096113437E+02  0.28875427622E+03  0.26309715675E+03 0.  0.
         25    1    3    3    0    0  0.76015522733E+02  0.86102207737E+02 -0.33465300430E+02  0.17308779364E+03  0.12509000000E+03 0.  0.
         25    1    4    4    0    0 -0.22325062784E+02 -0.52606177582E+02 -0.51979700269E+02  0.14702114028E+03  0.12509000000E+03 0.  0.
         25    1    4    4    0    0 -0.53690459949E+02 -0.33496030155E+02  0.20883586832E+02  0.14173313594E+03  0.12509000000E+03 0.  0.
<mgrwt>
<rscale>  2 0.45730725E+03</rscale>
<asrwt>0</asrwt>
<pdfrwt beam="1">  1       21 0.29211813E-01 0.45730725E+03</pdfrwt>
<pdfrwt beam="2">  1       21 0.38706139E-01 0.45730725E+03</pdfrwt>
<totfact> 0.66808786E+04</totfact>
</mgrwt>
</event>
<event>
 7    0  0.4737014E-002  0.4557101E+03  0.7546771E-02  0.1026033E+00
         21   -1    0    0  502  501  0.00000000000E+00  0.00000000000E+00  0.34111594584E+02  0.34111594584E+02  0.00000000000E+00 0.  1.
         21   -1    0    0  501  502 -0.00000000000E+00 -0.00000000000E+00 -0.15220021009E+04  0.15220021009E+04  0.00000000000E+00 0.  1.
      99926    2    1    2    0    0 -0.71054273576E-14  0.00000000000E+00 -0.14878905063E+04  0.15561136955E+04  0.45571007723E+03 0.  0.
      99925    2    3    3    0    0 -0.51644512337E+02 -0.96388563658E+02 -0.10424406869E+04  0.10806865606E+04  0.26314054366E+03 0.  0.
         25    1    4    4    0    0 -0.23472313361E+02 -0.75968100193E+02 -0.67194776230E+03  0.68810130439E+03  0.12509000000E+03 0.  0.
         25    1    4    4    0    0 -0.28172198976E+02 -0.20420463465E+02 -0.37049292464E+03  0.39258525626E+03  0.12509000000E+03 0.  0.
         25    1    3    3    0    0  0.51644512337E+02  0.96388563658E+02 -0.44544981940E+03  0.47542713486E+03  0.12509000000E+03 0.  0.
<mgrwt>
<rscale>  2 0.45571008E+03</rscale>
<asrwt>0</asrwt>
<pdfrwt beam="1">  1       21 0.50164096E-02 0.45571008E+03</pdfrwt>
<pdfrwt beam="2">  1       21 0.22382390E+00 0.45571008E+03</pdfrwt>
<totfact> 0.22313481E+04</totfact>
</mgrwt>
</event>
<event>
 7    0  0.4737014E-002  0.4544645E+03  0.7546771E-02  0.1026399E+00
         21   -1    0    0  502  501  0.00000000000E+00  0.00000000000E+00  0.71309599219E+03  0.71309599219E+03  0.00000000000E+00 0.  1.
         21   -1    0    0  501  502 -0.00000000000E+00 -0.00000000000E+00 -0.72408898521E+02  0.72408898521E+02  0.00000000000E+00 0.  1.
      99926    2    1    2    0    0 -0.14210854715E-13  0.00000000000E+00  0.64068709367E+03  0.78550489072E+03  0.45446449954E+03 0.  0.
      99925    2    3    3    0    0 -0.11308519388E+03  0.40145755606E+01  0.41690195400E+03  0.50526985591E+03  0.26208015979E+03 0.  0.
         25    1    3    3    0    0  0.11308519388E+03 -0.40145755606E+01  0.22378513968E+03  0.28023503480E+03  0.12509000000E+03 0.  0.
         25    1    4    4    0    0 -0.88276896177E+02 -0.26449373823E+01  0.18153058730E+03  0.23748824880E+03  0.12509000000E+03 0.  0.
         25    1    4    4    0    0 -0.24808297698E+02  0.66595129430E+01  0.23537136670E+03  0.26778160711E+03  0.12509000000E+03 0.  0.
<mgrwt>
<rscale>  2 0.45446450E+03</rscale>
<asrwt>0</asrwt>
<pdfrwt beam="1">  1       21 0.10486705E+00 0.45446450E+03</pdfrwt>
<pdfrwt beam="2">  1       21 0.10648368E-01 0.45446450E+03</pdfrwt>
<totfact> 0.48678219E+04</totfact>
</mgrwt>
</event>
<event>
 7    0  0.4737014E-002  0.4508061E+03  0.7546771E-02  0.1027482E+00
         21   -1    0    0  502  501  0.00000000000E+00  0.00000000000E+00  0.24845618961E+03  0.24845618961E+03  0.00000000000E+00 0. -1.
         21   -1    0    0  501  502 -0.00000000000E+00 -0.00000000000E+00 -0.20448888392E+03  0.20448888392E+03  0.00000000000E+00 0. -1.
      99926    2    1    2    0    0  0.14210854715E-13  0.00000000000E+00  0.43967305691E+02  0.45294507353E+03  0.45080607323E+03 0.  0.
      99925    2    3    3    0    0 -0.84061971052E+02 -0.20408183530E+02  0.95148423051E+02  0.29247724558E+03  0.26269146891E+03 0.  0.
         25    1    4    4    0    0 -0.76779242726E+02 -0.19434727452E+02  0.29311061705E+02  0.15092848367E+03  0.12509000000E+03 0.  0.
         25    1    4    4    0    0 -0.72827283261E+01 -0.97345607757E+00  0.65837361345E+02  0.14154876191E+03  0.12509000000E+03 0.  0.
         25    1    3    3    0    0  0.84061971052E+02  0.20408183530E+02 -0.51181117360E+02  0.16046782795E+03  0.12509000000E+03 0.  0.
<mgrwt>
<rscale>  2 0.45080607E+03</rscale>
<asrwt>0</asrwt>
<pdfrwt beam="1">  1       21 0.36537675E-01 0.45080607E+03</pdfrwt>
<pdfrwt beam="2">  1       21 0.30071894E-01 0.45080607E+03</pdfrwt>
<totfact> 0.71044252E+04</totfact>
</mgrwt>
</event>
<event>
 7    0  0.4737014E-002  0.4548471E+03  0.7546771E-02  0.1026286E+00
         21   -1    0    0  502  501  0.00000000000E+00  0.00000000000E+00  0.51680989586E+02  0.51680989586E+02  0.00000000000E+00 0.  1.
         21   -1    0    0  501  502 -0.00000000000E+00 -0.00000000000E+00 -0.10007834107E+04  0.10007834107E+04  0.00000000000E+00 0.  1.
      99926    2    1    2    0    0  0.00000000000E+00  0.00000000000E+00 -0.94910242111E+03  0.10524644003E+04  0.45484712608E+03 0.  0.
      99925    2    3    3    0    0 -0.10940902422E+02 -0.60940952293E+02 -0.81603227528E+03  0.85962074645E+03  0.26306966838E+03 0.  0.
         25    1    4    4    0    0 -0.37698059610E+02 -0.22636710441E+02 -0.33174709410E+03  0.35726349786E+03  0.12509000000E+03 0.  0.
         25    1    3    3    0    0  0.10940902422E+02  0.60940952293E+02 -0.13307014584E+03  0.19284365384E+03  0.12509000000E+03 0.  0.
         25    1    4    4    0    0  0.26757157188E+02 -0.38304241852E+02 -0.48428518117E+03  0.50235724859E+03  0.12509000000E+03 0.  0.
<mgrwt>
<rscale>  2 0.45484713E+03</rscale>
<asrwt>0</asrwt>
<pdfrwt beam="1">  1       21 0.76001456E-02 0.45484713E+03</pdfrwt>
<pdfrwt beam="2">  1       21 0.14717403E+00 0.45484713E+03</pdfrwt>
<totfact> 0.37231493E+04</totfact>
</mgrwt>
</event>
<event>
 7    0  0.4737014E-002  0.4571945E+03  0.7546771E-02  0.1025598E+00
         21   -1    0    0  502  501  0.00000000000E+00  0.00000000000E+00  0.35480124217E+02  0.35480124217E+02  0.00000000000E+00 0.  1.
         21   -1    0    0  501  502 -0.00000000000E+00 -0.00000000000E+00 -0.14728447079E+04  0.14728447079E+04  0.00000000000E+00 0.  1.
      99926    2    1    2    0    0  0.00000000000E+00 -0.88817841970E-15 -0.14373645837E+04  0.15083248321E+04  0.45719454585E+03 0.  0.
      99925    2    3    3    0    0 -0.11113144410E+03  0.24286112407E+01 -0.80508158010E+03  0.85427177560E+03  0.26318780357E+03 0.  0.
         25    1    4    4    0    0 -0.88605753677E+02  0.24850075731E+02 -0.48048781780E+03  0.50495995584E+03  0.12509000000E+03 0.  0.
         25    1    4    4    0    0 -0.22525690421E+02 -0.22421464490E+02 -0.32459376230E+03  0.34931181976E+03  0.12509000000E+03 0.  0.
         25    1    3    3    0    0  0.11113144410E+03 -0.24286112407E+01 -0.63228300356E+03  0.65405305650E+03  0.12509000000E+03 0.  0.
<mgrwt>
<rscale>  2 0.45719455E+03</rscale>
<asrwt>0</asrwt>
<pdfrwt beam="1">  1       21 0.52176673E-02 0.45719455E+03</pdfrwt>
<pdfrwt beam="2">  1       21 0.21659473E+00 0.45719455E+03</pdfrwt>
<totfact> 0.23178233E+04</totfact>
</mgrwt>
</event>
<event>
 7    0  0.4737014E-002  0.4191380E+03  0.7546771E-02  0.1037347E+00
         21   -1    0    0  502  501  0.00000000000E+00  0.00000000000E+00  0.47205595662E+02  0.47205595662E+02  0.00000000000E+00 0. -1.
         21   -1    0    0  501  502 -0.00000000000E+00 -0.00000000000E+00 -0.93038056320E+03  0.93038056320E+03  0.00000000000E+00 0. -1.
      99926    2    1    2    0    0  0.00000000000E+00  0.35527136788E-14 -0.88317496754E+03  0.97758615886E+03  0.41913801392E+03 0.  0.
      99925    2    3    3    0    0 -0.67763283400E+02  0.29457309949E+02 -0.54892732178E+03  0.61312958740E+03  0.26295834397E+03 0.  0.
         25    1    4    4    0    0 -0.41282723907E+02 -0.23161883252E+02 -0.29778501879E+03  0.32644166653E+03  0.12509000000E+03 0.  0.
         25    1    4    4    0    0 -0.26480559492E+02  0.52619193200E+02 -0.25114230299E+03  0.28668792087E+03  0.12509000000E+03 0.  0.
         25    1    3    3    0    0  0.67763283400E+02 -0.29457309949E+02 -0.33424764576E+03  0.36445657146E+03  0.12509000000E+03 0.  0.
<mgrwt>
<rscale>  2 0.41913801E+03</rscale>
<asrwt>0</asrwt>
<pdfrwt beam="1">  1       21 0.69419988E-02 0.41913801E+03</pdfrwt>
<pdfrwt beam="2">  1       21 0.13682068E+00 0.41913801E+03</pdfrwt>
<totfact> 0.53552130E+04</totfact>
</mgrwt>
</event>
<event>
 7    0  0.4737014E-002  0.4549997E+03  0.7546771E-02  0.1026241E+00
         21   -1    0    0  502  501  0.00000000000E+00  0.00000000000E+00  0.23525482971E+03  0.23525482971E+03  0.00000000000E+00 0.  1.
         21   -1    0    0  501  502 -0.00000000000E+00 -0.00000000000E+00 -0.22000048197E+03  0.22000048197E+03  0.00000000000E+00 0.  1.
      99926    2    1    2    0    0  0.34694469520E-16  0.00000000000E+00  0.15254347737E+02  0.45525531168E+03  0.45499967439E+03 0.  0.
      99925    2    3    3    0    0 -0.55452078282E-01  0.48202085985E+02  0.11219002094E+03  0.28982412657E+03  0.26284592327E+03 0.  0.
         25    1    4    4    0    0 -0.28810625834E+02 -0.32496795637E+01  0.63244984882E+02  0.14313646912E+03  0.12509000000E+03 0.  0.
         25    1    4    4    0    0  0.28755173756E+02  0.51451765549E+02  0.48945036055E+02  0.14668765746E+03  0.12509000000E+03 0.  0.
         25    1    3    3    0    0  0.55452078282E-01 -0.48202085985E+02 -0.96935673200E+02  0.16543118511E+03  0.12509000000E+03 0.  0.
<mgrwt>
<rscale>  2 0.45499967E+03</rscale>
<asrwt>0</asrwt>
<pdfrwt beam="1">  1       21 0.34596298E-01 0.45499967E+03</pdfrwt>
<pdfrwt beam="2">  1       21 0.32353012E-01 0.45499967E+03</pdfrwt>
<totfact> 0.68527284E+04</totfact>
</mgrwt>
</event>
<event>
 7    0  0.4737014E-002  0.4563361E+03  0.7546771E-02  0.1025849E+00
         21   -1    0    0  502  501  0.00000000000E+00  0.00000000000E+00  0.16358951204E+03  0.16358951204E+03  0.00000000000E+00 0. -1.
         21   -1    0    0  501  502 -0.00000000000E+00 -0.00000000000E+00 -0.31823961244E+03  0.31823961244E+03  0.00000000000E+00 0. -1.
      99926    2    1    2    0    0  0.00000000000E+00  0.00000000000E+00 -0.15465010041E+03  0.48182912448E+03  0.45633611696E+03 0.  0.
      99925    2    3    3    0    0  0.77872752719E+02  0.49742461308E+02 -0.25933510149E+02  0.27995305661E+03  0.26298800140E+03 0.  0.
         25    1    4    4    0    0  0.19340412736E+02  0.48736060834E+02 -0.39256150066E+02  0.14120130526E+03  0.12509000000E+03 0.  0.
         25    1    4    4    0    0  0.58532339983E+02  0.10064004737E+01  0.13322639917E+02  0.13875175134E+03  0.12509000000E+03 0.  0.
         25    1    3    3    0    0 -0.77872752719E+02 -0.49742461308E+02 -0.12871659026E+03  0.20187606788E+03  0.12509000000E+03 0.  0.
<mgrwt>
<rscale>  2 0.45633612E+03</rscale>
<asrwt>0</asrwt>
<pdfrwt beam="1">  1       21 0.24057281E-01 0.45633612E+03</pdfrwt>
<pdfrwt beam="2">  1       21 0.46799942E-01 0.45633612E+03</pdfrwt>
<totfact> 0.65865863E+04</totfact>
</mgrwt>
</event>
<event>
 7    0  0.4737014E-002  0.4513882E+03  0.7546771E-02  0.1027309E+00
         21   -1    0    0  502  501  0.00000000000E+00  0.00000000000E+00  0.74038990455E+02  0.74038990455E+02  0.00000000000E+00 0. -1.
         21   -1    0    0  501  502 -0.00000000000E+00 -0.00000000000E+00 -0.68798661952E+03  0.68798661952E+03  0.00000000000E+00 0. -1.
      99926    2    1    2    0    0  0.71054273576E-14  0.00000000000E+00 -0.61394762907E+03  0.76202560998E+03  0.45138823536E+03 0.  0.
      99925    2    3    3    0    0 -0.44212254958E+02  0.87570742872E+02 -0.30509968425E+03  0.41466712136E+03  0.26313427316E+03 0.  0.
         25    1    4    4    0    0 -0.92268537189E+01  0.23506269209E+01 -0.13892763923E+03  0.18718722531E+03  0.12509000000E+03 0.  0.
         25    1    4    4    0    0 -0.34985401239E+02  0.85220115951E+02 -0.16617204503E+03  0.22747989606E+03  0.12509000000E+03 0.  0.
         25    1    3    3    0    0  0.44212254958E+02 -0.87570742872E+02 -0.30884794481E+03  0.34735848861E+03  0.12509000000E+03 0.  0.
<mgrwt>
<rscale>  2 0.45138824E+03</rscale>
<asrwt>0</asrwt>
<pdfrwt beam="1">  1       21 0.10888087E-01 0.45138824E+03</pdfrwt>
<pdfrwt beam="2">  1       21 0.10117450E+00 0.45138824E+03</pdfrwt>
<totfact> 0.51089474E+04</totfact>
</mgrwt>
</event>
<event>
 7    0  0.4737014E-002  0.4554095E+03  0.7546771E-02  0.1026121E+00
         21   -1    0    0  502  501  0.00000000000E+00  0.00000000000E+00  0.31616935780E+04  0.31616935780E+04  0.00000000000E+00 0. -1.
         21   -1    0    0  501  502 -0.00000000000E+00 -0.00000000000E+00 -0.16399265308E+02  0.16399265308E+02  0.00000000000E+00 0. -1.
      99926    2    1    2    0    0  0.00000000000E+00 -0.17763568394E-14  0.31452943127E+04  0.31780928433E+04  0.45540949401E+03 0.  0.
      99925    2    3    3    0    0 -0.29466584868E+02 -0.72864101429E+01  0.12148791759E+04  0.12433909335E+04  0.26299853622E+03 0.  0.
         25    1    3    3    0    0  0.29466584868E+02  0.72864101429E+01  0.19304151368E+04  0.19347019098E+04  0.12509000000E+03 0.  0.
         25    1    4    4    0    0  0.10074647294E+02  0.25216880805E+02  0.52325040586E+03  0.53867976102E+03  0.12509000000E+03 0.  0.
         25    1    4    4    0    0 -0.39541232162E+02 -0.32503290948E+02  0.69162877001E+03  0.70471117245E+03  0.12509000000E+03 0.  0.
<mgrwt>
<rscale>  2 0.45540949E+03</rscale>
<asrwt>0</asrwt>
<pdfrwt beam="1">  1       21 0.46495451E+00 0.45540949E+03</pdfrwt>
<pdfrwt beam="2">  1       21 0.24116589E-02 0.45540949E+03</pdfrwt>
<totfact> 0.23647084E+03</totfact>
</mgrwt>
</event>
<event>
 7    0  0.4737014E-002  0.4523310E+03  0.7546771E-02  0.1027029E+00
         21   -1    0    0  502  501  0.00000000000E+00  0.00000000000E+00  0.22427263752E+04  0.22427263752E+04  0.00000000000E+00 0. -1.
         21   -1    0    0  501  502 -0.00000000000E+00 -0.00000000000E+00 -0.22807436227E+02  0.22807436227E+02  0.00000000000E+00 0. -1.
      99926    2    1    2    0    0  0.00000000000E+00  0.00000000000E+00  0.22199189389E+04  0.22655338114E+04  0.45233102382E+03 0.  0.
      99925    2    3    3    0    0  0.18842035738E+02  0.59589277878E+02  0.18577821851E+04  0.18773374166E+04  0.26293577950E+03 0.  0.
         25    1    3    3    0    0 -0.18842035738E+02 -0.59589277878E+02  0.36213675382E+03  0.38819639477E+03  0.12509000000E+03 0.  0.
         25    1    4    4    0    0 -0.62653625226E+01 -0.72255175653E+01  0.93658546699E+03  0.94495042619E+03  0.12509000000E+03 0.  0.
         25    1    4    4    0    0  0.25107398261E+02  0.66814795443E+02  0.92119671812E+03  0.93238699042E+03  0.12509000000E+03 0.  0.
<mgrwt>
<rscale>  2 0.45233102E+03</rscale>
<asrwt>0</asrwt>
<pdfrwt beam="1">  1       21 0.32981255E+00 0.45233102E+03</pdfrwt>
<pdfrwt beam="2">  1       21 0.33540363E-02 0.45233102E+03</pdfrwt>
<totfact> 0.10045317E+04</totfact>
</mgrwt>
</event>
<event>
 7    0  0.4737014E-002  0.4564630E+03  0.7546771E-02  0.1025812E+00
         21   -1    0    0  502  501  0.00000000000E+00  0.00000000000E+00  0.88887789914E+02  0.88887789914E+02  0.00000000000E+00 0. -1.
         21   -1    0    0  501  502 -0.00000000000E+00 -0.00000000000E+00 -0.58601539800E+03  0.58601539800E+03  0.00000000000E+00 0. -1.
      99926    2    1    2    0    0  0.00000000000E+00 -0.14210854715E-13 -0.49712760809E+03  0.67490318791E+03  0.45646298244E+03 0.  0.
      99925    2    3    3    0    0  0.76569053192E+02  0.65338225258E+02 -0.39322369270E+03  0.48365613482E+03  0.26299521033E+03 0.  0.
         25    1    4    4    0    0  0.14320253433E+02  0.61099813630E+02 -0.22449994044E+03  0.26454865005E+03  0.12509000000E+03 0.  0.
         25    1    4    4    0    0  0.62248799759E+02  0.42384116277E+01 -0.16872375226E+03  0.21910748477E+03  0.12509000000E+03 0.  0.
         25    1    3    3    0    0 -0.76569053192E+02 -0.65338225258E+02 -0.10390391538E+03  0.19124705310E+03  0.12509000000E+03 0.  0.
<mgrwt>
<rscale>  2 0.45646298E+03</rscale>
<asrwt>0</asrwt>
<pdfrwt beam="1">  1       21 0.13071734E-01 0.45646298E+03</pdfrwt>
<pdfrwt beam="2">  1       21 0.86178736E-01 0.45646298E+03</pdfrwt>
<totfact> 0.53665741E+04</totfact>
</mgrwt>
</event>
<event>
 7    0  0.4737014E-002  0.4559543E+03  0.7546771E-02  0.1025961E+00
         21   -1    0    0  502  501  0.00000000000E+00  0.00000000000E+00  0.60540310736E+03  0.60540310736E+03  0.00000000000E+00 0. -1.
         21   -1    0    0  501  502 -0.00000000000E+00 -0.00000000000E+00 -0.85849539804E+02  0.85849539804E+02  0.00000000000E+00 0. -1.
      99926    2    1    2    0    0 -0.35527136788E-14  0.00000000000E+00  0.51955356756E+03  0.69125264717E+03  0.45595428790E+03 0.  0.
      99925    2    3    3    0    0  0.17859108115E+02 -0.51100850776E+02  0.47958087465E+03  0.54921191719E+03  0.26211766435E+03 0.  0.
         25    1    4    4    0    0 -0.24733151874E+02 -0.45288478016E+02  0.23655032363E+03  0.27251851084E+03  0.12509000000E+03 0.  0.
         25    1    4    4    0    0  0.42592259989E+02 -0.58123727600E+01  0.24303055103E+03  0.27669340636E+03  0.12509000000E+03 0.  0.
         25    1    3    3    0    0 -0.17859108115E+02  0.51100850776E+02  0.39972692904E+02  0.14204072997E+03  0.12509000000E+03 0.  0.
<mgrwt>
<rscale>  2 0.45595429E+03</rscale>
<asrwt>0</asrwt>
<pdfrwt beam="1">  1       21 0.89029866E-01 0.45595429E+03</pdfrwt>
<pdfrwt beam="2">  1       21 0.12624933E-01 0.45595429E+03</pdfrwt>
<totfact> 0.52981428E+04</totfact>
</mgrwt>
</event>
<event>
 7    0  0.4737014E-002  0.4421958E+03  0.7546771E-02  0.1030075E+00
         21   -1    0    0  502  501  0.00000000000E+00  0.00000000000E+00  0.12529886850E+04  0.12529886850E+04  0.00000000000E+00 0. -1.
         21   -1    0    0  501  502 -0.00000000000E+00 -0.00000000000E+00 -0.39014151040E+02  0.39014151040E+02  0.00000000000E+00 0. -1.
      99926    2    1    2    0    0  0.00000000000E+00  0.00000000000E+00  0.12139745340E+04  0.12920028361E+04  0.44219583811E+03 0.  0.
      99925    2    3    3    0    0 -0.86475697764E+02  0.32455131614E+02  0.64978080738E+03  0.70677343565E+03  0.26226362658E+03 0.  0.
         25    1    4    4    0    0 -0.94178419479E+01 -0.76725721830E+01  0.28569969753E+03  0.31212079293E+03  0.12509000000E+03 0.  0.
         25    1    4    4    0    0 -0.77057855816E+02  0.40127703797E+02  0.36408110985E+03  0.39465264272E+03  0.12509000000E+03 0.  0.
         25    1    3    3    0    0  0.86475697764E+02 -0.32455131614E+02  0.56419372662E+03  0.58522940043E+03  0.12509000000E+03 0.  0.
<mgrwt>
<rscale>  2 0.44219584E+03</rscale>
<asrwt>0</asrwt>
<pdfrwt beam="1">  1       21 0.18426301E+00 0.44219584E+03</pdfrwt>
<pdfrwt beam="2">  1       21 0.57373760E-02 0.44219584E+03</pdfrwt>
<totfact> 0.32462226E+04</totfact>
</mgrwt>
</event>
<event>
 7    0  0.4737014E-002  0.4541834E+03  0.7546771E-02  0.1026482E+00
         21   -1    0    0  502  501  0.00000000000E+00  0.00000000000E+00  0.89634698702E+02  0.89634698702E+02  0.00000000000E+00 0.  1.
         21   -1    0    0  501  502 -0.00000000000E+00 -0.00000000000E+00 -0.57534243696E+03  0.57534243696E+03  0.00000000000E+00 0.  1.
      99926    2    1    2    0    0 -0.35527136788E-14  0.00000000000E+00 -0.48570773826E+03  0.66497713567E+03  0.45418342545E+03 0.  0.
      99925    2    3    3    0    0 -0.24302767988E+02 -0.69510057569E+01 -0.46622262901E+03  0.53587981348E+03  0.26299181295E+03 0.  0.
         25    1    4    4    0    0 -0.26612972889E+02 -0.13254954345E+02 -0.31019911926E+03  0.33579003235E+03  0.12509000000E+03 0.  0.
         25    1    3    3    0    0  0.24302767988E+02  0.69510057569E+01 -0.19485109248E+02  0.12909732218E+03  0.12509000000E+03 0.  0.
         25    1    4    4    0    0  0.23102049009E+01  0.63039485884E+01 -0.15602350976E+03  0.20008978113E+03  0.12509000000E+03 0.  0.
<mgrwt>
<rscale>  2 0.45418343E+03</rscale>
<asrwt>0</asrwt>
<pdfrwt beam="1">  1       21 0.13181572E-01 0.45418343E+03</pdfrwt>
<pdfrwt beam="2">  1       21 0.84609187E-01 0.45418343E+03</pdfrwt>
<totfact> 0.55200372E+04</totfact>
</mgrwt>
</event>
<event>
 7    0  0.4737014E-002  0.4267711E+03  0.7546771E-02  0.1034885E+00
         21   -1    0    0  502  501  0.00000000000E+00  0.00000000000E+00  0.14560314477E+03  0.14560314477E+03  0.00000000000E+00 0. -1.
         21   -1    0    0  501  502 -0.00000000000E+00 -0.00000000000E+00 -0.31272259900E+03  0.31272259900E+03  0.00000000000E+00 0. -1.
      99926    2    1    2    0    0  0.00000000000E+00  0.00000000000E+00 -0.16711945423E+03  0.45832574377E+03  0.42677110425E+03 0.  0.
      99925    2    3    3    0    0 -0.63070741880E+02 -0.53883535988E+02 -0.94650500559E+02  0.29165057682E+03  0.26309691707E+03 0.  0.
         25    1    3    3    0    0  0.63070741880E+02  0.53883535988E+02 -0.72468953670E+02  0.16667516695E+03  0.12509000000E+03 0.  0.
         25    1    4    4    0    0 -0.13402078668E+02 -0.50034099359E+02 -0.17630889994E+02  0.13653345082E+03  0.12509000000E+03 0.  0.
         25    1    4    4    0    0 -0.49668663212E+02 -0.38494366286E+01 -0.77019610565E+02  0.15511712600E+03  0.12509000000E+03 0.  0.
<mgrwt>
<rscale>  2 0.42677110E+03</rscale>
<asrwt>0</asrwt>
<pdfrwt beam="1">  1       21 0.21412227E-01 0.42677110E+03</pdfrwt>
<pdfrwt beam="2">  1       21 0.45988617E-01 0.42677110E+03</pdfrwt>
<totfact> 0.86030333E+04</totfact>
</mgrwt>
</event>
<event>
 7    0  0.4737014E-002  0.4548857E+03  0.7546771E-02  0.1026275E+00
         21   -1    0    0  502  501  0.00000000000E+00  0.00000000000E+00  0.16473293946E+03  0.16473293946E+03  0.00000000000E+00 0. -1.
         21   -1    0    0  501  502 -0.00000000000E+00 -0.00000000000E+00 -0.31402493243E+03  0.31402493243E+03  0.00000000000E+00 0. -1.
      99926    2    1    2    0    0  0.00000000000E+00  0.00000000000E+00 -0.14929199297E+03  0.47875787190E+03  0.45488570074E+03 0.  0.
      99925    2    3    3    0    0 -0.88952484875E+02  0.24101004785E+02 -0.16287366941E+03  0.32279193641E+03  0.26300836304E+03 0.  0.
         25    1    4    4    0    0 -0.14288861461E+02 -0.17578110666E+02 -0.71594157468E+02  0.14589857100E+03  0.12509000000E+03 0.  0.
         25    1    4    4    0    0 -0.74663623414E+02  0.41679115452E+02 -0.91279511938E+02  0.17689336541E+03  0.12509000000E+03 0.  0.
         25    1    3    3    0    0  0.88952484875E+02 -0.24101004785E+02  0.13581676437E+02  0.15596593549E+03  0.12509000000E+03 0.  0.
<mgrwt>
<rscale>  2 0.45488570E+03</rscale>
<asrwt>0</asrwt>
<pdfrwt beam="1">  1       21 0.24225432E-01 0.45488570E+03</pdfrwt>
<pdfrwt beam="2">  1       21 0.46180137E-01 0.45488570E+03</pdfrwt>
<totfact> 0.66851252E+04</totfact>
</mgrwt>
</event>
<event>
 7    0  0.4737014E-002  0.4511544E+03  0.7546771E-02  0.1027378E+00
         21   -1    0    0  502  501  0.00000000000E+00  0.00000000000E+00  0.80196444009E+03  0.80196444009E+03  0.00000000000E+00 0.  1.
         21   -1    0    0  501  502 -0.00000000000E+00 -0.00000000000E+00 -0.63450534409E+02  0.63450534409E+02  0.00000000000E+00 0.  1.
      99926    2    1    2    0    0  0.14210854715E-13 -0.71054273576E-14  0.73851390568E+03  0.86541497450E+03  0.45115439619E+03 0.  0.
      99925    2    3    3    0    0  0.94277866580E+02 -0.48134222009E+02  0.41549664719E+03  0.50320940188E+03  0.26339517622E+03 0.  0.
         25    1    3    3    0    0 -0.94277866580E+02  0.48134222009E+02  0.32301725849E+03  0.36220557262E+03  0.12509000000E+03 0.  0.
         25    1    4    4    0    0  0.35496359470E+02 -0.16118351722E+02  0.13088608591E+03  0.18519845675E+03  0.12509000000E+03 0.  0.
         25    1    4    4    0    0  0.58781507110E+02 -0.32015870287E+02  0.28461056128E+03  0.31801094512E+03  0.12509000000E+03 0.  0.
<mgrwt>
<rscale>  2 0.45115440E+03</rscale>
<asrwt>0</asrwt>
<pdfrwt beam="1">  1       21 0.11793594E+00 0.45115440E+03</pdfrwt>
<pdfrwt beam="2">  1       21 0.93309614E-02 0.45115440E+03</pdfrwt>
<totfact> 0.46133129E+04</totfact>
</mgrwt>
</event>
<event>
 7    0  0.4737014E-002  0.4584408E+03  0.7546771E-02  0.1025234E+00
         21   -1    0    0  502  501  0.00000000000E+00  0.00000000000E+00  0.60469472436E+02  0.60469472436E+02  0.00000000000E+00 0. -1.
         21   -1    0    0  501  502 -0.00000000000E+00 -0.00000000000E+00 -0.86890106710E+03  0.86890106710E+03  0.00000000000E+00 0. -1.
      99926    2    1    2    0    0  0.00000000000E+00  0.00000000000E+00 -0.80843159466E+03  0.92937053953E+03  0.45844078844E+03 0.  0.
      99925    2    3    3    0    0  0.10599197711E+03  0.29724362051E+02 -0.58389120326E+03  0.64975699841E+03  0.26293988443E+03 0.  0.
         25    1    3    3    0    0 -0.10599197711E+03 -0.29724362051E+02 -0.22454039140E+03  0.27961354112E+03  0.12509000000E+03 0.  0.
         25    1    4    4    0    0  0.18666564740E+02  0.19703447853E+01 -0.21252629723E+03  0.24732015286E+03  0.12509000000E+03 0.  0.
         25    1    4    4    0    0  0.87325412369E+02  0.27754017266E+02 -0.37136490603E+03  0.40243684554E+03  0.12509000000E+03 0.  0.
<mgrwt>
<rscale>  2 0.45844079E+03</rscale>
<asrwt>0</asrwt>
<pdfrwt beam="1">  1       21 0.88925697E-02 0.45844079E+03</pdfrwt>
<pdfrwt beam="2">  1       21 0.12777957E+00 0.45844079E+03</pdfrwt>
<totfact> 0.40876441E+04</totfact>
</mgrwt>
</event>
<event>
 7    0  0.4737014E-002  0.4465015E+03  0.7546771E-02  0.1028770E+00
         21   -1    0    0  502  501  0.00000000000E+00  0.00000000000E+00  0.82519507741E+03  0.82519507741E+03  0.00000000000E+00 0.  1.
         21   -1    0    0  501  502 -0.00000000000E+00 -0.00000000000E+00 -0.60398931343E+02  0.60398931343E+02  0.00000000000E+00 0.  1.
      99926    2    1    2    0    0  0.00000000000E+00  0.00000000000E+00  0.76479614607E+03  0.88559400876E+03  0.44650151545E+03 0.  0.
      99925    2    3    3    0    0  0.26960099968E+02  0.81857518466E+02  0.36603348688E+03  0.45887786566E+03  0.26298456561E+03 0.  0.
         25    1    3    3    0    0 -0.26960099968E+02 -0.81857518466E+02  0.39876265919E+03  0.42671614310E+03  0.12509000000E+03 0.  0.
         25    1    4    4    0    0  0.49234190547E+02  0.26848793961E+02  0.20351550245E+03  0.24537915782E+03  0.12509000000E+03 0.  0.
         25    1    4    4    0    0 -0.22274090579E+02  0.55008724505E+02  0.16251798444E+03  0.21349870784E+03  0.12509000000E+03 0.  0.
<mgrwt>
<rscale>  2 0.44650152E+03</rscale>
<asrwt>0</asrwt>
<pdfrwt beam="1">  1       21 0.12135221E+00 0.44650152E+03</pdfrwt>
<pdfrwt beam="2">  1       21 0.88821963E-02 0.44650152E+03</pdfrwt>
<totfact> 0.46907062E+04</totfact>
</mgrwt>
</event>
<event>
 7    0  0.4737014E-002  0.4565006E+03  0.7546771E-02  0.1025801E+00
         21   -1    0    0  502  501  0.00000000000E+00  0.00000000000E+00  0.13780054982E+03  0.13780054982E+03  0.00000000000E+00 0. -1.
         21   -1    0    0  501  502 -0.00000000000E+00 -0.00000000000E+00 -0.37806956124E+03  0.37806956124E+03  0.00000000000E+00 0. -1.
      99926    2    1    2    0    0  0.00000000000E+00  0.14210854715E-13 -0.24026901142E+03  0.51587011105E+03  0.45650057353E+03 0.  0.
      99925    2    3    3    0    0 -0.47546615100E+02  0.83861762521E+02 -0.80910224959E+02  0.29151279171E+03  0.26294441886E+03 0.  0.
         25    1    4    4    0    0  0.12478294721E+02  0.59344195937E+02 -0.35423068807E+02  0.14345641615E+03  0.12509000000E+03 0.  0.
         25    1    3    3    0    0  0.47546615100E+02 -0.83861762521E+02 -0.15935878646E+03  0.22435731934E+03  0.12509000000E+03 0.  0.
         25    1    4    4    0    0 -0.60024909822E+02  0.24517566584E+02 -0.45487156152E+02  0.14805637556E+03  0.12509000000E+03 0.  0.
<mgrwt>
<rscale>  2 0.45650057E+03</rscale>
<asrwt>0</asrwt>
<pdfrwt beam="1">  1       21 0.20264787E-01 0.45650057E+03</pdfrwt>
<pdfrwt beam="2">  1       21 0.55598464E-01 0.45650057E+03</pdfrwt>
<totfact> 0.63411099E+04</totfact>
</mgrwt>
</event>
<event>
 7    0  0.4737014E-002  0.4502041E+03  0.7546771E-02  0.1027661E+00
         21   -1    0    0  502  501  0.00000000000E+00  0.00000000000E+00  0.16620111242E+03  0.16620111242E+03  0.00000000000E+00 0. -1.
         21   -1    0    0  501  502 -0.00000000000E+00 -0.00000000000E+00 -0.30487721228E+03  0.30487721228E+03  0.00000000000E+00 0. -1.
      99926    2    1    2    0    0 -0.53290705182E-14  0.14210854715E-13 -0.13867609986E+03  0.47107832470E+03  0.45020409519E+03 0.  0.
      99925    2    3    3    0    0  0.12272159265E+02 -0.95466783000E+02 -0.34269375102E+02  0.28183566348E+03  0.26266411744E+03 0.  0.
         25    1    4    4    0    0 -0.25156406047E+02 -0.21696181859E+02 -0.88488070315E+01  0.12972809471E+03  0.12509000000E+03 0.  0.
         25    1    4    4    0    0  0.37428565311E+02 -0.73770601142E+02 -0.25420568070E+02  0.15210756876E+03  0.12509000000E+03 0.  0.
         25    1    3    3    0    0 -0.12272159265E+02  0.95466783000E+02 -0.10440672476E+03  0.18924266122E+03  0.12509000000E+03 0.  0.
<mgrwt>
<rscale>  2 0.45020410E+03</rscale>
<asrwt>0</asrwt>
<pdfrwt beam="1">  1       21 0.24441340E-01 0.45020410E+03</pdfrwt>
<pdfrwt beam="2">  1       21 0.44834884E-01 0.45020410E+03</pdfrwt>
<totfact> 0.69981120E+04</totfact>
</mgrwt>
</event>
<event>
 7    0  0.4737014E-002  0.4551002E+03  0.7546771E-02  0.1026212E+00
         21   -1    0    0  502  501  0.00000000000E+00  0.00000000000E+00  0.28424410278E+03  0.28424410278E+03  0.00000000000E+00 0.  1.
         21   -1    0    0  501  502 -0.00000000000E+00 -0.00000000000E+00 -0.18216400290E+03  0.18216400290E+03  0.00000000000E+00 0.  1.
      99926    2    1    2    0    0  0.00000000000E+00  0.00000000000E+00  0.10208009987E+03  0.46640810568E+03  0.45510018046E+03 0.  0.
      99925    2    3    3    0    0 -0.13574024542E+02 -0.10777090722E+03  0.97086659976E+02  0.30066352771E+03  0.26300934349E+03 0.  0.
         25    1    3    3    0    0  0.13574024542E+02  0.10777090722E+03  0.49934398964E+01  0.16574457797E+03  0.12509000000E+03 0.  0.
         25    1    4    4    0    0 -0.29419412224E+02 -0.83584777404E+02  0.73978052816E+02  0.17021215358E+03  0.12509000000E+03 0.  0.
         25    1    4    4    0    0  0.15845387682E+02 -0.24186129816E+02  0.23108607160E+02  0.13045137413E+03  0.12509000000E+03 0.  0.
<mgrwt>
<rscale>  2 0.45510018E+03</rscale>
<asrwt>0</asrwt>
<pdfrwt beam="1">  1       21 0.41800603E-01 0.45510018E+03</pdfrwt>
<pdfrwt beam="2">  1       21 0.26788824E-01 0.45510018E+03</pdfrwt>
<totfact> 0.67650400E+04</totfact>
</mgrwt>
</event>
<event>
 7    0  0.4737014E-002  0.4518335E+03  0.7546771E-02  0.1027177E+00
         21   -1    0    0  502  501  0.00000000000E+00  0.00000000000E+00  0.13121140157E+03  0.13121140157E+03  0.00000000000E+00 0. -1.
         21   -1    0    0  501  502 -0.00000000000E+00 -0.00000000000E+00 -0.38897814617E+03  0.38897814617E+03  0.00000000000E+00 0. -1.
      99926    2    1    2    0    0  0.35527136788E-14  0.71054273576E-14 -0.25776674460E+03  0.52018954774E+03  0.45183345489E+03 0.  0.
      99925    2    3    3    0    0 -0.28332999505E+02 -0.50367313348E+02 -0.54655637694E+02  0.27474860788E+03  0.26298276309E+03 0.  0.
         25    1    3    3    0    0  0.28332999505E+02  0.50367313348E+02 -0.20311110690E+03  0.24544093987E+03  0.12509000000E+03 0.  0.
         25    1    4    4    0    0 -0.43765776450E+02 -0.54081489149E+02 -0.27050432383E+02  0.14566909298E+03  0.12509000000E+03 0.  0.
         25    1    4    4    0    0  0.15432776944E+02  0.37141758007E+01 -0.27605205311E+02  0.12907951490E+03  0.12509000000E+03 0.  0.
<mgrwt>
<rscale>  2 0.45183345E+03</rscale>
<asrwt>0</asrwt>
<pdfrwt beam="1">  1       21 0.19295795E-01 0.45183345E+03</pdfrwt>
<pdfrwt beam="2">  1       21 0.57202668E-01 0.45183345E+03</pdfrwt>
<totfact> 0.65504464E+04</totfact>
</mgrwt>
</event>
<event>
 7    0  0.4737014E-002  0.4558185E+03  0.7546771E-02  0.1026001E+00
         21   -1    0    0  502  501  0.00000000000E+00  0.00000000000E+00  0.49547845346E+03  0.49547845346E+03  0.00000000000E+00 0. -1.
         21   -1    0    0  501  502 -0.00000000000E+00 -0.00000000000E+00 -0.10483326454E+03  0.10483326454E+03  0.00000000000E+00 0. -1.
      99926    2    1    2    0    0  0.00000000000E+00  0.00000000000E+00  0.39064518892E+03  0.60031171800E+03  0.45581848925E+03 0.  0.
      99925    2    3    3    0    0 -0.87803298191E+02 -0.50805569873E+02  0.18080377748E+03  0.33579035561E+03  0.26414869273E+03 0.  0.
         25    1    4    4    0    0 -0.84954364740E+02 -0.38778041143E+02  0.11514028424E+03  0.19397364181E+03  0.12509000000E+03 0.  0.
         25    1    3    3    0    0  0.87803298191E+02  0.50805569873E+02  0.20984141144E+03  0.26452136239E+03  0.12509000000E+03 0.  0.
         25    1    4    4    0    0 -0.28489334514E+01 -0.12027528731E+02  0.65663493235E+02  0.14181671380E+03  0.12509000000E+03 0.  0.
<mgrwt>
<rscale>  2 0.45581849E+03</rscale>
<asrwt>0</asrwt>
<pdfrwt beam="1">  1       21 0.72864477E-01 0.45581849E+03</pdfrwt>
<pdfrwt beam="2">  1       21 0.15416657E-01 0.45581849E+03</pdfrwt>
<totfact> 0.58281261E+04</totfact>
</mgrwt>
</event>
<event>
 7    0  0.4737014E-002  0.4470746E+03  0.7546771E-02  0.1028598E+00
         21   -1    0    0  502  501  0.00000000000E+00  0.00000000000E+00  0.33492592483E+03  0.33492592483E+03  0.00000000000E+00 0.  1.
         21   -1    0    0  501  502 -0.00000000000E+00 -0.00000000000E+00 -0.14919397504E+03  0.14919397504E+03  0.00000000000E+00 0.  1.
      99926    2    1    2    0    0  0.00000000000E+00  0.00000000000E+00  0.18573194979E+03  0.48411989987E+03  0.44707462496E+03 0.  0.
      99925    2    3    3    0    0  0.53637122591E+02 -0.86797884142E+02  0.14723498412E+03  0.31816708105E+03  0.26294740406E+03 0.  0.
         25    1    4    4    0    0  0.46543531102E+02 -0.51949670656E+02  0.11629181539E+03  0.18448946581E+03  0.12509000000E+03 0.  0.
         25    1    3    3    0    0 -0.53637122591E+02  0.86797884142E+02  0.38496965666E+02  0.16595281883E+03  0.12509000000E+03 0.  0.
         25    1    4    4    0    0  0.70935914892E+01 -0.34848213486E+02  0.30943168728E+02  0.13367761523E+03  0.12509000000E+03 0.  0.
<mgrwt>
<rscale>  2 0.44707462E+03</rscale>
<asrwt>0</asrwt>
<pdfrwt beam="1">  1       21 0.49253812E-01 0.44707462E+03</pdfrwt>
<pdfrwt beam="2">  1       21 0.21940290E-01 0.44707462E+03</pdfrwt>
<totfact> 0.70749001E+04</totfact>
</mgrwt>
</event>
<event>
 7    0  0.4737014E-002  0.4474142E+03  0.7546771E-02  0.1028496E+00
         21   -1    0    0  502  501  0.00000000000E+00  0.00000000000E+00  0.40454171537E+02  0.40454171537E+02  0.00000000000E+00 0.  1.
         21   -1    0    0  501  502 -0.00000000000E+00 -0.00000000000E+00 -0.12370756237E+04  0.12370756237E+04  0.00000000000E+00 0.  1.
      99926    2    1    2    0    0  0.14210854715E-13  0.71054273576E-14 -0.11966214522E+04  0.12775297953E+04  0.44741421295E+03 0.  0.
      99925    2    3    3    0    0  0.67160041489E+02  0.47566492841E+02 -0.56505117138E+03  0.62845231906E+03  0.26248133008E+03 0.  0.
         25    1    4    4    0    0  0.24683986517E+01  0.78616984205E+01 -0.21214713326E+03  0.24641796514E+03  0.12509000000E+03 0.  0.
         25    1    4    4    0    0  0.64691642837E+02  0.39704794420E+02 -0.35290403811E+03  0.38203435391E+03  0.12509000000E+03 0.  0.
         25    1    3    3    0    0 -0.67160041489E+02 -0.47566492841E+02 -0.63157028083E+03  0.64907747623E+03  0.12509000000E+03 0.  0.
<mgrwt>
<rscale>  2 0.44741421E+03</rscale>
<asrwt>0</asrwt>
<pdfrwt beam="1">  1       21 0.59491441E-02 0.44741421E+03</pdfrwt>
<pdfrwt beam="2">  1       21 0.18192285E+00 0.44741421E+03</pdfrwt>
<totfact> 0.31598215E+04</totfact>
</mgrwt>
</event>
<event>
 7    0  0.4737014E-002  0.4283412E+03  0.7546771E-02  0.1034385E+00
         21   -1    0    0  502  501  0.00000000000E+00  0.00000000000E+00  0.17797346339E+03  0.17797346339E+03  0.00000000000E+00 0. -1.
         21   -1    0    0  501  502 -0.00000000000E+00 -0.00000000000E+00 -0.25772967136E+03  0.25772967136E+03  0.00000000000E+00 0. -1.
      99926    2    1    2    0    0  0.00000000000E+00  0.00000000000E+00 -0.79756207968E+02  0.43570313475E+03  0.42834118285E+03 0.  0.
      99925    2    3    3    0    0  0.47104368647E+02  0.15428182554E+02  0.19523642459E+02  0.26848816185E+03  0.26314990039E+03 0.  0.
         25    1    4    4    0    0  0.61033597884E+02  0.59657631515E+01 -0.70936190918E+01  0.13949379173E+03  0.12509000000E+03 0.  0.
         25    1    3    3    0    0 -0.47104368647E+02 -0.15428182554E+02 -0.99279850427E+02  0.16721497290E+03  0.12509000000E+03 0.  0.
         25    1    4    4    0    0 -0.13929229238E+02  0.94624194027E+01  0.26617261551E+02  0.12899437011E+03  0.12509000000E+03 0.  0.
<mgrwt>
<rscale>  2 0.42834118E+03</rscale>
<asrwt>0</asrwt>
<pdfrwt beam="1">  1       21 0.26172568E-01 0.42834118E+03</pdfrwt>
<pdfrwt beam="2">  1       21 0.37901422E-01 0.42834118E+03</pdfrwt>
<totfact> 0.87073479E+04</totfact>
</mgrwt>
</event>
<event>
 7    0  0.4737014E-002  0.4615042E+03  0.7546771E-02  0.1024346E+00
         21   -1    0    0  502  501  0.00000000000E+00  0.00000000000E+00  0.22996328933E+03  0.22996328933E+03  0.00000000000E+00 0. -1.
         21   -1    0    0  501  502 -0.00000000000E+00 -0.00000000000E+00 -0.23154362264E+03  0.23154362264E+03  0.00000000000E+00 0. -1.
      99926    2    1    2    0    0  0.35527136788E-14  0.00000000000E+00 -0.15803333104E+01  0.46150691196E+03  0.46150420619E+03 0.  0.
      99925    2    3    3    0    0  0.14071790307E+01  0.10354414260E+03 -0.59915540233E+02  0.28895583522E+03  0.26302515683E+03 0.  0.
         25    1    4    4    0    0  0.36105454529E+02  0.45751300940E+02 -0.48993472397E+02  0.14643993247E+03  0.12509000000E+03 0.  0.
         25    1    3    3    0    0 -0.14071790307E+01 -0.10354414260E+03  0.58335206922E+02  0.17255107674E+03  0.12509000000E+03 0.  0.
         25    1    4    4    0    0 -0.34698275498E+02  0.57792841658E+02 -0.10922067836E+02  0.14251590275E+03  0.12509000000E+03 0.  0.
<mgrwt>
<rscale>  2 0.46150421E+03</rscale>
<asrwt>0</asrwt>
<pdfrwt beam="1">  1       21 0.33818131E-01 0.46150421E+03</pdfrwt>
<pdfrwt beam="2">  1       21 0.34050533E-01 0.46150421E+03</pdfrwt>
<totfact> 0.64650823E+04</totfact>
</mgrwt>
</event>
<event>
 7    0  0.4737014E-002  0.4661768E+03  0.7546771E-02  0.1023005E+00
         21   -1    0    0  502  501  0.00000000000E+00  0.00000000000E+00  0.14671895046E+03  0.14671895046E+03  0.00000000000E+00 0.  1.
         21   -1    0    0  501  502 -0.00000000000E+00 -0.00000000000E+00 -0.37030125433E+03  0.37030125433E+03  0.00000000000E+00 0.  1.
      99926    2    1    2    0    0  0.00000000000E+00  0.00000000000E+00 -0.22358230387E+03  0.51702020479E+03  0.46617683936E+03 0.  0.
      99925    2    3    3    0    0  0.56590600902E+02 -0.90207924796E+02 -0.71225514014E+02  0.29296649399E+03  0.26346978375E+03 0.  0.
         25    1    3    3    0    0 -0.56590600902E+02  0.90207924796E+02 -0.15235678986E+03  0.22405371080E+03  0.12509000000E+03 0.  0.
         25    1    4    4    0    0  0.23172839115E+01 -0.50391818128E+02 -0.67597019581E+02  0.15086938157E+03  0.12509000000E+03 0.  0.
         25    1    4    4    0    0  0.54273316991E+02 -0.39816106669E+02 -0.36284944333E+01  0.14209711242E+03  0.12509000000E+03 0.  0.
<mgrwt>
<rscale>  2 0.46617684E+03</rscale>
<asrwt>0</asrwt>
<pdfrwt beam="1">  1       21 0.21576316E-01 0.46617684E+03</pdfrwt>
<pdfrwt beam="2">  1       21 0.54456066E-01 0.46617684E+03</pdfrwt>
<totfact> 0.58707913E+04</totfact>
</mgrwt>
</event>
<event>
 7    0  0.4737014E-002  0.4597538E+03  0.7546771E-02  0.1024853E+00
         21   -1    0    0  502  501  0.00000000000E+00  0.00000000000E+00  0.84929385958E+03  0.84929385958E+03  0.00000000000E+00 0.  1.
         21   -1    0    0  501  502 -0.00000000000E+00 -0.00000000000E+00 -0.62220372101E+02  0.62220372101E+02  0.00000000000E+00 0.  1.
      99926    2    1    2    0    0  0.00000000000E+00  0.71054273576E-14  0.78707348748E+03  0.91151423168E+03  0.45975376003E+03 0.  0.
      99925    2    3    3    0    0 -0.87552668212E+02 -0.45099426043E+02  0.36551753926E+03  0.46089648512E+03  0.26291266714E+03 0.  0.
         25    1    4    4    0    0 -0.53666766506E+02 -0.54700547956E+02  0.15431115974E+03  0.21291245594E+03  0.12509000000E+03 0.  0.
         25    1    3    3    0    0  0.87552668212E+02  0.45099426043E+02  0.42155594821E+03  0.45061774656E+03  0.12509000000E+03 0.  0.
         25    1    4    4    0    0 -0.33885901706E+02  0.96011219129E+01  0.21120637953E+03  0.24798402918E+03  0.12509000000E+03 0.  0.
<mgrwt>
<rscale>  2 0.45975376E+03</rscale>
<asrwt>0</asrwt>
<pdfrwt beam="1">  1       21 0.12489615E+00 0.45975376E+03</pdfrwt>
<pdfrwt beam="2">  1       21 0.91500552E-02 0.45975376E+03</pdfrwt>
<totfact> 0.41185470E+04</totfact>
</mgrwt>
</event>
<event>
 7    0  0.4737014E-002  0.4581434E+03  0.7546771E-02  0.1025321E+00
         21   -1    0    0  502  501  0.00000000000E+00  0.00000000000E+00  0.18438341273E+03  0.18438341273E+03  0.00000000000E+00 0.  1.
         21   -1    0    0  501  502 -0.00000000000E+00 -0.00000000000E+00 -0.28459086031E+03  0.28459086031E+03  0.00000000000E+00 0.  1.
      99926    2    1    2    0    0  0.00000000000E+00  0.00000000000E+00 -0.10020744758E+03  0.46897427304E+03  0.45814335772E+03 0.  0.
      99925    2    3    3    0    0 -0.25038931821E+02 -0.59496422429E+02 -0.16178347642E+03  0.31533219606E+03  0.26285685884E+03 0.  0.
         25    1    3    3    0    0  0.25038931821E+02  0.59496422429E+02  0.61576028847E+02  0.15364207698E+03  0.12509000000E+03 0.  0.
         25    1    4    4    0    0  0.94506737646E+01 -0.61963320636E+02 -0.70579639930E+02  0.15670916378E+03  0.12509000000E+03 0.  0.
         25    1    4    4    0    0 -0.34489605586E+02  0.24668982070E+01 -0.91203836492E+02  0.15862303228E+03  0.12509000000E+03 0.  0.
<mgrwt>
<rscale>  2 0.45814336E+03</rscale>
<asrwt>0</asrwt>
<pdfrwt beam="1">  1       21 0.27115208E-01 0.45814336E+03</pdfrwt>
<pdfrwt beam="2">  1       21 0.41851597E-01 0.45814336E+03</pdfrwt>
<totfact> 0.65855121E+04</totfact>
</mgrwt>
</event>
<event>
 7    0  0.4737014E-002  0.4506642E+03  0.7546771E-02  0.1027524E+00
         21   -1    0    0  502  501  0.00000000000E+00  0.00000000000E+00  0.20429886785E+03  0.20429886785E+03  0.00000000000E+00 0. -1.
         21   -1    0    0  501  502 -0.00000000000E+00 -0.00000000000E+00 -0.24853078297E+03  0.24853078297E+03  0.00000000000E+00 0. -1.
      99926    2    1    2    0    0 -0.35527136788E-14  0.00000000000E+00 -0.44231915118E+02  0.45282965082E+03  0.45066421019E+03 0.  0.
      99925    2    3    3    0    0  0.20018881371E+02  0.10666052638E+03 -0.17265458060E+02  0.28504430759E+03  0.26301128825E+03 0.  0.
         25    1    4    4    0    0  0.29436461166E+02  0.92014956178E+02 -0.14517371548E+02  0.15871836561E+03  0.12509000000E+03 0.  0.
         25    1    4    4    0    0 -0.94175797946E+01  0.14645570203E+02 -0.27480865122E+01  0.12632594197E+03  0.12509000000E+03 0.  0.
         25    1    3    3    0    0 -0.20018881371E+02 -0.10666052638E+03 -0.26966457059E+02  0.16778534324E+03  0.12509000000E+03 0.  0.
<mgrwt>
<rscale>  2 0.45066421E+03</rscale>
<asrwt>0</asrwt>
<pdfrwt beam="1">  1       21 0.30043951E-01 0.45066421E+03</pdfrwt>
<pdfrwt beam="2">  1       21 0.36548645E-01 0.45066421E+03</pdfrwt>
<totfact> 0.71134189E+04</totfact>
</mgrwt>
</event>
<event>
 7    0  0.4737014E-002  0.4563517E+03  0.7546771E-02  0.1025845E+00
         21   -1    0    0  502  501  0.00000000000E+00  0.00000000000E+00  0.33646570534E+03  0.33646570534E+03  0.00000000000E+00 0. -1.
         21   -1    0    0  501  502 -0.00000000000E+00 -0.00000000000E+00 -0.15473858555E+03  0.15473858555E+03  0.00000000000E+00 0. -1.
      99926    2    1    2    0    0  0.00000000000E+00  0.00000000000E+00  0.18172711979E+03  0.49120429089E+03  0.45635173860E+03 0.  0.
      99925    2    3    3    0    0  0.57662807220E+02  0.82331019941E+02  0.17360260886E+03  0.33052787085E+03  0.26269261775E+03 0.  0.
         25    1    4    4    0    0  0.54910403101E+02  0.33775021925E+02  0.12362127772E+03  0.18731159302E+03  0.12509000000E+03 0.  0.
         25    1    4    4    0    0  0.27524041197E+01  0.48555998016E+02  0.49981331144E+02  0.14321627783E+03  0.12509000000E+03 0.  0.
         25    1    3    3    0    0 -0.57662807220E+02 -0.82331019941E+02  0.81245109251E+01  0.16067642005E+03  0.12509000000E+03 0.  0.
<mgrwt>
<rscale>  2 0.45635174E+03</rscale>
<asrwt>0</asrwt>
<pdfrwt beam="1">  1       21 0.49480251E-01 0.45635174E+03</pdfrwt>
<pdfrwt beam="2">  1       21 0.22755674E-01 0.45635174E+03</pdfrwt>
<totfact> 0.65190732E+04</totfact>
</mgrwt>
</event>
<event>
 7    0  0.4737014E-002  0.4514715E+03  0.7546771E-02  0.1027284E+00
         21   -1    0    0  502  501  0.00000000000E+00  0.00000000000E+00  0.56763737283E+02  0.56763737283E+02  0.00000000000E+00 0.  1.
         21   -1    0    0  501  502 -0.00000000000E+00 -0.00000000000E+00 -0.89769683443E+03  0.89769683443E+03  0.00000000000E+00 0.  1.
      99926    2    1    2    0    0  0.14210854715E-13  0.35527136788E-14 -0.84093309714E+03  0.95446057171E+03  0.45147149309E+03 0.  0.
      99925    2    3    3    0    0 -0.10063868840E+03 -0.50174883180E+01 -0.62101369272E+03  0.68212736893E+03  0.26360276954E+03 0.  0.
         25    1    4    4    0    0 -0.29076523419E+02  0.30586768659E+02 -0.33031195421E+03  0.35571686750E+03  0.12509000000E+03 0.  0.
         25    1    3    3    0    0  0.10063868840E+03  0.50174883180E+01 -0.21991940442E+03  0.27233320278E+03  0.12509000000E+03 0.  0.
         25    1    4    4    0    0 -0.71562164984E+02 -0.35604256977E+02 -0.29070173852E+03  0.32641050144E+03  0.12509000000E+03 0.  0.
<mgrwt>
<rscale>  2 0.45147149E+03</rscale>
<asrwt>0</asrwt>
<pdfrwt beam="1">  1       21 0.83476087E-02 0.45147149E+03</pdfrwt>
<pdfrwt beam="2">  1       21 0.13201424E+00 0.45147149E+03</pdfrwt>
<totfact> 0.42110631E+04</totfact>
</mgrwt>
</event>
<event>
 7    0  0.4737014E-002  0.4535538E+03  0.7546771E-02  0.1026668E+00
         21   -1    0    0  502  501  0.00000000000E+00  0.00000000000E+00  0.20571174026E+03  0.20571174026E+03  0.00000000000E+00 0.  1.
         21   -1    0    0  501  502 -0.00000000000E+00 -0.00000000000E+00 -0.24999919705E+03  0.24999919705E+03  0.00000000000E+00 0.  1.
      99926    2    1    2    0    0  0.00000000000E+00  0.00000000000E+00 -0.44287456792E+02  0.45571093731E+03  0.45355383314E+03 0.  0.
      99925    2    3    3    0    0 -0.20843013550E+02  0.10061338876E+03  0.16452248727E+02  0.28281124056E+03  0.26297154996E+03 0.  0.
         25    1    4    4    0    0 -0.78341531925E+01  0.30770828654E+02  0.43979016422E+02  0.13634470961E+03  0.12509000000E+03 0.  0.
         25    1    3    3    0    0  0.20843013550E+02 -0.10061338876E+03 -0.60739705519E+02  0.17289969675E+03  0.12509000000E+03 0.  0.
         25    1    4    4    0    0 -0.13008860357E+02  0.69842560105E+02 -0.27526767696E+02  0.14646653095E+03  0.12509000000E+03 0.  0.
<mgrwt>
<rscale>  2 0.45355383E+03</rscale>
<asrwt>0</asrwt>
<pdfrwt beam="1">  1       21 0.30251727E-01 0.45355383E+03</pdfrwt>
<pdfrwt beam="2">  1       21 0.36764588E-01 0.45355383E+03</pdfrwt>
<totfact> 0.69289785E+04</totfact>
</mgrwt>
</event>
<event>
 7    0  0.4737014E-002  0.4579978E+03  0.7546771E-02  0.1025364E+00
         21   -1    0    0  502  501  0.00000000000E+00  0.00000000000E+00  0.10399630231E+03  0.10399630231E+03  0.00000000000E+00 0.  1.
         21   -1    0    0  501  502 -0.00000000000E+00 -0.00000000000E+00 -0.50425350757E+03  0.50425350757E+03  0.00000000000E+00 0.  1.
      99926    2    1    2    0    0 -0.14210854715E-13  0.00000000000E+00 -0.40025720526E+03  0.60824980988E+03  0.45799781753E+03 0.  0.
      99925    2    3    3    0    0  0.10450982448E+03 -0.44523896992E+02 -0.28173546117E+03  0.40185312207E+03  0.26307105660E+03 0.  0.
         25    1    4    4    0    0  0.25467076782E+02 -0.30380261305E+02 -0.89437615115E+02  0.15880216426E+03  0.12509000000E+03 0.  0.
         25    1    4    4    0    0  0.79042747702E+02 -0.14143635687E+02 -0.19229784606E+03  0.24305095781E+03  0.12509000000E+03 0.  0.
         25    1    3    3    0    0 -0.10450982448E+03  0.44523896992E+02 -0.11852174409E+03  0.20639668781E+03  0.12509000000E+03 0.  0.
<mgrwt>
<rscale>  2 0.45799782E+03</rscale>
<asrwt>0</asrwt>
<pdfrwt beam="1">  1       21 0.15293574E-01 0.45799782E+03</pdfrwt>
<pdfrwt beam="2">  1       21 0.74154928E-01 0.45799782E+03</pdfrwt>
<totfact> 0.56815856E+04</totfact>
</mgrwt>
</event>
<event>
 7    0  0.4737014E-002  0.4542273E+03  0.7546771E-02  0.1026469E+00
         21   -1    0    0  502  501  0.00000000000E+00  0.00000000000E+00  0.63924248881E+03  0.63924248881E+03  0.00000000000E+00 0. -1.
         21   -1    0    0  501  502 -0.00000000000E+00 -0.00000000000E+00 -0.80690216837E+02  0.80690216837E+02  0.00000000000E+00 0. -1.
      99926    2    1    2    0    0  0.00000000000E+00 -0.44408920985E-14  0.55855227197E+03  0.71993270564E+03  0.45422732209E+03 0.  0.
      99925    2    3    3    0    0  0.97232028900E+02  0.26289099400E+01  0.44152516692E+03  0.52294582783E+03  0.26280579753E+03 0.  0.
         25    1    4    4    0    0  0.52689615170E+02  0.35925665401E+02  0.26118175970E+03  0.29653038408E+03  0.12509000000E+03 0.  0.
         25    1    3    3    0    0 -0.97232028900E+02 -0.26289099400E+01  0.11702710505E+03  0.19698687781E+03  0.12509000000E+03 0.  0.
         25    1    4    4    0    0  0.44542413730E+02 -0.33296755461E+02  0.18034340721E+03  0.22641544376E+03  0.12509000000E+03 0.  0.
<mgrwt>
<rscale>  2 0.45422732E+03</rscale>
<asrwt>0</asrwt>
<pdfrwt beam="1">  1       21 0.94006246E-01 0.45422732E+03</pdfrwt>
<pdfrwt beam="2">  1       21 0.11866209E-01 0.45422732E+03</pdfrwt>
<totfact> 0.52150332E+04</totfact>
</mgrwt>
</event>
<event>
 7    0  0.4737014E-002  0.4582537E+03  0.7546771E-02  0.1025289E+00
         21   -1    0    0  502  501  0.00000000000E+00  0.00000000000E+00  0.15152788002E+03  0.15152788002E+03  0.00000000000E+00 0. -1.
         21   -1    0    0  501  502 -0.00000000000E+00 -0.00000000000E+00 -0.34646500316E+03  0.34646500316E+03  0.00000000000E+00 0. -1.
      99926    2    1    2    0    0  0.00000000000E+00  0.35527136788E-14 -0.19493712314E+03  0.49799288318E+03  0.45825367398E+03 0.  0.
      99925    2    3    3    0    0  0.12005794985E+02 -0.17398879631E+02 -0.24663893158E+03  0.36099855767E+03  0.26275908346E+03 0.  0.
         25    1    4    4    0    0 -0.19132088662E+02 -0.38699392805E+02 -0.13650261753E+03  0.19011615532E+03  0.12509000000E+03 0.  0.
         25    1    3    3    0    0 -0.12005794985E+02  0.17398879631E+02  0.51701808442E+02  0.13699432551E+03  0.12509000000E+03 0.  0.
         25    1    4    4    0    0  0.31137883647E+02  0.21300513175E+02 -0.11013631405E+03  0.17088240235E+03  0.12509000000E+03 0.  0.
<mgrwt>
<rscale>  2 0.45825367E+03</rscale>
<asrwt>0</asrwt>
<pdfrwt beam="1">  1       21 0.22283512E-01 0.45825367E+03</pdfrwt>
<pdfrwt beam="2">  1       21 0.50950735E-01 0.45825367E+03</pdfrwt>
<totfact> 0.63749327E+04</totfact>
</mgrwt>
</event>
<event>
 7    0  0.4737014E-002  0.4555894E+03  0.7546771E-02  0.1026068E+00
         21   -1    0    0  502  501  0.00000000000E+00  0.00000000000E+00  0.17629036127E+03  0.17629036127E+03  0.00000000000E+00 0. -1.
         21   -1    0    0  501  502 -0.00000000000E+00 -0.00000000000E+00 -0.29434637814E+03  0.29434637814E+03  0.00000000000E+00 0. -1.
      99926    2    1    2    0    0  0.14210854715E-13  0.00000000000E+00 -0.11805601687E+03  0.47063673941E+03  0.45558941753E+03 0.  0.
      99925    2    3    3    0    0 -0.87177532631E+02  0.72867210131E+02 -0.67151222154E+02  0.29414776318E+03  0.26287652508E+03 0.  0.
         25    1    3    3    0    0  0.87177532631E+02 -0.72867210131E+02 -0.50904794714E+02  0.17648897624E+03  0.12509000000E+03 0.  0.
         25    1    4    4    0    0 -0.84346237440E+02  0.49449529533E+02 -0.30370836949E+02  0.16164603174E+03  0.12509000000E+03 0.  0.
         25    1    4    4    0    0 -0.28312951911E+01  0.23417680598E+02 -0.36780385205E+02  0.13250173143E+03  0.12509000000E+03 0.  0.
<mgrwt>
<rscale>  2 0.45558942E+03</rscale>
<asrwt>0</asrwt>
<pdfrwt beam="1">  1       21 0.25925053E-01 0.45558942E+03</pdfrwt>
<pdfrwt beam="2">  1       21 0.43286232E-01 0.45558942E+03</pdfrwt>
<totfact> 0.67074203E+04</totfact>
</mgrwt>
</event>
<event>
 7    0  0.4737014E-002  0.4501577E+03  0.7546771E-02  0.1027675E+00
         21   -1    0    0  502  501  0.00000000000E+00  0.00000000000E+00  0.43934797559E+03  0.43934797559E+03  0.00000000000E+00 0. -1.
         21   -1    0    0  501  502 -0.00000000000E+00 -0.00000000000E+00 -0.11530834276E+03  0.11530834276E+03  0.00000000000E+00 0. -1.
      99926    2    1    2    0    0  0.00000000000E+00  0.00000000000E+00  0.32403963283E+03  0.55465631836E+03  0.45015769220E+03 0.  0.
      99925    2    3    3    0    0 -0.53601674763E+02 -0.54945544250E+02  0.11019864652E+03  0.29529628308E+03  0.26299049553E+03 0.  0.
         25    1    4    4    0    0 -0.10151130070E+02  0.80400945353E-01  0.79761310362E+02  0.14870247690E+03  0.12509000000E+03 0.  0.
         25    1    4    4    0    0 -0.43450544693E+02 -0.55025945195E+02  0.30437336157E+02  0.14659380618E+03  0.12509000000E+03 0.  0.
         25    1    3    3    0    0  0.53601674763E+02  0.54945544250E+02  0.21384098631E+03  0.25936003527E+03  0.12509000000E+03 0.  0.
<mgrwt>
<rscale>  2 0.45015769E+03</rscale>
<asrwt>0</asrwt>
<pdfrwt beam="1">  1       21 0.64609996E-01 0.45015769E+03</pdfrwt>
<pdfrwt beam="2">  1       21 0.16957109E-01 0.45015769E+03</pdfrwt>
<totfact> 0.63975579E+04</totfact>
</mgrwt>
</event>
<event>
 7    0  0.4737014E-002  0.4556792E+03  0.7546771E-02  0.1026042E+00
         21   -1    0    0  502  501  0.00000000000E+00  0.00000000000E+00  0.15971652506E+03  0.15971652506E+03  0.00000000000E+00 0. -1.
         21   -1    0    0  501  502 -0.00000000000E+00 -0.00000000000E+00 -0.32501889010E+03  0.32501889010E+03  0.00000000000E+00 0. -1.
      99926    2    1    2    0    0  0.00000000000E+00  0.00000000000E+00 -0.16530236504E+03  0.48473541516E+03  0.45567921921E+03 0.  0.
      99925    2    3    3    0    0 -0.10215714713E+03 -0.32515862270E+02 -0.14287792158E+03  0.31847138485E+03  0.26365992962E+03 0.  0.
         25    1    4    4    0    0 -0.71599086491E+02  0.86372769283E+01 -0.43868459296E+02  0.15090719519E+03  0.12509000000E+03 0.  0.
         25    1    3    3    0    0  0.10215714713E+03  0.32515862270E+02 -0.22424443463E+02  0.16626403031E+03  0.12509000000E+03 0.  0.
         25    1    4    4    0    0 -0.30558060639E+02 -0.41153139198E+02 -0.99009462283E+02  0.16756418966E+03  0.12509000000E+03 0.  0.
<mgrwt>
<rscale>  2 0.45567922E+03</rscale>
<asrwt>0</asrwt>
<pdfrwt beam="1">  1       21 0.23487725E-01 0.45567922E+03</pdfrwt>
<pdfrwt beam="2">  1       21 0.47796895E-01 0.45567922E+03</pdfrwt>
<totfact> 0.66000402E+04</totfact>
</mgrwt>
</event>
<event>
 7    0  0.4737014E-002  0.4611581E+03  0.7546771E-02  0.1024446E+00
         21   -1    0    0  502  501  0.00000000000E+00  0.00000000000E+00  0.54820111913E+02  0.54820111913E+02  0.00000000000E+00 0. -1.
         21   -1    0    0  501  502 -0.00000000000E+00 -0.00000000000E+00 -0.96983939853E+03  0.96983939853E+03  0.00000000000E+00 0. -1.
      99926    2    1    2    0    0  0.00000000000E+00  0.00000000000E+00 -0.91501928662E+03  0.10246595104E+04  0.46115812631E+03 0.  0.
      99925    2    3    3    0    0  0.85274782532E+02 -0.75768422487E+02 -0.64576419806E+03  0.70660534336E+03  0.26318637767E+03 0.  0.
         25    1    4    4    0    0  0.10284723580E+02 -0.47099092332E+02 -0.24691155391E+03  0.28095715615E+03  0.12509000000E+03 0.  0.
         25    1    3    3    0    0 -0.85274782532E+02  0.75768422487E+02 -0.26925508856E+03  0.31805416708E+03  0.12509000000E+03 0.  0.
         25    1    4    4    0    0  0.74990058952E+02 -0.28669330155E+02 -0.39885264414E+03  0.42564818721E+03  0.12509000000E+03 0.  0.
<mgrwt>
<rscale>  2 0.46115813E+03</rscale>
<asrwt>0</asrwt>
<pdfrwt beam="1">  1       21 0.80617813E-02 0.46115813E+03</pdfrwt>
<pdfrwt beam="2">  1       21 0.14262344E+00 0.46115813E+03</pdfrwt>
<totfact> 0.36437495E+04</totfact>
</mgrwt>
</event>
<event>
 7    0  0.4737014E-002  0.4511527E+03  0.7546771E-02  0.1027379E+00
         21   -1    0    0  502  501  0.00000000000E+00  0.00000000000E+00  0.12067008424E+04  0.12067008424E+04  0.00000000000E+00 0. -1.
         21   -1    0    0  501  502 -0.00000000000E+00 -0.00000000000E+00 -0.42168428777E+02  0.42168428777E+02  0.00000000000E+00 0. -1.
      99926    2    1    2    0    0  0.00000000000E+00  0.00000000000E+00  0.11645324136E+04  0.12488692711E+04  0.45115265056E+03 0.  0.
      99925    2    3    3    0    0 -0.76323369668E+02  0.77936201346E+02  0.71207344539E+03  0.76692950910E+03  0.26312159177E+03 0.  0.
         25    1    3    3    0    0  0.76323369668E+02 -0.77936201346E+02  0.45245896819E+03  0.48193976204E+03  0.12509000000E+03 0.  0.
         25    1    4    4    0    0 -0.58570627976E+02  0.39895959320E+02  0.27415922453E+03  0.30956904646E+03  0.12509000000E+03 0.  0.
         25    1    4    4    0    0 -0.17752741692E+02  0.38040242026E+02  0.43791422086E+03  0.45736046264E+03  0.12509000000E+03 0.  0.
<mgrwt>
<rscale>  2 0.45115265E+03</rscale>
<asrwt>0</asrwt>
<pdfrwt beam="1">  1       21 0.17745598E+00 0.45115265E+03</pdfrwt>
<pdfrwt beam="2">  1       21 0.62012403E-02 0.45115265E+03</pdfrwt>
<totfact> 0.31571537E+04</totfact>
</mgrwt>
</event>
<event>
 7    0  0.4737014E-002  0.4662659E+03  0.7546771E-02  0.1022979E+00
         21   -1    0    0  502  501  0.00000000000E+00  0.00000000000E+00  0.57123981396E+02  0.57123981396E+02  0.00000000000E+00 0.  1.
         21   -1    0    0  501  502 -0.00000000000E+00 -0.00000000000E+00 -0.95145650676E+03  0.95145650676E+03  0.00000000000E+00 0.  1.
      99926    2    1    2    0    0 -0.14210854715E-13  0.00000000000E+00 -0.89433252536E+03  0.10085804882E+04  0.46626594897E+03 0.  0.
      99925    2    3    3    0    0 -0.10366059207E+03  0.57121350284E+02 -0.48115722791E+03  0.56095374462E+03  0.26296094505E+03 0.  0.
         25    1    4    4    0    0 -0.82804382374E+02  0.59698094331E+02 -0.27561099828E+03  0.31942034794E+03  0.12509000000E+03 0.  0.
         25    1    3    3    0    0  0.10366059207E+03 -0.57121350284E+02 -0.41317529745E+03  0.44762674354E+03  0.12509000000E+03 0.  0.
         25    1    4    4    0    0 -0.20856209699E+02 -0.25767440471E+01 -0.20554622963E+03  0.24153339667E+03  0.12509000000E+03 0.  0.
<mgrwt>
<rscale>  2 0.46626595E+03</rscale>
<asrwt>0</asrwt>
<pdfrwt beam="1">  1       21 0.84005854E-02 0.46626595E+03</pdfrwt>
<pdfrwt beam="2">  1       21 0.13992008E+00 0.46626595E+03</pdfrwt>
<totfact> 0.35598231E+04</totfact>
</mgrwt>
</event>
<event>
 7    0  0.4737014E-002  0.4527257E+03  0.7546771E-02  0.1026912E+00
         21   -1    0    0  502  501  0.00000000000E+00  0.00000000000E+00  0.90161312506E+03  0.90161312506E+03  0.00000000000E+00 0.  1.
         21   -1    0    0  501  502 -0.00000000000E+00 -0.00000000000E+00 -0.56831637300E+02  0.56831637300E+02  0.00000000000E+00 0.  1.
      99926    2    1    2    0    0  0.00000000000E+00  0.00000000000E+00  0.84478148776E+03  0.95844476236E+03  0.45272574527E+03 0.  0.
      99925    2    3    3    0    0  0.30656736370E+02 -0.86929299351E+02  0.66312378421E+03  0.71939755378E+03  0.26325491188E+03 0.  0.
         25    1    4    4    0    0 -0.23129571948E+02 -0.55229919065E+02  0.31006005541E+03  0.33966169511E+03  0.12509000000E+03 0.  0.
         25    1    4    4    0    0  0.53786308318E+02 -0.31699380286E+02  0.35306372880E+03  0.37973585868E+03  0.12509000000E+03 0.  0.
         25    1    3    3    0    0 -0.30656736370E+02  0.86929299351E+02  0.18165770355E+03  0.23904720858E+03  0.12509000000E+03 0.  0.
<mgrwt>
<rscale>  2 0.45272575E+03</rscale>
<asrwt>0</asrwt>
<pdfrwt beam="1">  1       21 0.13259016E+00 0.45272575E+03</pdfrwt>
<pdfrwt beam="2">  1       21 0.83575943E-02 0.45272575E+03</pdfrwt>
<totfact> 0.41534435E+04</totfact>
</mgrwt>
</event>
<event>
 7    0  0.4737014E-002  0.4483844E+03  0.7546771E-02  0.1028205E+00
         21   -1    0    0  502  501  0.00000000000E+00  0.00000000000E+00  0.32492822212E+03  0.32492822212E+03  0.00000000000E+00 0.  1.
         21   -1    0    0  501  502 -0.00000000000E+00 -0.00000000000E+00 -0.15468693956E+03  0.15468693956E+03  0.00000000000E+00 0.  1.
      99926    2    1    2    0    0 -0.14210854715E-13  0.00000000000E+00  0.17024128257E+03  0.47961516168E+03  0.44838444333E+03 0.  0.
      99925    2    3    3    0    0  0.72030306328E+02  0.55326349933E+02  0.47318182455E+02  0.28211334734E+03  0.26286795227E+03 0.  0.
         25    1    4    4    0    0  0.69182354555E+02  0.44257465063E+01  0.22553610294E+02  0.14478245353E+03  0.12509000000E+03 0.  0.
         25    1    3    3    0    0 -0.72030306328E+02 -0.55326349933E+02  0.12292310011E+03  0.19750181434E+03  0.12509000000E+03 0.  0.
         25    1    4    4    0    0  0.28479517732E+01  0.50900603427E+02  0.24764572161E+02  0.13733089380E+03  0.12509000000E+03 0.  0.
<mgrwt>
<rscale>  2 0.44838444E+03</rscale>
<asrwt>0</asrwt>
<pdfrwt beam="1">  1       21 0.47783562E-01 0.44838444E+03</pdfrwt>
<pdfrwt beam="2">  1       21 0.22748079E-01 0.44838444E+03</pdfrwt>
<totfact> 0.70350635E+04</totfact>
</mgrwt>
</event>
<event>
 7    0  0.4737014E-002  0.4540085E+03  0.7546771E-02  0.1026533E+00
         21   -1    0    0  502  501  0.00000000000E+00  0.00000000000E+00  0.57684855149E+03  0.57684855149E+03  0.00000000000E+00 0.  1.
         21   -1    0    0  501  502 -0.00000000000E+00 -0.00000000000E+00 -0.89331819361E+02  0.89331819361E+02  0.00000000000E+00 0.  1.
      99926    2    1    2    0    0  0.00000000000E+00  0.00000000000E+00  0.48751673213E+03  0.66618037086E+03  0.45400850477E+03 0.  0.
      99925    2    3    3    0    0 -0.10232363021E+03  0.42374282945E+02  0.33817006648E+03  0.44208744415E+03  0.26232920017E+03 0.  0.
         25    1    3    3    0    0  0.10232363021E+03 -0.42374282945E+02  0.14934666566E+03  0.22409292670E+03  0.12509000000E+03 0.  0.
         25    1    4    4    0    0 -0.24764095919E+02 -0.66938710834E+01  0.17832573910E+03  0.21932999267E+03  0.12509000000E+03 0.  0.
         25    1    4    4    0    0 -0.77559534294E+02  0.49068154028E+02  0.15984432737E+03  0.22275745149E+03  0.12509000000E+03 0.  0.
<mgrwt>
<rscale>  2 0.45400850E+03</rscale>
<asrwt>0</asrwt>
<pdfrwt beam="1">  1       21 0.84830667E-01 0.45400850E+03</pdfrwt>
<pdfrwt beam="2">  1       21 0.13137033E-01 0.45400850E+03</pdfrwt>
<totfact> 0.55208048E+04</totfact>
</mgrwt>
</event>
<event>
 7    0  0.4737014E-002  0.4533492E+03  0.7546771E-02  0.1026728E+00
         21   -1    0    0  502  501  0.00000000000E+00  0.00000000000E+00  0.55467782731E+02  0.55467782731E+02  0.00000000000E+00 0.  1.
         21   -1    0    0  501  502 -0.00000000000E+00 -0.00000000000E+00 -0.92632826890E+03  0.92632826890E+03  0.00000000000E+00 0.  1.
      99926    2    1    2    0    0  0.17763568394E-14 -0.14210854715E-13 -0.87086048617E+03  0.98179605163E+03  0.45334920384E+03 0.  0.
      99925    2    3    3    0    0  0.10249243955E+02 -0.97823070821E+02 -0.43486906279E+03  0.51767276031E+03  0.26305813960E+03 0.  0.
         25    1    4    4    0    0  0.61550464364E+01 -0.23676290532E+02 -0.26476903148E+03  0.29385132203E+03  0.12509000000E+03 0.  0.
         25    1    4    4    0    0  0.40941975187E+01 -0.74146780290E+02 -0.17010003132E+03  0.22382143828E+03  0.12509000000E+03 0.  0.
         25    1    3    3    0    0 -0.10249243955E+02  0.97823070821E+02 -0.43599142338E+03  0.46412329132E+03  0.12509000000E+03 0.  0.
<mgrwt>
<rscale>  2 0.45334920E+03</rscale>
<asrwt>0</asrwt>
<pdfrwt beam="1">  1       21 0.81570275E-02 0.45334920E+03</pdfrwt>
<pdfrwt beam="2">  1       21 0.13622474E+00 0.45334920E+03</pdfrwt>
<totfact> 0.40398001E+04</totfact>
</mgrwt>
</event>
<event>
 7    0  0.4737014E-002  0.4510949E+03  0.7546771E-02  0.1027396E+00
         21   -1    0    0  502  501  0.00000000000E+00  0.00000000000E+00  0.59742363879E+03  0.59742363879E+03  0.00000000000E+00 0.  1.
         21   -1    0    0  501  502 -0.00000000000E+00 -0.00000000000E+00 -0.85151715647E+02  0.85151715647E+02  0.00000000000E+00 0.  1.
      99926    2    1    2    0    0  0.17763568394E-14  0.00000000000E+00  0.51227192314E+03  0.68257535443E+03  0.45109488053E+03 0.  0.
      99925    2    3    3    0    0  0.14288492101E+02 -0.62968722118E+02  0.18990304214E+03  0.33081062552E+03  0.26306516981E+03 0.  0.
         25    1    3    3    0    0 -0.14288492101E+02  0.62968722118E+02  0.32236888100E+03  0.35176472892E+03  0.12509000000E+03 0.  0.
         25    1    4    4    0    0 -0.27313592331E+02 -0.48740194681E+02  0.80425286783E+02  0.15886275132E+03  0.12509000000E+03 0.  0.
         25    1    4    4    0    0  0.41602084432E+02 -0.14228527437E+02  0.10947775535E+03  0.17194787419E+03  0.12509000000E+03 0.  0.
<mgrwt>
<rscale>  2 0.45109488E+03</rscale>
<asrwt>0</asrwt>
<pdfrwt beam="1">  1       21 0.87856416E-01 0.45109488E+03</pdfrwt>
<pdfrwt beam="2">  1       21 0.12522311E-01 0.45109488E+03</pdfrwt>
<totfact> 0.55547895E+04</totfact>
</mgrwt>
</event>
<event>
 7    0  0.4737014E-002  0.4503452E+03  0.7546771E-02  0.1027619E+00
         21   -1    0    0  502  501  0.00000000000E+00  0.00000000000E+00  0.43238816949E+03  0.43238816949E+03  0.00000000000E+00 0.  1.
         21   -1    0    0  501  502 -0.00000000000E+00 -0.00000000000E+00 -0.11726200842E+03  0.11726200842E+03  0.00000000000E+00 0.  1.
      99926    2    1    2    0    0  0.00000000000E+00  0.00000000000E+00  0.31512616107E+03  0.54965017791E+03  0.45034522389E+03 0.  0.
      99925    2    3    3    0    0 -0.43288373072E+02  0.99890233809E+02  0.19715423171E+03  0.34613893431E+03  0.26285058248E+03 0.  0.
         25    1    3    3    0    0  0.43288373072E+02 -0.99890233809E+02  0.11797192937E+03  0.20351124360E+03  0.12509000000E+03 0.  0.
         25    1    4    4    0    0 -0.11868009190E+02  0.77841358369E+02  0.69487321512E+02  0.16332826659E+03  0.12509000000E+03 0.  0.
         25    1    4    4    0    0 -0.31420363881E+02  0.22048875440E+02  0.12766691020E+03  0.18281066772E+03  0.12509000000E+03 0.  0.
<mgrwt>
<rscale>  2 0.45034522E+03</rscale>
<asrwt>0</asrwt>
<pdfrwt beam="1">  1       21 0.63586495E-01 0.45034522E+03</pdfrwt>
<pdfrwt beam="2">  1       21 0.17244413E-01 0.45034522E+03</pdfrwt>
<totfact> 0.64222346E+04</totfact>
</mgrwt>
</event>
<event>
 7    0  0.4737014E-002  0.4651777E+03  0.7546771E-02  0.1023290E+00
         21   -1    0    0  502  501  0.00000000000E+00  0.00000000000E+00  0.61261413233E+03  0.61261413233E+03  0.00000000000E+00 0.  1.
         21   -1    0    0  501  502 -0.00000000000E+00 -0.00000000000E+00 -0.88306109017E+02  0.88306109017E+02  0.00000000000E+00 0.  1.
      99926    2    1    2    0    0 -0.14210854715E-13  0.22204460493E-15  0.52430802332E+03  0.70092024135E+03  0.46517768801E+03 0.  0.
      99925    2    3    3    0    0  0.99610814199E+02 -0.12862608318E+01  0.21969356771E+03  0.35688326160E+03  0.26301412499E+03 0.  0.
         25    1    4    4    0    0  0.67002769879E+02 -0.13289570130E+02  0.15912969729E+03  0.21362526186E+03  0.12509000000E+03 0.  0.
         25    1    4    4    0    0  0.32608044321E+02  0.12003309298E+02  0.60563870422E+02  0.14325799974E+03  0.12509000000E+03 0.  0.
         25    1    3    3    0    0 -0.99610814199E+02  0.12862608318E+01  0.30461445561E+03  0.34403697975E+03  0.12509000000E+03 0.  0.
<mgrwt>
<rscale>  2 0.46517769E+03</rscale>
<asrwt>0</asrwt>
<pdfrwt beam="1">  1       21 0.90090312E-01 0.46517769E+03</pdfrwt>
<pdfrwt beam="2">  1       21 0.12986193E-01 0.46517769E+03</pdfrwt>
<totfact> 0.48822957E+04</totfact>
</mgrwt>
</event>
<event>
 7    0  0.4737014E-002  0.4464701E+03  0.7546771E-02  0.1028780E+00
         21   -1    0    0  502  501  0.00000000000E+00  0.00000000000E+00  0.21557221579E+03  0.21557221579E+03  0.00000000000E+00 0. -1.
         21   -1    0    0  501  502 -0.00000000000E+00 -0.00000000000E+00 -0.23117023234E+03  0.23117023234E+03  0.00000000000E+00 0. -1.
      99926    2    1    2    0    0  0.00000000000E+00  0.00000000000E+00 -0.15598016547E+02  0.44674244813E+03  0.44647006265E+03 0.  0.
      99925    2    3    3    0    0 -0.15479752909E+02 -0.88388458345E+02 -0.65820195886E+02  0.28481061767E+03  0.26216911991E+03 0.  0.
         25    1    4    4    0    0  0.12605047862E+02 -0.60253456087E+02 -0.64342338219E+02  0.15354742196E+03  0.12509000000E+03 0.  0.
         25    1    3    3    0    0  0.15479752909E+02  0.88388458345E+02  0.50222179339E+02  0.16193183046E+03  0.12509000000E+03 0.  0.
         25    1    4    4    0    0 -0.28084800771E+02 -0.28135002258E+02 -0.14778576671E+01  0.13126319572E+03  0.12509000000E+03 0.  0.
<mgrwt>
<rscale>  2 0.44647006E+03</rscale>
<asrwt>0</asrwt>
<pdfrwt beam="1">  1       21 0.31701797E-01 0.44647006E+03</pdfrwt>
<pdfrwt beam="2">  1       21 0.33995622E-01 0.44647006E+03</pdfrwt>
<totfact> 0.74069243E+04</totfact>
</mgrwt>
</event>
<event>
 7    0  0.4737014E-002  0.4526498E+03  0.7546771E-02  0.1026935E+00
         21   -1    0    0  502  501  0.00000000000E+00  0.00000000000E+00  0.26698289988E+03  0.26698289988E+03  0.00000000000E+00 0. -1.
         21   -1    0    0  501  502 -0.00000000000E+00 -0.00000000000E+00 -0.19185857101E+03  0.19185857101E+03  0.00000000000E+00 0. -1.
      99926    2    1    2    0    0  0.00000000000E+00  0.00000000000E+00  0.75124328871E+02  0.45884147088E+03  0.45264978804E+03 0.  0.
      99925    2    3    3    0    0  0.10661671960E+03  0.22933762709E+02  0.68406157570E+02  0.29275196400E+03  0.26292817967E+03 0.  0.
         25    1    4    4    0    0  0.65775064015E+02 -0.26885821667E+02  0.38062007076E+02  0.14881340980E+03  0.12509000000E+03 0.  0.
         25    1    3    3    0    0 -0.10661671960E+03 -0.22933762709E+02  0.67181713006E+01  0.16608950688E+03  0.12509000000E+03 0.  0.
         25    1    4    4    0    0  0.40841655580E+02  0.49819584376E+02  0.30344150493E+02  0.14393855421E+03  0.12509000000E+03 0.  0.
<mgrwt>
<rscale>  2 0.45264979E+03</rscale>
<asrwt>0</asrwt>
<pdfrwt beam="1">  1       21 0.39262191E-01 0.45264979E+03</pdfrwt>
<pdfrwt beam="2">  1       21 0.28214496E-01 0.45264979E+03</pdfrwt>
<totfact> 0.69559556E+04</totfact>
</mgrwt>
</event>
<event>
 7    0  0.4737014E-002  0.4564381E+03  0.7546771E-02  0.1025819E+00
         21   -1    0    0  502  501  0.00000000000E+00  0.00000000000E+00  0.99477450986E+03  0.99477450986E+03  0.00000000000E+00 0.  1.
         21   -1    0    0  501  502 -0.00000000000E+00 -0.00000000000E+00 -0.52357538255E+02  0.52357538255E+02  0.00000000000E+00 0.  1.
      99926    2    1    2    0    0  0.00000000000E+00 -0.71054273576E-14  0.94241697160E+03  0.10471320481E+04  0.45643814238E+03 0.  0.
      99925    2    3    3    0    0 -0.46733860124E+02 -0.63021186929E+02  0.78367032906E+03  0.83032861571E+03  0.26296521011E+03 0.  0.
         25    1    4    4    0    0 -0.41705914199E+02 -0.61834614062E+02  0.48734890198E+03  0.50864463345E+03  0.12509000000E+03 0.  0.
         25    1    4    4    0    0 -0.50279459253E+01 -0.11865728672E+01  0.29632142708E+03  0.32168398226E+03  0.12509000000E+03 0.  0.
         25    1    3    3    0    0  0.46733860124E+02  0.63021186929E+02  0.15874664254E+03  0.21680343240E+03  0.12509000000E+03 0.  0.
<mgrwt>
<rscale>  2 0.45643814E+03</rscale>
<asrwt>0</asrwt>
<pdfrwt beam="1">  1       21 0.14629036E+00 0.45643814E+03</pdfrwt>
<pdfrwt beam="2">  1       21 0.76996386E-02 0.45643814E+03</pdfrwt>
<totfact> 0.36966093E+04</totfact>
</mgrwt>
</event>
<event>
 7    0  0.4737014E-002  0.4113642E+03  0.7546771E-02  0.1039914E+00
         21   -1    0    0  502  501  0.00000000000E+00  0.00000000000E+00  0.36213655202E+03  0.36213655202E+03  0.00000000000E+00 0. -1.
         21   -1    0    0  501  502 -0.00000000000E+00 -0.00000000000E+00 -0.11682093968E+03  0.11682093968E+03  0.00000000000E+00 0. -1.
      99926    2    1    2    0    0  0.00000000000E+00  0.00000000000E+00  0.24531561233E+03  0.47895749170E+03  0.41136422937E+03 0.  0.
      99925    2    3    3    0    0  0.43273734810E+02  0.11268241917E+02  0.10781168800E+03  0.28776537182E+03  0.26303224089E+03 0.  0.
         25    1    4    4    0    0  0.55084449747E+02  0.22102339368E+02  0.74950799693E+02  0.15744186382E+03  0.12509000000E+03 0.  0.
         25    1    3    3    0    0 -0.43273734810E+02 -0.11268241917E+02  0.13750392433E+03  0.19119211989E+03  0.12509000000E+03 0.  0.
         25    1    4    4    0    0 -0.11810714937E+02 -0.10834097451E+02  0.32860888308E+02  0.13032350799E+03  0.12509000000E+03 0.  0.
<mgrwt>
<rscale>  2 0.41136423E+03</rscale>
<asrwt>0</asrwt>
<pdfrwt beam="1">  1       21 0.53255375E-01 0.41136423E+03</pdfrwt>
<pdfrwt beam="2">  1       21 0.17179550E-01 0.41136423E+03</pdfrwt>
<totfact> 0.95929018E+04</totfact>
</mgrwt>
</event>
<event>
 7    0  0.4737014E-002  0.4400897E+03  0.7546771E-02  0.1030719E+00
         21   -1    0    0  502  501  0.00000000000E+00  0.00000000000E+00  0.30691072274E+03  0.30691072274E+03  0.00000000000E+00 0.  1.
         21   -1    0    0  501  502 -0.00000000000E+00 -0.00000000000E+00 -0.15776488540E+03  0.15776488540E+03  0.00000000000E+00 0.  1.
      99926    2    1    2    0    0 -0.35527136788E-14  0.00000000000E+00  0.14914583733E+03  0.46467560814E+03  0.44008969541E+03 0.  0.
      99925    2    3    3    0    0  0.30759501213E+02  0.36404453404E+02  0.40634804696E+01  0.26727289915E+03  0.26295790462E+03 0.  0.
         25    1    3    3    0    0 -0.30759501213E+02 -0.36404453404E+02  0.14508235687E+03  0.19740270899E+03  0.12509000000E+03 0.  0.
         25    1    4    4    0    0  0.10458306738E+02  0.18469178113E+02  0.42217825870E+02  0.13371738721E+03  0.12509000000E+03 0.  0.
         25    1    4    4    0    0  0.20301194475E+02  0.17935275291E+02 -0.38154345400E+02  0.13355551194E+03  0.12509000000E+03 0.  0.
<mgrwt>
<rscale>  2 0.44008970E+03</rscale>
<asrwt>0</asrwt>
<pdfrwt beam="1">  1       21 0.45133930E-01 0.44008970E+03</pdfrwt>
<pdfrwt beam="2">  1       21 0.23200718E-01 0.44008970E+03</pdfrwt>
<totfact> 0.76490882E+04</totfact>
</mgrwt>
</event>
<event>
 7    0  0.4737014E-002  0.4538258E+03  0.7546771E-02  0.1026587E+00
         21   -1    0    0  502  501  0.00000000000E+00  0.00000000000E+00  0.28962100012E+02  0.28962100012E+02  0.00000000000E+00 0.  1.
         21   -1    0    0  501  502 -0.00000000000E+00 -0.00000000000E+00 -0.17778222735E+04  0.17778222735E+04  0.00000000000E+00 0.  1.
      99926    2    1    2    0    0 -0.71054273576E-14  0.00000000000E+00 -0.17488601735E+04  0.18067843735E+04  0.45382581015E+03 0.  0.
      99925    2    3    3    0    0  0.46481240749E+02  0.47644535920E+02 -0.74324719552E+03  0.79123748779E+03  0.26307767083E+03 0.  0.
         25    1    4    4    0    0  0.14226128614E+02  0.37172161226E+02 -0.26486862648E+03  0.29561300665E+03  0.12509000000E+03 0.  0.
         25    1    4    4    0    0  0.32255112135E+02  0.10472374694E+02 -0.47837856904E+03  0.49562448114E+03  0.12509000000E+03 0.  0.
         25    1    3    3    0    0 -0.46481240749E+02 -0.47644535920E+02 -0.10056129780E+04  0.10155468857E+04  0.12509000000E+03 0.  0.
<mgrwt>
<rscale>  2 0.45382581E+03</rscale>
<asrwt>0</asrwt>
<pdfrwt beam="1">  1       21 0.42591310E-02 0.45382581E+03</pdfrwt>
<pdfrwt beam="2">  1       21 0.26144453E+00 0.45382581E+03</pdfrwt>
<totfact> 0.17286498E+04</totfact>
</mgrwt>
</event>
<event>
 7    0  0.4737014E-002  0.4557867E+03  0.7546771E-02  0.1026010E+00
         21   -1    0    0  502  501  0.00000000000E+00  0.00000000000E+00  0.12291209242E+03  0.12291209242E+03  0.00000000000E+00 0. -1.
         21   -1    0    0  501  502 -0.00000000000E+00 -0.00000000000E+00 -0.42254091928E+03  0.42254091928E+03  0.00000000000E+00 0. -1.
      99926    2    1    2    0    0  0.00000000000E+00  0.35527136788E-14 -0.29962882686E+03  0.54545301170E+03  0.45578674189E+03 0.  0.
      99925    2    3    3    0    0 -0.10192863084E+03 -0.25328547616E+02 -0.24079067344E+03  0.37184305373E+03  0.26316558871E+03 0.  0.
         25    1    4    4    0    0 -0.74613008469E+02 -0.39850053350E+02 -0.10070525885E+03  0.18150533062E+03  0.12509000000E+03 0.  0.
         25    1    3    3    0    0  0.10192863084E+03  0.25328547616E+02 -0.58838153418E+02  0.17360995797E+03  0.12509000000E+03 0.  0.
         25    1    4    4    0    0 -0.27315622369E+02  0.14521505734E+02 -0.14008541459E+03  0.19033772310E+03  0.12509000000E+03 0.  0.
<mgrwt>
<rscale>  2 0.45578674E+03</rscale>
<asrwt>0</asrwt>
<pdfrwt beam="1">  1       21 0.18075308E-01 0.45578674E+03</pdfrwt>
<pdfrwt beam="2">  1       21 0.62138370E-01 0.45578674E+03</pdfrwt>
<totfact> 0.61782468E+04</totfact>
</mgrwt>
</event>
<event>
 7    0  0.4737014E-002  0.4540247E+03  0.7546771E-02  0.1026529E+00
         21   -1    0    0  502  501  0.00000000000E+00  0.00000000000E+00  0.36072768234E+03  0.36072768234E+03  0.00000000000E+00 0.  1.
         21   -1    0    0  501  502 -0.00000000000E+00 -0.00000000000E+00 -0.14286291202E+03  0.14286291202E+03  0.00000000000E+00 0.  1.
      99926    2    1    2    0    0  0.00000000000E+00 -0.71054273576E-14  0.21786477031E+03  0.50359059436E+03  0.45402470041E+03 0.  0.
      99925    2    3    3    0    0 -0.63487418045E+01  0.49157708524E+02  0.24892595655E+03  0.36549971045E+03  0.26300022750E+03 0.  0.
         25    1    4    4    0    0 -0.14416076293E+02 -0.87979193881E+01  0.90401956434E+02  0.15525865022E+03  0.12509000000E+03 0.  0.
         25    1    3    3    0    0  0.63487418045E+01 -0.49157708524E+02 -0.31061186236E+02  0.13809088391E+03  0.12509000000E+03 0.  0.
         25    1    4    4    0    0  0.80673344885E+01  0.57955627912E+02  0.15852400011E+03  0.21024106023E+03  0.12509000000E+03 0.  0.
<mgrwt>
<rscale>  2 0.45402470E+03</rscale>
<asrwt>0</asrwt>
<pdfrwt beam="1">  1       21 0.53048188E-01 0.45402470E+03</pdfrwt>
<pdfrwt beam="2">  1       21 0.21009252E-01 0.45402470E+03</pdfrwt>
<totfact> 0.65524928E+04</totfact>
</mgrwt>
</event>
<event>
 7    0  0.4737014E-002  0.4579593E+03  0.7546771E-02  0.1025375E+00
         21   -1    0    0  502  501  0.00000000000E+00  0.00000000000E+00  0.27737950894E+03  0.27737950894E+03  0.00000000000E+00 0. -1.
         21   -1    0    0  501  502 -0.00000000000E+00 -0.00000000000E+00 -0.18902503907E+03  0.18902503907E+03  0.00000000000E+00 0. -1.
      99926    2    1    2    0    0  0.14210854715E-13  0.00000000000E+00  0.88354469868E+02  0.46640454801E+03  0.45795926681E+03 0.  0.
      99925    2    3    3    0    0 -0.74054994578E+02 -0.65283401190E+02  0.11748132708E+03  0.30441088578E+03  0.26290313896E+03 0.  0.
         25    1    3    3    0    0  0.74054994578E+02  0.65283401190E+02 -0.29126857209E+02  0.16199366223E+03  0.12509000000E+03 0.  0.
         25    1    4    4    0    0 -0.13416976115E+02 -0.65346731070E+02  0.62148793827E+02  0.15479079812E+03  0.12509000000E+03 0.  0.
         25    1    4    4    0    0 -0.60638018463E+02  0.63329880058E-01  0.55332533250E+02  0.14962008765E+03  0.12509000000E+03 0.  0.
<mgrwt>
<rscale>  2 0.45795927E+03</rscale>
<asrwt>0</asrwt>
<pdfrwt beam="1">  1       21 0.40791104E-01 0.45795927E+03</pdfrwt>
<pdfrwt beam="2">  1       21 0.27797800E-01 0.45795927E+03</pdfrwt>
<totfact> 0.66136521E+04</totfact>
</mgrwt>
</event>
<event>
 7    0  0.4737014E-002  0.4569243E+03  0.7546771E-02  0.1025677E+00
         21   -1    0    0  502  501  0.00000000000E+00  0.00000000000E+00  0.70990784687E+02  0.70990784687E+02  0.00000000000E+00 0.  1.
         21   -1    0    0  501  502 -0.00000000000E+00 -0.00000000000E+00 -0.73523560310E+03  0.73523560310E+03  0.00000000000E+00 0.  1.
      99926    2    1    2    0    0  0.00000000000E+00  0.00000000000E+00 -0.66424481842E+03  0.80622638779E+03  0.45692429305E+03 0.  0.
      99925    2    3    3    0    0  0.55539067443E+02  0.92247731656E+02 -0.48884979530E+03  0.56538379554E+03  0.26285068363E+03 0.  0.
         25    1    3    3    0    0 -0.55539067443E+02 -0.92247731656E+02 -0.17539502312E+03  0.24084259225E+03  0.12509000000E+03 0.  0.
         25    1    4    4    0    0  0.57379177873E+02  0.63217830774E+02 -0.31207605762E+03  0.34688303218E+03  0.12509000000E+03 0.  0.
         25    1    4    4    0    0 -0.18401104301E+01  0.29029900882E+02 -0.17677373769E+03  0.21850076336E+03  0.12509000000E+03 0.  0.
<mgrwt>
<rscale>  2 0.45692429E+03</rscale>
<asrwt>0</asrwt>
<pdfrwt beam="1">  1       21 0.10439821E-01 0.45692429E+03</pdfrwt>
<pdfrwt beam="2">  1       21 0.10812288E+00 0.45692429E+03</pdfrwt>
<totfact> 0.46755072E+04</totfact>
</mgrwt>
</event>
<event>
 7    0  0.4737014E-002  0.4621447E+03  0.7546771E-02  0.1024161E+00
         21   -1    0    0  502  501  0.00000000000E+00  0.00000000000E+00  0.63711647970E+03  0.63711647970E+03  0.00000000000E+00 0. -1.
         21   -1    0    0  501  502 -0.00000000000E+00 -0.00000000000E+00 -0.83806405431E+02  0.83806405431E+02  0.00000000000E+00 0. -1.
      99926    2    1    2    0    0  0.00000000000E+00  0.00000000000E+00  0.55331007427E+03  0.72092288513E+03  0.46214474791E+03 0.  0.
      99925    2    3    3    0    0 -0.53786116733E+02 -0.46657171696E+02  0.49601836921E+03  0.56600456603E+03  0.26316745268E+03 0.  0.
         25    1    4    4    0    0 -0.10285078645E+02 -0.53209707834E+02  0.20486229925E+03  0.24607544698E+03  0.12509000000E+03 0.  0.
         25    1    3    3    0    0  0.53786116733E+02  0.46657171696E+02  0.57291705057E+02  0.15491831910E+03  0.12509000000E+03 0.  0.
         25    1    4    4    0    0 -0.43501038087E+02  0.65525361383E+01  0.29115606996E+03  0.31992911906E+03  0.12509000000E+03 0.  0.
<mgrwt>
<rscale>  2 0.46214475E+03</rscale>
<asrwt>0</asrwt>
<pdfrwt beam="1">  1       21 0.93693597E-01 0.46214475E+03</pdfrwt>
<pdfrwt beam="2">  1       21 0.12324472E-01 0.46214475E+03</pdfrwt>
<totfact> 0.48971086E+04</totfact>
</mgrwt>
</event>
<event>
 7    0  0.4737014E-002  0.4514796E+03  0.7546771E-02  0.1027282E+00
         21   -1    0    0  502  501  0.00000000000E+00  0.00000000000E+00  0.18138406557E+03  0.18138406557E+03  0.00000000000E+00 0.  1.
         21   -1    0    0  501  502 -0.00000000000E+00 -0.00000000000E+00 -0.28094233384E+03  0.28094233384E+03  0.00000000000E+00 0.  1.
      99926    2    1    2    0    0  0.00000000000E+00  0.00000000000E+00 -0.99558268268E+02  0.46232639942E+03  0.45147962392E+03 0.  0.
      99925    2    3    3    0    0  0.10300882949E+02 -0.43368967692E+02  0.39179173106E+02  0.27027806881E+03  0.26368210278E+03 0.  0.
         25    1    3    3    0    0 -0.10300882949E+02  0.43368967692E+02 -0.13873744137E+03  0.19204833060E+03  0.12509000000E+03 0.  0.
         25    1    4    4    0    0  0.44942538051E+02 -0.32163139996E+02  0.27336327827E+02  0.13945996637E+03  0.12509000000E+03 0.  0.
         25    1    4    4    0    0 -0.34641655102E+02 -0.11205827696E+02  0.11842845278E+02  0.13081810244E+03  0.12509000000E+03 0.  0.
<mgrwt>
<rscale>  2 0.45147962E+03</rscale>
<asrwt>0</asrwt>
<pdfrwt beam="1">  1       21 0.26674128E-01 0.45147962E+03</pdfrwt>
<pdfrwt beam="2">  1       21 0.41315049E-01 0.45147962E+03</pdfrwt>
<totfact> 0.69943973E+04</totfact>
</mgrwt>
</event>
<event>
 7    0  0.4737014E-002  0.4401373E+03  0.7546771E-02  0.1030705E+00
         21   -1    0    0  502  501  0.00000000000E+00  0.00000000000E+00  0.85306119984E+02  0.85306119984E+02  0.00000000000E+00 0.  1.
         21   -1    0    0  501  502 -0.00000000000E+00 -0.00000000000E+00 -0.56772257187E+03  0.56772257187E+03  0.00000000000E+00 0.  1.
      99926    2    1    2    0    0  0.00000000000E+00  0.00000000000E+00 -0.48241645189E+03  0.65302869185E+03  0.44013729601E+03 0.  0.
      99925    2    3    3    0    0  0.36708219597E+02 -0.72223628620E+02 -0.39125871159E+03  0.47832612280E+03  0.26296150753E+03 0.  0.
         25    1    3    3    0    0 -0.36708219597E+02  0.72223628620E+02 -0.91157740295E+02  0.17470256905E+03  0.12509000000E+03 0.  0.
         25    1    4    4    0    0 -0.55267893648E+01 -0.16601023824E+02 -0.23166862129E+03  0.26386359655E+03  0.12509000000E+03 0.  0.
         25    1    4    4    0    0  0.42235008962E+02 -0.55622604796E+02 -0.15959009030E+03  0.21446252626E+03  0.12509000000E+03 0.  0.
<mgrwt>
<rscale>  2 0.44013730E+03</rscale>
<asrwt>0</asrwt>
<pdfrwt beam="1">  1       21 0.12545018E-01 0.44013730E+03</pdfrwt>
<pdfrwt beam="2">  1       21 0.83488613E-01 0.44013730E+03</pdfrwt>
<totfact> 0.62540189E+04</totfact>
</mgrwt>
</event>
<event>
 7    0  0.4737014E-002  0.4615974E+03  0.7546771E-02  0.1024319E+00
         21   -1    0    0  502  501  0.00000000000E+00  0.00000000000E+00  0.13619703818E+03  0.13619703818E+03  0.00000000000E+00 0. -1.
         21   -1    0    0  501  502 -0.00000000000E+00 -0.00000000000E+00 -0.39111015221E+03  0.39111015221E+03  0.00000000000E+00 0. -1.
      99926    2    1    2    0    0  0.14210854715E-13  0.00000000000E+00 -0.25491311403E+03  0.52730719039E+03  0.46159741911E+03 0.  0.
      99925    2    3    3    0    0 -0.93581823400E+02 -0.36189341977E+02 -0.23301634399E+03  0.36546095848E+03  0.26305487919E+03 0.  0.
         25    1    4    4    0    0 -0.74329514101E+02 -0.31988843197E+02 -0.16273828982E+03  0.22063413569E+03  0.12509000000E+03 0.  0.
         25    1    3    3    0    0  0.93581823400E+02  0.36189341977E+02 -0.21896770044E+02  0.16184623191E+03  0.12509000000E+03 0.  0.
         25    1    4    4    0    0 -0.19252309299E+02 -0.42004987802E+01 -0.70278054163E+02  0.14482682279E+03  0.12509000000E+03 0.  0.
<mgrwt>
<rscale>  2 0.46159742E+03</rscale>
<asrwt>0</asrwt>
<pdfrwt beam="1">  1       21 0.20028977E-01 0.46159742E+03</pdfrwt>
<pdfrwt beam="2">  1       21 0.57516198E-01 0.46159742E+03</pdfrwt>
<totfact> 0.60179526E+04</totfact>
</mgrwt>
</event>
<event>
 7    0  0.4737014E-002  0.4655013E+03  0.7546771E-02  0.1023198E+00
         21   -1    0    0  502  501  0.00000000000E+00  0.00000000000E+00  0.31718748557E+03  0.31718748557E+03  0.00000000000E+00 0. -1.
         21   -1    0    0  501  502 -0.00000000000E+00 -0.00000000000E+00 -0.17079133994E+03  0.17079133994E+03  0.00000000000E+00 0. -1.
      99926    2    1    2    0    0  0.00000000000E+00  0.17763568394E-14  0.14639614563E+03  0.48797882550E+03  0.46550134552E+03 0.  0.
      99925    2    3    3    0    0 -0.55477807767E+02 -0.15259837488E+02 -0.22609409568E+02  0.26998562473E+03  0.26281248518E+03 0.  0.
         25    1    4    4    0    0  0.40604893009E+01  0.18312595502E+02 -0.10046350717E+02  0.12688686295E+03  0.12509000000E+03 0.  0.
         25    1    4    4    0    0 -0.59538297068E+02 -0.33572432990E+02 -0.12563058851E+02  0.14309876178E+03  0.12509000000E+03 0.  0.
         25    1    3    3    0    0  0.55477807767E+02  0.15259837488E+02  0.16900555520E+03  0.21799320077E+03  0.12509000000E+03 0.  0.
<mgrwt>
<rscale>  2 0.46550135E+03</rscale>
<asrwt>0</asrwt>
<pdfrwt beam="1">  1       21 0.46645219E-01 0.46550135E+03</pdfrwt>
<pdfrwt beam="2">  1       21 0.25116373E-01 0.46550135E+03</pdfrwt>
<totfact> 0.60887783E+04</totfact>
</mgrwt>
</event>
<event>
 7    0  0.4737014E-002  0.4606212E+03  0.7546771E-02  0.1024601E+00
         21   -1    0    0  502  501  0.00000000000E+00  0.00000000000E+00  0.34617460749E+03  0.34617460749E+03  0.00000000000E+00 0.  1.
         21   -1    0    0  501  502 -0.00000000000E+00 -0.00000000000E+00 -0.15322604532E+03  0.15322604532E+03  0.00000000000E+00 0.  1.
      99926    2    1    2    0    0  0.00000000000E+00 -0.39968028887E-14  0.19294856217E+03  0.49940065282E+03  0.46062117232E+03 0.  0.
      99925    2    3    3    0    0  0.62024454612E+02 -0.39713320570E+01  0.11625665765E+02  0.27051573565E+03  0.26302243760E+03 0.  0.
         25    1    3    3    0    0 -0.62024454612E+02  0.39713320570E+01  0.18132289640E+03  0.22888491717E+03  0.12509000000E+03 0.  0.
         25    1    4    4    0    0  0.26985500654E+02 -0.40794649962E+02  0.17009131555E+02  0.13538552126E+03  0.12509000000E+03 0.  0.
         25    1    4    4    0    0  0.35038953958E+02  0.36823317905E+02 -0.53834657901E+01  0.13513021439E+03  0.12509000000E+03 0.  0.
<mgrwt>
<rscale>  2 0.46062117E+03</rscale>
<asrwt>0</asrwt>
<pdfrwt beam="1">  1       21 0.50908030E-01 0.46062117E+03</pdfrwt>
<pdfrwt beam="2">  1       21 0.22533242E-01 0.46062117E+03</pdfrwt>
<totfact> 0.62477925E+04</totfact>
</mgrwt>
</event>
<event>
 6    0  0.4737014E-002  0.4468050E+03  0.7546771E-02  0.1028679E+00
         21   -1    0    0  502  501  0.00000000000E+00  0.00000000000E+00  0.14216248255E+03  0.14216248255E+03  0.00000000000E+00 0.  1.
         21   -1    0    0  501  502 -0.00000000000E+00 -0.00000000000E+00 -0.35106786725E+03  0.35106786725E+03  0.00000000000E+00 0.  1.
      99926    2    1    2    0    0  0.14210854715E-13 -0.71054273576E-14 -0.20890538471E+03  0.49323034980E+03  0.44680501139E+03 0.  0.
         25    1    3    3    0    0 -0.98558055637E+01  0.42962204985E+02 -0.13198191556E+02  0.13328386369E+03  0.12509000000E+03 0.  0.
         25    1    3    3    0    0  0.73282650543E+02 -0.49643326783E+02 -0.14410682468E+03  0.21035468092E+03  0.12509000000E+03 0.  0.
         25    1    3    3    0    0 -0.63426844979E+02  0.66811217987E+01 -0.51600368466E+02  0.14959180518E+03  0.12509000000E+03 0.  0.
<mgrwt>
<rscale>  2 0.44680501E+03</rscale>
<asrwt>0</asrwt>
<pdfrwt beam="1">  1       21 0.20906247E-01 0.44680501E+03</pdfrwt>
<pdfrwt beam="2">  1       21 0.51627628E-01 0.44680501E+03</pdfrwt>
<totfact> 0.70206142E+04</totfact>
</mgrwt>
</event>
<event>
 7    0  0.4737014E-002  0.4538274E+03  0.7546771E-02  0.1026587E+00
         21   -1    0    0  502  501  0.00000000000E+00  0.00000000000E+00  0.20873461755E+03  0.20873461755E+03  0.00000000000E+00 0. -1.
         21   -1    0    0  501  502 -0.00000000000E+00 -0.00000000000E+00 -0.24667600221E+03  0.24667600221E+03  0.00000000000E+00 0. -1.
      99926    2    1    2    0    0  0.00000000000E+00  0.00000000000E+00 -0.37941384660E+02  0.45541061976E+03  0.45382737238E+03 0.  0.
      99925    2    3    3    0    0  0.80771026765E+02 -0.20967230649E+02 -0.99053638356E+02  0.29309672887E+03  0.26292676866E+03 0.  0.
         25    1    4    4    0    0  0.46826237679E+02 -0.40589982969E+02 -0.79230698204E+02  0.16051559080E+03  0.12509000000E+03 0.  0.
         25    1    4    4    0    0  0.33944789086E+02  0.19622752320E+02 -0.19822940152E+02  0.13258113807E+03  0.12509000000E+03 0.  0.
         25    1    3    3    0    0 -0.80771026765E+02  0.20967230649E+02  0.61112253696E+02  0.16231389089E+03  0.12509000000E+03 0.  0.
<mgrwt>
<rscale>  2 0.45382737E+03</rscale>
<asrwt>0</asrwt>
<pdfrwt beam="1">  1       21 0.30696267E-01 0.45382737E+03</pdfrwt>
<pdfrwt beam="2">  1       21 0.36275883E-01 0.45382737E+03</pdfrwt>
<totfact> 0.69160556E+04</totfact>
</mgrwt>
</event>
<event>
 7    0  0.4737014E-002  0.4477457E+03  0.7546771E-02  0.1028396E+00
         21   -1    0    0  502  501  0.00000000000E+00  0.00000000000E+00  0.16923167143E+03  0.16923167143E+03  0.00000000000E+00 0.  1.
         21   -1    0    0  501  502 -0.00000000000E+00 -0.00000000000E+00 -0.29615644824E+03  0.29615644824E+03  0.00000000000E+00 0.  1.
      99926    2    1    2    0    0  0.00000000000E+00  0.00000000000E+00 -0.12692477681E+03  0.46538811966E+03  0.44774569005E+03 0.  0.
      99925    2    3    3    0    0 -0.11492262941E+02  0.78034515965E+02 -0.64912185547E+01  0.27467050683E+03  0.26302146988E+03 0.  0.
         25    1    4    4    0    0 -0.33247252338E+01  0.72819822103E+02 -0.27755228278E+02  0.14741655635E+03  0.12509000000E+03 0.  0.
         25    1    3    3    0    0  0.11492262941E+02 -0.78034515965E+02 -0.12043355826E+03  0.19071761283E+03  0.12509000000E+03 0.  0.
         25    1    4    4    0    0 -0.81675377071E+01  0.52146938618E+01  0.21264009723E+02  0.12725395048E+03  0.12509000000E+03 0.  0.
<mgrwt>
<rscale>  2 0.44774569E+03</rscale>
<asrwt>0</asrwt>
<pdfrwt beam="1">  1       21 0.24887011E-01 0.44774569E+03</pdfrwt>
<pdfrwt beam="2">  1       21 0.43552418E-01 0.44774569E+03</pdfrwt>
<totfact> 0.71825726E+04</totfact>
</mgrwt>
</event>
<event>
 7    0  0.4737014E-002  0.4640882E+03  0.7546771E-02  0.1023602E+00
         21   -1    0    0  502  501  0.00000000000E+00  0.00000000000E+00  0.51638465934E+02  0.51638465934E+02  0.00000000000E+00 0. -1.
         21   -1    0    0  501  502 -0.00000000000E+00 -0.00000000000E+00 -0.10427199051E+04  0.10427199051E+04  0.00000000000E+00 0. -1.
      99926    2    1    2    0    0 -0.35527136788E-14  0.14210854715E-13 -0.99108143915E+03  0.10943583710E+04  0.46408816532E+03 0.  0.
      99925    2    3    3    0    0  0.17970899966E+02 -0.10148232055E+03 -0.46802381308E+03  0.54676508863E+03  0.26321884033E+03 0.  0.
         25    1    4    4    0    0 -0.20848727093E+02 -0.26433822881E+02 -0.25022876927E+03  0.28177182522E+03  0.12509000000E+03 0.  0.
         25    1    3    3    0    0 -0.17970899966E+02  0.10148232055E+03 -0.52305762607E+03  0.54759328239E+03  0.12509000000E+03 0.  0.
         25    1    4    4    0    0  0.38819627059E+02 -0.75048497665E+02 -0.21779504381E+03  0.26499326341E+03  0.12509000000E+03 0.  0.
<mgrwt>
<rscale>  2 0.46408817E+03</rscale>
<asrwt>0</asrwt>
<pdfrwt beam="1">  1       21 0.75938928E-02 0.46408817E+03</pdfrwt>
<pdfrwt beam="2">  1       21 0.15334115E+00 0.46408817E+03</pdfrwt>
<totfact> 0.33268358E+04</totfact>
</mgrwt>
</event>
<event>
 7    0  0.4737014E-002  0.4619172E+03  0.7546771E-02  0.1024227E+00
         21   -1    0    0  502  501  0.00000000000E+00  0.00000000000E+00  0.28593222474E+03  0.28593222474E+03  0.00000000000E+00 0. -1.
         21   -1    0    0  501  502 -0.00000000000E+00 -0.00000000000E+00 -0.18655426678E+03  0.18655426678E+03  0.00000000000E+00 0. -1.
      99926    2    1    2    0    0 -0.71054273576E-14 -0.14210854715E-13  0.99377957954E+02  0.47248649152E+03  0.46191720702E+03 0.  0.
      99925    2    3    3    0    0 -0.59084503616E+02 -0.91149288418E+02  0.11303143227E+03  0.30625443442E+03  0.26309029357E+03 0.  0.
         25    1    3    3    0    0  0.59084503616E+02  0.91149288418E+02 -0.13653474317E+02  0.16623205710E+03  0.12509000000E+03 0.  0.
         25    1    4    4    0    0 -0.34499231623E+02 -0.12382680070E+02  0.25857981122E+02  0.13288969500E+03  0.12509000000E+03 0.  0.
         25    1    4    4    0    0 -0.24585271993E+02 -0.78766608348E+02  0.87173451148E+02  0.17336473942E+03  0.12509000000E+03 0.  0.
<mgrwt>
<rscale>  2 0.46191721E+03</rscale>
<asrwt>0</asrwt>
<pdfrwt beam="1">  1       21 0.42048857E-01 0.46191721E+03</pdfrwt>
<pdfrwt beam="2">  1       21 0.27434451E-01 0.46191721E+03</pdfrwt>
<totfact> 0.63683838E+04</totfact>
</mgrwt>
</event>
<event>
 7    0  0.4737014E-002  0.4606635E+03  0.7546771E-02  0.1024589E+00
         21   -1    0    0  502  501  0.00000000000E+00  0.00000000000E+00  0.89442107469E+02  0.89442107469E+02  0.00000000000E+00 0.  1.
         21   -1    0    0  501  502 -0.00000000000E+00 -0.00000000000E+00 -0.59315134071E+03  0.59315134071E+03  0.00000000000E+00 0.  1.
      99926    2    1    2    0    0  0.00000000000E+00  0.00000000000E+00 -0.50370923324E+03  0.68259344818E+03  0.46066346050E+03 0.  0.
      99925    2    3    3    0    0  0.10303566963E+03  0.68546140027E+01 -0.40109704721E+03  0.49065568803E+03  0.26306050248E+03 0.  0.
         25    1    3    3    0    0 -0.10303566963E+03 -0.68546140027E+01 -0.10261218603E+03  0.19193776014E+03  0.12509000000E+03 0.  0.
         25    1    4    4    0    0  0.34852947169E+02  0.34436830920E+01 -0.12668735346E+03  0.18144911272E+03  0.12509000000E+03 0.  0.
         25    1    4    4    0    0  0.68182722457E+02  0.34109309107E+01 -0.27440969375E+03  0.30920657531E+03  0.12509000000E+03 0.  0.
<mgrwt>
<rscale>  2 0.46066346E+03</rscale>
<asrwt>0</asrwt>
<pdfrwt beam="1">  1       21 0.13153251E-01 0.46066346E+03</pdfrwt>
<pdfrwt beam="2">  1       21 0.87228139E-01 0.46066346E+03</pdfrwt>
<totfact> 0.51521121E+04</totfact>
</mgrwt>
</event>
<event>
 7    0  0.4737014E-002  0.4825248E+03  0.7546771E-02  0.1018444E+00
         21   -1    0    0  502  501  0.00000000000E+00  0.00000000000E+00  0.35204895318E+03  0.35204895318E+03  0.00000000000E+00 0. -1.
         21   -1    0    0  501  502 -0.00000000000E+00 -0.00000000000E+00 -0.16533936584E+03  0.16533936584E+03  0.00000000000E+00 0. -1.
      99926    2    1    2    0    0  0.35527136788E-14  0.00000000000E+00  0.18670958734E+03  0.51738831903E+03  0.48252482077E+03 0.  0.
      99925    2    3    3    0    0 -0.25316548437E+02  0.61054279483E+02 -0.14276690791E+02  0.27160071811E+03  0.26304861435E+03 0.  0.
         25    1    4    4    0    0 -0.21912481235E+02  0.64817644880E+02 -0.29144799594E+02  0.14552804323E+03  0.12509000000E+03 0.  0.
         25    1    4    4    0    0 -0.34040672022E+01 -0.37633653972E+01  0.14868108803E+02  0.12607267488E+03  0.12509000000E+03 0.  0.
         25    1    3    3    0    0  0.25316548437E+02 -0.61054279483E+02  0.20098627813E+03  0.24578760092E+03  0.12509000000E+03 0.  0.
<mgrwt>
<rscale>  2 0.48252482E+03</rscale>
<asrwt>0</asrwt>
<pdfrwt beam="1">  1       21 0.51771905E-01 0.48252482E+03</pdfrwt>
<pdfrwt beam="2">  1       21 0.24314613E-01 0.48252482E+03</pdfrwt>
<totfact> 0.51791157E+04</totfact>
</mgrwt>
</event>
<event>
 7    0  0.4737014E-002  0.4658834E+03  0.7546771E-02  0.1023089E+00
         21   -1    0    0  502  501  0.00000000000E+00  0.00000000000E+00  0.88802607792E+02  0.88802607792E+02  0.00000000000E+00 0.  1.
         21   -1    0    0  501  502 -0.00000000000E+00 -0.00000000000E+00 -0.61103867823E+03  0.61103867823E+03  0.00000000000E+00 0.  1.
      99926    2    1    2    0    0  0.00000000000E+00  0.00000000000E+00 -0.52223607044E+03  0.69984128602E+03  0.46588336776E+03 0.  0.
      99925    2    3    3    0    0 -0.76909463364E+02  0.78353040216E+02 -0.24191393245E+03  0.37383166406E+03  0.26300855095E+03 0.  0.
         25    1    3    3    0    0  0.76909463364E+02 -0.78353040216E+02 -0.28032213799E+03  0.32600962196E+03  0.12509000000E+03 0.  0.
         25    1    4    4    0    0 -0.18831986803E+02  0.66322849374E+02 -0.15295364846E+03  0.20927419992E+03  0.12509000000E+03 0.  0.
         25    1    4    4    0    0 -0.58077476561E+02  0.12030190842E+02 -0.88960283988E+02  0.16455746413E+03  0.12509000000E+03 0.  0.
<mgrwt>
<rscale>  2 0.46588337E+03</rscale>
<asrwt>0</asrwt>
<pdfrwt beam="1">  1       21 0.13059207E-01 0.46588337E+03</pdfrwt>
<pdfrwt beam="2">  1       21 0.89858628E-01 0.46588337E+03</pdfrwt>
<totfact> 0.48611344E+04</totfact>
</mgrwt>
</event>
<event>
 7    0  0.4737014E-002  0.4465449E+03  0.7546771E-02  0.1028757E+00
         21   -1    0    0  502  501  0.00000000000E+00  0.00000000000E+00  0.23804887395E+03  0.23804887395E+03  0.00000000000E+00 0.  1.
         21   -1    0    0  501  502 -0.00000000000E+00 -0.00000000000E+00 -0.20941325779E+03  0.20941325779E+03  0.00000000000E+00 0.  1.
      99926    2    1    2    0    0  0.00000000000E+00  0.35527136788E-14  0.28635616167E+02  0.44746213174E+03  0.44654491468E+03 0.  0.
      99925    2    3    3    0    0  0.60122810162E+02 -0.30355059937E+02  0.98904991046E+02  0.28896457620E+03  0.26302499326E+03 0.  0.
         25    1    3    3    0    0 -0.60122810162E+02  0.30355059937E+02 -0.70269374879E+02  0.15849755554E+03  0.12509000000E+03 0.  0.
         25    1    4    4    0    0 -0.35144442198E+01  0.19600119481E+01  0.27173958325E+02  0.12807078151E+03  0.12509000000E+03 0.  0.
         25    1    4    4    0    0  0.63637254381E+02 -0.32315071885E+02  0.71731032722E+02  0.16089379470E+03  0.12509000000E+03 0.  0.
<mgrwt>
<rscale>  2 0.44654491E+03</rscale>
<asrwt>0</asrwt>
<pdfrwt beam="1">  1       21 0.35007187E-01 0.44654491E+03</pdfrwt>
<pdfrwt beam="2">  1       21 0.30796067E-01 0.44654491E+03</pdfrwt>
<totfact> 0.73966993E+04</totfact>
</mgrwt>
</event>
<event>
 7    0  0.4737014E-002  0.4394565E+03  0.7546771E-02  0.1030914E+00
         21   -1    0    0  502  501  0.00000000000E+00  0.00000000000E+00  0.96281635058E+02  0.96281635058E+02  0.00000000000E+00 0. -1.
         21   -1    0    0  501  502 -0.00000000000E+00 -0.00000000000E+00 -0.50145070854E+03  0.50145070854E+03  0.00000000000E+00 0. -1.
      99926    2    1    2    0    0  0.71054273576E-14  0.00000000000E+00 -0.40516907348E+03  0.59773234359E+03  0.43945645572E+03 0.  0.
      99925    2    3    3    0    0  0.42310095982E+02  0.76086120575E+02 -0.19796085823E+03  0.34051260381E+03  0.26302298378E+03 0.  0.
         25    1    4    4    0    0  0.13544615548E+02  0.79091514836E+02 -0.10293087092E+03  0.18077941425E+03  0.12509000000E+03 0.  0.
         25    1    4    4    0    0  0.28765480434E+02 -0.30053942607E+01 -0.95029987313E+02  0.15973318956E+03  0.12509000000E+03 0.  0.
         25    1    3    3    0    0 -0.42310095982E+02 -0.76086120575E+02 -0.20720821525E+03  0.25721973978E+03  0.12509000000E+03 0.  0.
<mgrwt>
<rscale>  2 0.43945646E+03</rscale>
<asrwt>0</asrwt>
<pdfrwt beam="1">  1       21 0.14159064E-01 0.43945646E+03</pdfrwt>
<pdfrwt beam="2">  1       21 0.73742749E-01 0.43945646E+03</pdfrwt>
<totfact> 0.66631962E+04</totfact>
</mgrwt>
</event>
<event>
 7    0  0.4737014E-002  0.4490658E+03  0.7546771E-02  0.1028001E+00
         21   -1    0    0  502  501  0.00000000000E+00  0.00000000000E+00  0.16085920682E+03  0.16085920682E+03  0.00000000000E+00 0. -1.
         21   -1    0    0  501  502 -0.00000000000E+00 -0.00000000000E+00 -0.31341090780E+03  0.31341090780E+03  0.00000000000E+00 0. -1.
      99926    2    1    2    0    0  0.00000000000E+00  0.00000000000E+00 -0.15255170098E+03  0.47427011462E+03  0.44906583053E+03 0.  0.
      99925    2    3    3    0    0 -0.54515390908E+02 -0.91435561251E+02 -0.11246151607E+03  0.30519285201E+03  0.26298801230E+03 0.  0.
         25    1    4    4    0    0 -0.36616791747E+01 -0.10414409629E+02 -0.39536756161E+02  0.13165307064E+03  0.12509000000E+03 0.  0.
         25    1    4    4    0    0 -0.50853711733E+02 -0.81021151621E+02 -0.72924759910E+02  0.17353978136E+03  0.12509000000E+03 0.  0.
         25    1    3    3    0    0  0.54515390908E+02  0.91435561251E+02 -0.40090184907E+02  0.16907726261E+03  0.12509000000E+03 0.  0.
<mgrwt>
<rscale>  2 0.44906583E+03</rscale>
<asrwt>0</asrwt>
<pdfrwt beam="1">  1       21 0.23655766E-01 0.44906583E+03</pdfrwt>
<pdfrwt beam="2">  1       21 0.46089839E-01 0.44906583E+03</pdfrwt>
<totfact> 0.70376255E+04</totfact>
</mgrwt>
</event>
<event>
 7    0  0.4737014E-002  0.4545412E+03  0.7546771E-02  0.1026376E+00
         21   -1    0    0  502  501  0.00000000000E+00  0.00000000000E+00  0.25863707914E+03  0.25863707914E+03  0.00000000000E+00 0. -1.
         21   -1    0    0  501  502 -0.00000000000E+00 -0.00000000000E+00 -0.19970813053E+03  0.19970813053E+03  0.00000000000E+00 0. -1.
      99926    2    1    2    0    0 -0.14210854715E-13  0.00000000000E+00  0.58928948608E+02  0.45834520966E+03  0.45454120851E+03 0.  0.
      99925    2    3    3    0    0  0.95763691060E+02  0.49406077803E+02 -0.97040746962E+00  0.28271182443E+03  0.26136830132E+03 0.  0.
         25    1    4    4    0    0  0.76029875460E+02  0.31750358309E+02 -0.27069930211E+02  0.15221339112E+03  0.12509000000E+03 0.  0.
         25    1    3    3    0    0 -0.95763691060E+02 -0.49406077803E+02  0.59899356078E+02  0.17563338523E+03  0.12509000000E+03 0.  0.
         25    1    4    4    0    0  0.19733815600E+02  0.17655719494E+02  0.26099522741E+02  0.13049843331E+03  0.12509000000E+03 0.  0.
<mgrwt>
<rscale>  2 0.45454121E+03</rscale>
<asrwt>0</asrwt>
<pdfrwt beam="1">  1       21 0.38034865E-01 0.45454121E+03</pdfrwt>
<pdfrwt beam="2">  1       21 0.29368842E-01 0.45454121E+03</pdfrwt>
<totfact> 0.68551792E+04</totfact>
</mgrwt>
</event>
<event>
 7    0  0.4737014E-002  0.4480109E+03  0.7546771E-02  0.1028317E+00
         21   -1    0    0  502  501  0.00000000000E+00  0.00000000000E+00  0.12674959570E+03  0.12674959570E+03  0.00000000000E+00 0. -1.
         21   -1    0    0  501  502 -0.00000000000E+00 -0.00000000000E+00 -0.39588648575E+03  0.39588648575E+03  0.00000000000E+00 0. -1.
      99926    2    1    2    0    0  0.00000000000E+00 -0.71054273576E-14 -0.26913689005E+03  0.52263608144E+03  0.44801094634E+03 0.  0.
      99925    2    3    3    0    0 -0.85562809638E+02 -0.32172408690E+02 -0.10646940144E+03  0.29799352487E+03  0.26288466891E+03 0.  0.
         25    1    4    4    0    0 -0.30442686870E+02  0.15702226488E+02 -0.25902079200E+02  0.13225635299E+03  0.12509000000E+03 0.  0.
         25    1    4    4    0    0 -0.55120122768E+02 -0.47874635178E+02 -0.80567322244E+02  0.16573717187E+03  0.12509000000E+03 0.  0.
         25    1    3    3    0    0  0.85562809638E+02  0.32172408690E+02 -0.16266748861E+03  0.22464255658E+03  0.12509000000E+03 0.  0.
<mgrwt>
<rscale>  2 0.44801095E+03</rscale>
<asrwt>0</asrwt>
<pdfrwt beam="1">  1       21 0.18639647E-01 0.44801095E+03</pdfrwt>
<pdfrwt beam="2">  1       21 0.58218599E-01 0.44801095E+03</pdfrwt>
<totfact> 0.67362575E+04</totfact>
</mgrwt>
</event>
<event>
 7    0  0.4737014E-002  0.4526459E+03  0.7546771E-02  0.1026936E+00
         21   -1    0    0  502  501  0.00000000000E+00  0.00000000000E+00  0.12726421976E+04  0.12726421976E+04  0.00000000000E+00 0. -1.
         21   -1    0    0  501  502 -0.00000000000E+00 -0.00000000000E+00 -0.40248604480E+02  0.40248604480E+02  0.00000000000E+00 0. -1.
      99926    2    1    2    0    0  0.14210854715E-13  0.00000000000E+00  0.12323935931E+04  0.13128908021E+04  0.45264587684E+03 0.  0.
      99925    2    3    3    0    0 -0.65290818193E+02 -0.89618405237E+02  0.79242179723E+03  0.84223483560E+03  0.26293129157E+03 0.  0.
         25    1    4    4    0    0 -0.33339265124E+02 -0.72708922806E+02  0.51130384344E+03  0.53242579058E+03  0.12509000000E+03 0.  0.
         25    1    3    3    0    0  0.65290818193E+02  0.89618405237E+02  0.43997179589E+03  0.47065596647E+03  0.12509000000E+03 0.  0.
         25    1    4    4    0    0 -0.31951553069E+02 -0.16909482431E+02  0.28111795379E+03  0.30980904503E+03  0.12509000000E+03 0.  0.
<mgrwt>
<rscale>  2 0.45264588E+03</rscale>
<asrwt>0</asrwt>
<pdfrwt beam="1">  1       21 0.18715324E+00 0.45264588E+03</pdfrwt>
<pdfrwt beam="2">  1       21 0.59189132E-02 0.45264588E+03</pdfrwt>
<totfact> 0.29274869E+04</totfact>
</mgrwt>
</event>
<event>
 7    0  0.4737014E-002  0.4493836E+03  0.7546771E-02  0.1027906E+00
         21   -1    0    0  502  501  0.00000000000E+00  0.00000000000E+00  0.20385415396E+03  0.20385415396E+03  0.00000000000E+00 0. -1.
         21   -1    0    0  501  502 -0.00000000000E+00 -0.00000000000E+00 -0.24765946517E+03  0.24765946517E+03  0.00000000000E+00 0. -1.
      99926    2    1    2    0    0  0.00000000000E+00  0.00000000000E+00 -0.43805311208E+02  0.45151361914E+03  0.44938362562E+03 0.  0.
      99925    2    3    3    0    0 -0.93221410228E+02 -0.49250058950E+02 -0.50731124139E+02  0.28777213198E+03  0.26291320499E+03 0.  0.
         25    1    4    4    0    0 -0.32334442455E+02 -0.12750104929E+00 -0.54401214645E+02  0.14018749117E+03  0.12509000000E+03 0.  0.
         25    1    4    4    0    0 -0.60886967773E+02 -0.49122557901E+02  0.36700905055E+01  0.14758464081E+03  0.12509000000E+03 0.  0.
         25    1    3    3    0    0  0.93221410228E+02  0.49250058950E+02  0.69258129308E+01  0.16374148716E+03  0.12509000000E+03 0.  0.
<mgrwt>
<rscale>  2 0.44938363E+03</rscale>
<asrwt>0</asrwt>
<pdfrwt beam="1">  1       21 0.29978552E-01 0.44938363E+03</pdfrwt>
<pdfrwt beam="2">  1       21 0.36420510E-01 0.44938363E+03</pdfrwt>
<totfact> 0.71973469E+04</totfact>
</mgrwt>
</event>
<event>
 7    0  0.4737014E-002  0.4522192E+03  0.7546771E-02  0.1027062E+00
         21   -1    0    0  502  501  0.00000000000E+00  0.00000000000E+00  0.40946120100E+02  0.40946120100E+02  0.00000000000E+00 0.  1.
         21   -1    0    0  501  502 -0.00000000000E+00 -0.00000000000E+00 -0.12486055563E+04  0.12486055563E+04  0.00000000000E+00 0.  1.
      99926    2    1    2    0    0  0.00000000000E+00 -0.14210854715E-13 -0.12076594362E+04  0.12895516764E+04  0.45221920819E+03 0.  0.
      99925    2    3    3    0    0  0.75321765350E+02  0.67289610193E+02 -0.89007332502E+03  0.93358860796E+03  0.26297510344E+03 0.  0.
         25    1    3    3    0    0 -0.75321765350E+02 -0.67289610193E+02 -0.31758611114E+03  0.35596306840E+03  0.12509000000E+03 0.  0.
         25    1    4    4    0    0  0.78017228024E+02  0.43674347290E+02 -0.45594539587E+03  0.48117340803E+03  0.12509000000E+03 0.  0.
         25    1    4    4    0    0 -0.26954626741E+01  0.23615262903E+02 -0.43412792915E+03  0.45241519993E+03  0.12509000000E+03 0.  0.
<mgrwt>
<rscale>  2 0.45221921E+03</rscale>
<asrwt>0</asrwt>
<pdfrwt beam="1">  1       21 0.60214879E-02 0.45221921E+03</pdfrwt>
<pdfrwt beam="2">  1       21 0.18361847E+00 0.45221921E+03</pdfrwt>
<totfact> 0.30064692E+04</totfact>
</mgrwt>
</event>
<event>
 7    0  0.4737014E-002  0.4573421E+03  0.7546771E-02  0.1025555E+00
         21   -1    0    0  502  501  0.00000000000E+00  0.00000000000E+00  0.14701200964E+04  0.14701200964E+04  0.00000000000E+00 0.  1.
         21   -1    0    0  501  502 -0.00000000000E+00 -0.00000000000E+00 -0.35568833780E+02  0.35568833780E+02  0.00000000000E+00 0.  1.
      99926    2    1    2    0    0 -0.71054273576E-14 -0.71054273576E-14  0.14345512627E+04  0.15056889302E+04  0.45734213603E+03 0.  0.
      99925    2    3    3    0    0  0.56148324793E+02  0.37814445833E+02  0.12088880524E+04  0.12389419354E+04  0.26264849002E+03 0.  0.
         25    1    4    4    0    0  0.58488792692E+01 -0.35772734328E+01  0.45271659841E+03  0.46973059604E+03  0.12509000000E+03 0.  0.
         25    1    4    4    0    0  0.50299445523E+02  0.41391719266E+02  0.75617145402E+03  0.76921133937E+03  0.12509000000E+03 0.  0.
         25    1    3    3    0    0 -0.56148324793E+02 -0.37814445833E+02  0.22566321022E+03  0.26674699480E+03  0.12509000000E+03 0.  0.
<mgrwt>
<rscale>  2 0.45734214E+03</rscale>
<asrwt>0</asrwt>
<pdfrwt beam="1">  1       21 0.21619409E+00 0.45734214E+03</pdfrwt>
<pdfrwt beam="2">  1       21 0.52307118E-02 0.45734214E+03</pdfrwt>
<totfact> 0.23214842E+04</totfact>
</mgrwt>
</event>
<event>
 7    0  0.4737014E-002  0.4598696E+03  0.7546771E-02  0.1024819E+00
         21   -1    0    0  502  501  0.00000000000E+00  0.00000000000E+00  0.84649588918E+02  0.84649588918E+02  0.00000000000E+00 0.  1.
         21   -1    0    0  501  502 -0.00000000000E+00 -0.00000000000E+00 -0.62457497306E+03  0.62457497306E+03  0.00000000000E+00 0.  1.
      99926    2    1    2    0    0 -0.14210854715E-13  0.00000000000E+00 -0.53992538414E+03  0.70922456197E+03  0.45986961073E+03 0.  0.
      99925    2    3    3    0    0  0.10882150770E+03 -0.39701623066E+02 -0.30571689813E+03  0.41953600088E+03  0.26292450403E+03 0.  0.
         25    1    4    4    0    0  0.43170764342E+02 -0.31677943445E+02 -0.95911863959E+02  0.16647462492E+03  0.12509000000E+03 0.  0.
         25    1    4    4    0    0  0.65650743354E+02 -0.80236796206E+01 -0.20980503417E+03  0.25306137596E+03  0.12509000000E+03 0.  0.
         25    1    3    3    0    0 -0.10882150770E+03  0.39701623066E+02 -0.23420848601E+03  0.28968856109E+03  0.12509000000E+03 0.  0.
<mgrwt>
<rscale>  2 0.45986961E+03</rscale>
<asrwt>0</asrwt>
<pdfrwt beam="1">  1       21 0.12448469E-01 0.45986961E+03</pdfrwt>
<pdfrwt beam="2">  1       21 0.91849263E-01 0.45986961E+03</pdfrwt>
<totfact> 0.50444315E+04</totfact>
</mgrwt>
</event>
<event>
 7    0  0.4737014E-002  0.4524103E+03  0.7546771E-02  0.1027006E+00
         21   -1    0    0  502  501  0.00000000000E+00  0.00000000000E+00  0.38669947216E+03  0.38669947216E+03  0.00000000000E+00 0. -1.
         21   -1    0    0  501  502 -0.00000000000E+00 -0.00000000000E+00 -0.13232178214E+03  0.13232178214E+03  0.00000000000E+00 0. -1.
      99926    2    1    2    0    0  0.00000000000E+00  0.00000000000E+00  0.25437769002E+03  0.51902125430E+03  0.45241027092E+03 0.  0.
      99925    2    3    3    0    0  0.20331965488E+01 -0.83787933959E+02  0.24407724155E+03  0.36809690536E+03  0.26248253300E+03 0.  0.
         25    1    4    4    0    0  0.39405316946E+01 -0.35261310503E+02  0.17249507257E+03  0.21601144870E+03  0.12509000000E+03 0.  0.
         25    1    4    4    0    0 -0.19073351458E+01 -0.48526623457E+02  0.71582168977E+02  0.15208545666E+03  0.12509000000E+03 0.  0.
         25    1    3    3    0    0 -0.20331965488E+01  0.83787933959E+02  0.10300448477E+02  0.15092434894E+03  0.12509000000E+03 0.  0.
<mgrwt>
<rscale>  2 0.45241027E+03</rscale>
<asrwt>0</asrwt>
<pdfrwt beam="1">  1       21 0.56867569E-01 0.45241027E+03</pdfrwt>
<pdfrwt beam="2">  1       21 0.19459086E-01 0.45241027E+03</pdfrwt>
<totfact> 0.65285062E+04</totfact>
</mgrwt>
</event>
<event>
 7    0  0.4737014E-002  0.4564956E+03  0.7546771E-02  0.1025803E+00
         21   -1    0    0  502  501  0.00000000000E+00  0.00000000000E+00  0.34552284961E+03  0.34552284961E+03  0.00000000000E+00 0.  1.
         21   -1    0    0  501  502 -0.00000000000E+00 -0.00000000000E+00 -0.15077744667E+03  0.15077744667E+03  0.00000000000E+00 0.  1.
      99926    2    1    2    0    0  0.35527136788E-14  0.00000000000E+00  0.19474540295E+03  0.49630029628E+03  0.45649557733E+03 0.  0.
      99925    2    3    3    0    0 -0.23218498245E+02 -0.55191667564E+02  0.16412593094E+02  0.27039031863E+03  0.26316597875E+03 0.  0.
         25    1    4    4    0    0  0.27529325819E+02 -0.36338682498E+02  0.29820980031E+00  0.13313887732E+03  0.12509000000E+03 0.  0.
         25    1    4    4    0    0 -0.50747824064E+02 -0.18852985066E+02  0.16114383294E+02  0.13725144131E+03  0.12509000000E+03 0.  0.
         25    1    3    3    0    0  0.23218498245E+02  0.55191667564E+02  0.17833280985E+03  0.22590997765E+03  0.12509000000E+03 0.  0.
<mgrwt>
<rscale>  2 0.45649558E+03</rscale>
<asrwt>0</asrwt>
<pdfrwt beam="1">  1       21 0.50812184E-01 0.45649558E+03</pdfrwt>
<pdfrwt beam="2">  1       21 0.22173154E-01 0.45649558E+03</pdfrwt>
<totfact> 0.64759078E+04</totfact>
</mgrwt>
</event>
<event>
 7    0  0.4737014E-002  0.4525683E+03  0.7546771E-02  0.1026959E+00
         21   -1    0    0  502  501  0.00000000000E+00  0.00000000000E+00  0.13711979704E+03  0.13711979704E+03  0.00000000000E+00 0.  1.
         21   -1    0    0  501  502 -0.00000000000E+00 -0.00000000000E+00 -0.37342911866E+03  0.37342911866E+03  0.00000000000E+00 0.  1.
      99926    2    1    2    0    0  0.00000000000E+00  0.71054273576E-14 -0.23630932162E+03  0.51054891570E+03  0.45256833720E+03 0.  0.
      99925    2    3    3    0    0  0.73837372423E+02 -0.26233655112E+02 -0.60383066389E+02  0.28090197449E+03  0.26290614740E+03 0.  0.
         25    1    3    3    0    0 -0.73837372423E+02  0.26233655112E+02 -0.17592625523E+03  0.22964694121E+03  0.12509000000E+03 0.  0.
         25    1    4    4    0    0  0.40675655270E+02  0.11144343495E+01 -0.68643466477E+02  0.14837514780E+03  0.12509000000E+03 0.  0.
         25    1    4    4    0    0  0.33161717153E+02 -0.27348089462E+02  0.82604000885E+01  0.13252682669E+03  0.12509000000E+03 0.  0.
<mgrwt>
<rscale>  2 0.45256834E+03</rscale>
<asrwt>0</asrwt>
<pdfrwt beam="1">  1       21 0.20164677E-01 0.45256834E+03</pdfrwt>
<pdfrwt beam="2">  1       21 0.54916045E-01 0.45256834E+03</pdfrwt>
<totfact> 0.65796293E+04</totfact>
</mgrwt>
</event>
<event>
 7    0  0.4737014E-002  0.4582136E+03  0.7546771E-02  0.1025301E+00
         21   -1    0    0  502  501  0.00000000000E+00  0.00000000000E+00  0.28505965665E+03  0.28505965665E+03  0.00000000000E+00 0. -1.
         21   -1    0    0  501  502 -0.00000000000E+00 -0.00000000000E+00 -0.18413663509E+03  0.18413663509E+03  0.00000000000E+00 0. -1.
      99926    2    1    2    0    0  0.71054273576E-14  0.00000000000E+00  0.10092302156E+03  0.46919629174E+03  0.45821360074E+03 0.  0.
      99925    2    3    3    0    0  0.58929236794E+02 -0.95538664217E+01  0.16548606233E+03  0.31629166249E+03  0.26285137934E+03 0.  0.
         25    1    3    3    0    0 -0.58929236794E+02  0.95538664217E+01 -0.64563040774E+02  0.15290462925E+03  0.12509000000E+03 0.  0.
         25    1    4    4    0    0  0.32732049328E+02  0.21376419759E+02  0.11840821742E+03  0.17662489187E+03  0.12509000000E+03 0.  0.
         25    1    4    4    0    0  0.26197187466E+02 -0.30930286180E+02  0.47077844913E+02  0.13966677062E+03  0.12509000000E+03 0.  0.
<mgrwt>
<rscale>  2 0.45821360E+03</rscale>
<asrwt>0</asrwt>
<pdfrwt beam="1">  1       21 0.41920538E-01 0.45821360E+03</pdfrwt>
<pdfrwt beam="2">  1       21 0.27078917E-01 0.45821360E+03</pdfrwt>
<totfact> 0.65802500E+04</totfact>
</mgrwt>
</event>
<event>
 7    0  0.4737014E-002  0.4483555E+03  0.7546771E-02  0.1028214E+00
         21   -1    0    0  502  501  0.00000000000E+00  0.00000000000E+00  0.37015472681E+02  0.37015472681E+02  0.00000000000E+00 0.  1.
         21   -1    0    0  501  502 -0.00000000000E+00 -0.00000000000E+00 -0.13576931161E+04  0.13576931161E+04  0.00000000000E+00 0.  1.
      99926    2    1    2    0    0  0.00000000000E+00 -0.71054273576E-14 -0.13206776434E+04  0.13947085888E+04  0.44835545028E+03 0.  0.
      99925    2    3    3    0    0  0.71730840894E+02  0.63657630020E+02 -0.69026160229E+03  0.74488592035E+03  0.26305198601E+03 0.  0.
         25    1    4    4    0    0  0.92608572793E+01  0.59398559215E+02 -0.37986669830E+03  0.40442572729E+03  0.12509000000E+03 0.  0.
         25    1    3    3    0    0 -0.71730840894E+02 -0.63657630020E+02 -0.63041604113E+03  0.64982266843E+03  0.12509000000E+03 0.  0.
         25    1    4    4    0    0  0.62469983615E+02  0.42590708047E+01 -0.31039490399E+03  0.34046019306E+03  0.12509000000E+03 0.  0.
<mgrwt>
<rscale>  2 0.44835545E+03</rscale>
<asrwt>0</asrwt>
<pdfrwt beam="1">  1       21 0.54434512E-02 0.44835545E+03</pdfrwt>
<pdfrwt beam="2">  1       21 0.19966078E+00 0.44835545E+03</pdfrwt>
<totfact> 0.27885744E+04</totfact>
</mgrwt>
</event>
<event>
 7    0  0.4737014E-002  0.4596874E+03  0.7546771E-02  0.1024872E+00
         21   -1    0    0  502  501  0.00000000000E+00  0.00000000000E+00  0.97510332244E+02  0.97510332244E+02  0.00000000000E+00 0.  1.
         21   -1    0    0  501  502 -0.00000000000E+00 -0.00000000000E+00 -0.54176941930E+03  0.54176941930E+03  0.00000000000E+00 0.  1.
      99926    2    1    2    0    0  0.00000000000E+00  0.71054273576E-14 -0.44425908705E+03  0.63927975154E+03  0.45968735495E+03 0.  0.
      99925    2    3    3    0    0  0.52261467636E+01 -0.38911979724E+02 -0.12437000746E+03  0.29356601719E+03  0.26300504352E+03 0.  0.
         25    1    3    3    0    0 -0.52261467636E+01  0.38911979724E+02 -0.31988907959E+03  0.34571373435E+03  0.12509000000E+03 0.  0.
         25    1    4    4    0    0  0.50547260118E+01 -0.55056262597E+02 -0.86715023974E+02  0.16193747494E+03  0.12509000000E+03 0.  0.
         25    1    4    4    0    0  0.17142075176E+00  0.16144282873E+02 -0.37654983488E+02  0.13162854225E+03  0.12509000000E+03 0.  0.
<mgrwt>
<rscale>  2 0.45968735E+03</rscale>
<asrwt>0</asrwt>
<pdfrwt beam="1">  1       21 0.14339755E-01 0.45968735E+03</pdfrwt>
<pdfrwt beam="2">  1       21 0.79671973E-01 0.45968735E+03</pdfrwt>
<totfact> 0.54287076E+04</totfact>
</mgrwt>
</event>
<event>
 7    0  0.4737014E-002  0.4501603E+03  0.7546771E-02  0.1027674E+00
         21   -1    0    0  502  501  0.00000000000E+00  0.00000000000E+00  0.12731241174E+03  0.12731241174E+03  0.00000000000E+00 0.  1.
         21   -1    0    0  501  502 -0.00000000000E+00 -0.00000000000E+00 -0.39792730253E+03  0.39792730253E+03  0.00000000000E+00 0.  1.
      99926    2    1    2    0    0  0.00000000000E+00  0.26645352591E-14 -0.27061489078E+03  0.52523971427E+03  0.45016034736E+03 0.  0.
      99925    2    3    3    0    0 -0.63723217947E+02 -0.92715425510E+00 -0.27420330831E+03  0.38480505700E+03  0.26234704018E+03 0.  0.
         25    1    3    3    0    0  0.63723217947E+02  0.92715425510E+00  0.35884175236E+01  0.14043465726E+03  0.12509000000E+03 0.  0.
         25    1    4    4    0    0 -0.16545233752E+02 -0.21041139951E+02 -0.17658144700E+03  0.21804813655E+03  0.12509000000E+03 0.  0.
         25    1    4    4    0    0 -0.47177984195E+02  0.20113985696E+02 -0.97621861311E+02  0.16675692045E+03  0.12509000000E+03 0.  0.
<mgrwt>
<rscale>  2 0.45016035E+03</rscale>
<asrwt>0</asrwt>
<pdfrwt beam="1">  1       21 0.18722413E-01 0.45016035E+03</pdfrwt>
<pdfrwt beam="2">  1       21 0.58518722E-01 0.45016035E+03</pdfrwt>
<totfact> 0.66026593E+04</totfact>
</mgrwt>
</event>
<event>
 7    0  0.4737014E-002  0.4561965E+03  0.7546771E-02  0.1025890E+00
         21   -1    0    0  502  501  0.00000000000E+00  0.00000000000E+00  0.37505131656E+03  0.37505131656E+03  0.00000000000E+00 0.  1.
         21   -1    0    0  501  502 -0.00000000000E+00 -0.00000000000E+00 -0.13872450172E+03  0.13872450172E+03  0.00000000000E+00 0.  1.
      99926    2    1    2    0    0  0.00000000000E+00  0.00000000000E+00  0.23632681484E+03  0.51377581828E+03  0.45619647964E+03 0.  0.
      99925    2    3    3    0    0 -0.10478017687E+03  0.43442668217E+02  0.16532602364E+03  0.33059620332E+03  0.26285928682E+03 0.  0.
         25    1    4    4    0    0 -0.94293025918E+02  0.14036135874E+02  0.86826482651E+02  0.17965114538E+03  0.12509000000E+03 0.  0.
         25    1    4    4    0    0 -0.10487150951E+02  0.29406532343E+02  0.78499540994E+02  0.15094505794E+03  0.12509000000E+03 0.  0.
         25    1    3    3    0    0  0.10478017687E+03 -0.43442668217E+02  0.71000791194E+02  0.18317961496E+03  0.12509000000E+03 0.  0.
<mgrwt>
<rscale>  2 0.45619648E+03</rscale>
<asrwt>0</asrwt>
<pdfrwt beam="1">  1       21 0.55154605E-01 0.45619648E+03</pdfrwt>
<pdfrwt beam="2">  1       21 0.20400662E-01 0.45619648E+03</pdfrwt>
<totfact> 0.63706279E+04</totfact>
</mgrwt>
</event>
<event>
 7    0  0.4737014E-002  0.4481485E+03  0.7546771E-02  0.1028276E+00
         21   -1    0    0  502  501  0.00000000000E+00  0.00000000000E+00  0.10624853524E+03  0.10624853524E+03  0.00000000000E+00 0. -1.
         21   -1    0    0  501  502 -0.00000000000E+00 -0.00000000000E+00 -0.47256429797E+03  0.47256429797E+03  0.00000000000E+00 0. -1.
      99926    2    1    2    0    0  0.00000000000E+00  0.00000000000E+00 -0.36631576273E+03  0.57881283320E+03  0.44814847747E+03 0.  0.
      99925    2    3    3    0    0  0.87280233553E+02  0.61173291998E+02 -0.23246537836E+03  0.36686131913E+03  0.26303434094E+03 0.  0.
         25    1    4    4    0    0  0.16780014101E+02  0.60117910977E+02 -0.12463365586E+03  0.18728798244E+03  0.12509000000E+03 0.  0.
         25    1    4    4    0    0  0.70500219452E+02  0.10553810212E+01 -0.10783172250E+03  0.17957333669E+03  0.12509000000E+03 0.  0.
         25    1    3    3    0    0 -0.87280233553E+02 -0.61173291998E+02 -0.13385038436E+03  0.21195151407E+03  0.12509000000E+03 0.  0.
<mgrwt>
<rscale>  2 0.44814848E+03</rscale>
<asrwt>0</asrwt>
<pdfrwt beam="1">  1       21 0.15624785E-01 0.44814848E+03</pdfrwt>
<pdfrwt beam="2">  1       21 0.69494749E-01 0.44814848E+03</pdfrwt>
<totfact> 0.63364866E+04</totfact>
</mgrwt>
</event>
<event>
 7    0  0.4737014E-002  0.4477587E+03  0.7546771E-02  0.1028393E+00
         21   -1    0    0  502  501  0.00000000000E+00  0.00000000000E+00  0.58268547183E+02  0.58268547183E+02  0.00000000000E+00 0.  1.
         21   -1    0    0  501  502 -0.00000000000E+00 -0.00000000000E+00 -0.86018904161E+03  0.86018904161E+03  0.00000000000E+00 0.  1.
      99926    2    1    2    0    0 -0.71054273576E-14 -0.17763568394E-14 -0.80192049442E+03  0.91845758879E+03  0.44775871072E+03 0.  0.
      99925    2    3    3    0    0  0.54870793738E+02  0.99482422800E+01 -0.69324374297E+03  0.74362076218E+03  0.26320178430E+03 0.  0.
         25    1    4    4    0    0  0.57088806657E+02  0.19114845657E+02 -0.29389376578E+03  0.32503163359E+03  0.12509000000E+03 0.  0.
         25    1    3    3    0    0 -0.54870793738E+02 -0.99482422800E+01 -0.10867675146E+03  0.17483682661E+03  0.12509000000E+03 0.  0.
         25    1    4    4    0    0 -0.22180129194E+01 -0.91666033772E+01 -0.39934997719E+03  0.41858912860E+03  0.12509000000E+03 0.  0.
<mgrwt>
<rscale>  2 0.44775871E+03</rscale>
<asrwt>0</asrwt>
<pdfrwt beam="1">  1       21 0.85689041E-02 0.44775871E+03</pdfrwt>
<pdfrwt beam="2">  1       21 0.12649839E+00 0.44775871E+03</pdfrwt>
<totfact> 0.44937189E+04</totfact>
</mgrwt>
</event>
<event>
 6    0  0.4737014E-002  0.4408205E+03  0.7546771E-02  0.1030495E+00
         21   -1    0    0  502  501  0.00000000000E+00  0.00000000000E+00  0.19367594001E+03  0.19367594001E+03  0.00000000000E+00 0. -1.
         21   -1    0    0  501  502 -0.00000000000E+00 -0.00000000000E+00 -0.25083486321E+03  0.25083486321E+03  0.00000000000E+00 0. -1.
      99926    2    1    2    0    0  0.00000000000E+00  0.00000000000E+00 -0.57158923202E+02  0.44451080322E+03  0.44082049825E+03 0.  0.
         25    1    3    3    0    0  0.28144191581E+02  0.67157252994E+02  0.45870519484E+01  0.14481278015E+03  0.12509000000E+03 0.  0.
         25    1    3    3    0    0 -0.78085743804E+02 -0.47580099660E+02 -0.14499327350E+02  0.15562450920E+03  0.12509000000E+03 0.  0.
         25    1    3    3    0    0  0.49941552223E+02 -0.19577153335E+02 -0.47246647800E+02  0.14407351387E+03  0.12509000000E+03 0.  0.
<mgrwt>
<rscale>  2 0.44082050E+03</rscale>
<asrwt>0</asrwt>
<pdfrwt beam="1">  1       21 0.28481756E-01 0.44082050E+03</pdfrwt>
<pdfrwt beam="2">  1       21 0.36887480E-01 0.44082050E+03</pdfrwt>
<totfact> 0.77751491E+04</totfact>
</mgrwt>
</event>
<event>
 7    0  0.4737014E-002  0.4493694E+03  0.7546771E-02  0.1027910E+00
         21   -1    0    0  502  501  0.00000000000E+00  0.00000000000E+00  0.18439276729E+04  0.18439276729E+04  0.00000000000E+00 0.  1.
         21   -1    0    0  501  502 -0.00000000000E+00 -0.00000000000E+00 -0.27378088836E+02  0.27378088836E+02  0.00000000000E+00 0.  1.
      99926    2    1    2    0    0  0.00000000000E+00  0.35527136788E-14  0.18165495841E+04  0.18713057618E+04  0.44936940544E+03 0.  0.
      99925    2    3    3    0    0  0.37677841860E+02  0.26311152105E+02  0.15556872508E+04  0.15783747776E+04  0.26266370049E+03 0.  0.
         25    1    4    4    0    0  0.35638809268E+02  0.49954670561E+02  0.81549173625E+03  0.82730881407E+03  0.12509000000E+03 0.  0.
         25    1    4    4    0    0  0.20390325920E+01 -0.23643518456E+02  0.74019551457E+03  0.75106596349E+03  0.12509000000E+03 0.  0.
         25    1    3    3    0    0 -0.37677841860E+02 -0.26311152105E+02  0.26086233329E+03  0.29293098423E+03  0.12509000000E+03 0.  0.
<mgrwt>
<rscale>  2 0.44936941E+03</rscale>
<asrwt>0</asrwt>
<pdfrwt beam="1">  1       21 0.27116575E+00 0.44936941E+03</pdfrwt>
<pdfrwt beam="2">  1       21 0.40261908E-02 0.44936941E+03</pdfrwt>
<totfact> 0.16642322E+04</totfact>
</mgrwt>
</event>
<event>
 7    0  0.4737014E-002  0.4565528E+03  0.7546771E-02  0.1025786E+00
         21   -1    0    0  502  501  0.00000000000E+00  0.00000000000E+00  0.12023021366E+03  0.12023021366E+03  0.00000000000E+00 0. -1.
         21   -1    0    0  501  502 -0.00000000000E+00 -0.00000000000E+00 -0.43341946840E+03  0.43341946840E+03  0.00000000000E+00 0. -1.
      99926    2    1    2    0    0  0.00000000000E+00  0.00000000000E+00 -0.31318925474E+03  0.55364968206E+03  0.45655280216E+03 0.  0.
      99925    2    3    3    0    0  0.25282543085E+02  0.10454048461E+03 -0.14881839664E+03  0.32076944030E+03  0.26301748753E+03 0.  0.
         25    1    4    4    0    0  0.11942558412E+02  0.93024473154E+02 -0.65925666260E+02  0.16967580523E+03  0.12509000000E+03 0.  0.
         25    1    3    3    0    0 -0.25282543085E+02 -0.10454048461E+03 -0.16437085810E+03  0.23288024175E+03  0.12509000000E+03 0.  0.
         25    1    4    4    0    0  0.13339984673E+02  0.11516011461E+02 -0.82892730382E+02  0.15109363508E+03  0.12509000000E+03 0.  0.
<mgrwt>
<rscale>  2 0.45655280E+03</rscale>
<asrwt>0</asrwt>
<pdfrwt beam="1">  1       21 0.17680914E-01 0.45655280E+03</pdfrwt>
<pdfrwt beam="2">  1       21 0.63738157E-01 0.45655280E+03</pdfrwt>
<totfact> 0.60874710E+04</totfact>
</mgrwt>
</event>
<event>
 7    0  0.4737014E-002  0.4393548E+03  0.7546771E-02  0.1030945E+00
         21   -1    0    0  502  501  0.00000000000E+00  0.00000000000E+00  0.83134846739E+03  0.83134846739E+03  0.00000000000E+00 0.  1.
         21   -1    0    0  501  502 -0.00000000000E+00 -0.00000000000E+00 -0.58048041871E+02  0.58048041871E+02  0.00000000000E+00 0.  1.
      99926    2    1    2    0    0  0.00000000000E+00  0.00000000000E+00  0.77330042551E+03  0.88939650926E+03  0.43935475709E+03 0.  0.
      99925    2    3    3    0    0 -0.58833020677E+02 -0.13077369862E+02  0.64966035272E+03  0.70347524198E+03  0.26303326835E+03 0.  0.
         25    1    3    3    0    0  0.58833020677E+02  0.13077369862E+02  0.12364007279E+03  0.18592126727E+03  0.12509000000E+03 0.  0.
         25    1    4    4    0    0 -0.52030112535E+02 -0.38283705846E+02  0.37457682609E+03  0.40016006983E+03  0.12509000000E+03 0.  0.
         25    1    4    4    0    0 -0.68029081416E+01  0.25206335984E+02  0.27508352663E+03  0.30331517215E+03  0.12509000000E+03 0.  0.
<mgrwt>
<rscale>  2 0.43935476E+03</rscale>
<asrwt>0</asrwt>
<pdfrwt beam="1">  1       21 0.12225712E+00 0.43935476E+03</pdfrwt>
<pdfrwt beam="2">  1       21 0.85364773E-02 0.43935476E+03</pdfrwt>
<totfact> 0.49482845E+04</totfact>
</mgrwt>
</event>
<event>
 7    0  0.4737014E-002  0.4595125E+03  0.7546771E-02  0.1024923E+00
         21   -1    0    0  502  501  0.00000000000E+00  0.00000000000E+00  0.43024032177E+03  0.43024032177E+03  0.00000000000E+00 0.  1.
         21   -1    0    0  501  502 -0.00000000000E+00 -0.00000000000E+00 -0.12269407384E+03  0.12269407384E+03  0.00000000000E+00 0.  1.
      99926    2    1    2    0    0  0.00000000000E+00 -0.71054273576E-14  0.30754624794E+03  0.55293439561E+03  0.45951251477E+03 0.  0.
      99925    2    3    3    0    0 -0.16822642523E+02 -0.52436258064E+02  0.67923281446E+02  0.27707349474E+03  0.26291364906E+03 0.  0.
         25    1    4    4    0    0 -0.45120728276E+02 -0.41120726504E+02  0.25447327664E+02  0.14149865319E+03  0.12509000000E+03 0.  0.
         25    1    4    4    0    0  0.28298085753E+02 -0.11315531559E+02  0.42475953781E+02  0.13557484155E+03  0.12509000000E+03 0.  0.
         25    1    3    3    0    0  0.16822642523E+02  0.52436258064E+02  0.23962296649E+03  0.27586090087E+03  0.12509000000E+03 0.  0.
<mgrwt>
<rscale>  2 0.45951251E+03</rscale>
<asrwt>0</asrwt>
<pdfrwt beam="1">  1       21 0.63270635E-01 0.45951251E+03</pdfrwt>
<pdfrwt beam="2">  1       21 0.18043246E-01 0.45951251E+03</pdfrwt>
<totfact> 0.59519524E+04</totfact>
</mgrwt>
</event>
<event>
 7    0  0.4737014E-002  0.4654186E+03  0.7546771E-02  0.1023221E+00
         21   -1    0    0  502  501  0.00000000000E+00  0.00000000000E+00  0.13088675555E+04  0.13088675555E+04  0.00000000000E+00 0.  1.
         21   -1    0    0  501  502 -0.00000000000E+00 -0.00000000000E+00 -0.41374404984E+02  0.41374404984E+02  0.00000000000E+00 0.  1.
      99926    2    1    2    0    0  0.00000000000E+00  0.26645352591E-14  0.12674931505E+04  0.13502419605E+04  0.46541859143E+03 0.  0.
      99925    2    3    3    0    0  0.36425779795E+02 -0.25751812705E+01  0.11300815734E+04  0.11608668866E+04  0.26304770826E+03 0.  0.
         25    1    3    3    0    0 -0.36425779795E+02  0.25751812705E+01  0.13741157712E+03  0.18937507391E+03  0.12509000000E+03 0.  0.
         25    1    4    4    0    0  0.27291587529E+02 -0.38193340359E+02  0.63507602266E+03  0.64897813881E+03  0.12509000000E+03 0.  0.
         25    1    4    4    0    0  0.91341922659E+01  0.35618159089E+02  0.49500555074E+03  0.51188874777E+03  0.12509000000E+03 0.  0.
<mgrwt>
<rscale>  2 0.46541859E+03</rscale>
<asrwt>0</asrwt>
<pdfrwt beam="1">  1       21 0.19248050E+00 0.46541859E+03</pdfrwt>
<pdfrwt beam="2">  1       21 0.60844722E-02 0.46541859E+03</pdfrwt>
<totfact> 0.25555476E+04</totfact>
</mgrwt>
</event>
<event>
 7    0  0.4737014E-002  0.4542806E+03  0.7546771E-02  0.1026453E+00
         21   -1    0    0  502  501  0.00000000000E+00  0.00000000000E+00  0.74374801692E+02  0.74374801692E+02  0.00000000000E+00 0.  1.
         21   -1    0    0  501  502 -0.00000000000E+00 -0.00000000000E+00 -0.69368551500E+03  0.69368551500E+03  0.00000000000E+00 0.  1.
      99926    2    1    2    0    0  0.71054273576E-14  0.00000000000E+00 -0.61931071331E+03  0.76806031669E+03  0.45428062963E+03 0.  0.
      99925    2    3    3    0    0  0.55920063739E+02  0.82092016357E+02 -0.30066238267E+03  0.41161898997E+03  0.26299462327E+03 0.  0.
         25    1    4    4    0    0  0.35695647238E+02  0.82895199367E+02 -0.17193801004E+03  0.23098913547E+03  0.12509000000E+03 0.  0.
         25    1    4    4    0    0  0.20224416501E+02 -0.80318301001E+00 -0.12872437263E+03  0.18062985449E+03  0.12509000000E+03 0.  0.
         25    1    3    3    0    0 -0.55920063739E+02 -0.82092016357E+02 -0.31864833064E+03  0.35644132673E+03  0.12509000000E+03 0.  0.
<mgrwt>
<rscale>  2 0.45428063E+03</rscale>
<asrwt>0</asrwt>
<pdfrwt beam="1">  1       21 0.10937472E-01 0.45428063E+03</pdfrwt>
<pdfrwt beam="2">  1       21 0.10201257E+00 0.45428063E+03</pdfrwt>
<totfact> 0.49628068E+04</totfact>
</mgrwt>
</event>
<event>
 7    0  0.4737014E-002  0.4515877E+03  0.7546771E-02  0.1027250E+00
         21   -1    0    0  502  501  0.00000000000E+00  0.00000000000E+00  0.77398111787E+02  0.77398111787E+02  0.00000000000E+00 0. -1.
         21   -1    0    0  501  502 -0.00000000000E+00 -0.00000000000E+00 -0.65870931198E+03  0.65870931198E+03  0.00000000000E+00 0. -1.
      99926    2    1    2    0    0  0.00000000000E+00  0.00000000000E+00 -0.58131120019E+03  0.73610742376E+03  0.45158767460E+03 0.  0.
      99925    2    3    3    0    0 -0.47747570024E+02 -0.77173796312E+02 -0.46784943055E+03  0.54438703739E+03  0.26313215603E+03 0.  0.
         25    1    4    4    0    0 -0.35408400176E+02 -0.19658041668E+02 -0.29565546787E+03  0.32357357306E+03  0.12509000000E+03 0.  0.
         25    1    3    3    0    0  0.47747570024E+02  0.77173796312E+02 -0.11346176964E+03  0.19172038637E+03  0.12509000000E+03 0.  0.
         25    1    4    4    0    0 -0.12339169848E+02 -0.57515754643E+02 -0.17219396268E+03  0.22081346433E+03  0.12509000000E+03 0.  0.
<mgrwt>
<rscale>  2 0.45158767E+03</rscale>
<asrwt>0</asrwt>
<pdfrwt beam="1">  1       21 0.11382075E-01 0.45158767E+03</pdfrwt>
<pdfrwt beam="2">  1       21 0.96869017E-01 0.45158767E+03</pdfrwt>
<totfact> 0.52377151E+04</totfact>
</mgrwt>
</event>
<event>
 7    0  0.4737014E-002  0.4581302E+03  0.7546771E-02  0.1025325E+00
         21   -1    0    0  502  501  0.00000000000E+00  0.00000000000E+00  0.11884871220E+03  0.11884871220E+03  0.00000000000E+00 0. -1.
         21   -1    0    0  501  502 -0.00000000000E+00 -0.00000000000E+00 -0.44149262601E+03  0.44149262601E+03  0.00000000000E+00 0. -1.
      99926    2    1    2    0    0 -0.17763568394E-14  0.14210854715E-13 -0.32264391381E+03  0.56034133820E+03  0.45813024369E+03 0.  0.
      99925    2    3    3    0    0  0.13066284402E+02 -0.83208068901E+02 -0.10493084678E+03  0.29550025723E+03  0.26308859515E+03 0.  0.
         25    1    4    4    0    0 -0.15469191721E+02 -0.76878185279E+02 -0.51335854116E+02  0.15630876265E+03  0.12509000000E+03 0.  0.
         25    1    4    4    0    0  0.28535476123E+02 -0.63298836218E+01 -0.53594992669E+02  0.13919149458E+03  0.12509000000E+03 0.  0.
         25    1    3    3    0    0 -0.13066284402E+02  0.83208068901E+02 -0.21771306702E+03  0.26484108097E+03  0.12509000000E+03 0.  0.
<mgrwt>
<rscale>  2 0.45813024E+03</rscale>
<asrwt>0</asrwt>
<pdfrwt beam="1">  1       21 0.17477752E-01 0.45813024E+03</pdfrwt>
<pdfrwt beam="2">  1       21 0.64925387E-01 0.45813024E+03</pdfrwt>
<totfact> 0.59696416E+04</totfact>
</mgrwt>
</event>
<event>
 7    0  0.4737014E-002  0.4647068E+03  0.7546771E-02  0.1023425E+00
         21   -1    0    0  502  501  0.00000000000E+00  0.00000000000E+00  0.19059201961E+03  0.19059201961E+03  0.00000000000E+00 0. -1.
         21   -1    0    0  501  502 -0.00000000000E+00 -0.00000000000E+00 -0.28326529581E+03  0.28326529581E+03  0.00000000000E+00 0. -1.
      99926    2    1    2    0    0  0.00000000000E+00  0.00000000000E+00 -0.92673276198E+02  0.47385731542E+03  0.46470681000E+03 0.  0.
      99925    2    3    3    0    0  0.12145171857E+03  0.32279203365E+01 -0.69270054695E+02  0.29791369295E+03  0.26304617190E+03 0.  0.
         25    1    4    4    0    0  0.18313521144E+02 -0.32073534312E+01 -0.42826247248E+02  0.13351879166E+03  0.12509000000E+03 0.  0.
         25    1    3    3    0    0 -0.12145171857E+03 -0.32279203365E+01 -0.23403221504E+02  0.17594362248E+03  0.12509000000E+03 0.  0.
         25    1    4    4    0    0  0.10313819743E+03  0.64352737677E+01 -0.26443807447E+02  0.16439490129E+03  0.12509000000E+03 0.  0.
<mgrwt>
<rscale>  2 0.46470681E+03</rscale>
<asrwt>0</asrwt>
<pdfrwt beam="1">  1       21 0.28028238E-01 0.46470681E+03</pdfrwt>
<pdfrwt beam="2">  1       21 0.41656661E-01 0.46470681E+03</pdfrwt>
<totfact> 0.62216672E+04</totfact>
</mgrwt>
</event>
<event>
 7    0  0.4737014E-002  0.4584835E+03  0.7546771E-02  0.1025222E+00
         21   -1    0    0  502  501  0.00000000000E+00  0.00000000000E+00  0.47053831746E+03  0.47053831746E+03  0.00000000000E+00 0.  1.
         21   -1    0    0  501  502 -0.00000000000E+00 -0.00000000000E+00 -0.11168440176E+03  0.11168440176E+03  0.00000000000E+00 0.  1.
      99926    2    1    2    0    0  0.71054273576E-14  0.00000000000E+00  0.35885391570E+03  0.58222271921E+03  0.45848354600E+03 0.  0.
      99925    2    3    3    0    0  0.30505327062E+02  0.48026201595E+02  0.96275798358E+02  0.28585830363E+03  0.26307574838E+03 0.  0.
         25    1    4    4    0    0  0.43225583235E+02  0.23359636631E+02  0.80755623987E+02  0.15678999514E+03  0.12509000000E+03 0.  0.
         25    1    4    4    0    0 -0.12720256174E+02  0.24666564964E+02  0.15520174371E+02  0.12906830849E+03  0.12509000000E+03 0.  0.
         25    1    3    3    0    0 -0.30505327062E+02 -0.48026201595E+02  0.26257811734E+03  0.29636441558E+03  0.12509000000E+03 0.  0.
<mgrwt>
<rscale>  2 0.45848355E+03</rscale>
<asrwt>0</asrwt>
<pdfrwt beam="1">  1       21 0.69196811E-01 0.45848355E+03</pdfrwt>
<pdfrwt beam="2">  1       21 0.16424177E-01 0.45848355E+03</pdfrwt>
<totfact> 0.58167590E+04</totfact>
</mgrwt>
</event>
<event>
 7    0  0.4737014E-002  0.4447553E+03  0.7546771E-02  0.1029298E+00
         21   -1    0    0  502  501  0.00000000000E+00  0.00000000000E+00  0.14731786941E+03  0.14731786941E+03  0.00000000000E+00 0.  1.
         21   -1    0    0  501  502 -0.00000000000E+00 -0.00000000000E+00 -0.33568104284E+03  0.33568104284E+03  0.00000000000E+00 0.  1.
      99926    2    1    2    0    0  0.14210854715E-13  0.00000000000E+00 -0.18836317343E+03  0.48299891225E+03  0.44475528566E+03 0.  0.
      99925    2    3    3    0    0  0.84003914577E+02 -0.15147447736E+02 -0.18279341164E+03  0.33145804916E+03  0.26299221315E+03 0.  0.
         25    1    4    4    0    0  0.82067951395E+02  0.46513948030E+01 -0.10453344820E+03  0.18256925812E+03  0.12509000000E+03 0.  0.
         25    1    3    3    0    0 -0.84003914577E+02  0.15147447736E+02 -0.55697617897E+01  0.15154086308E+03  0.12509000000E+03 0.  0.
         25    1    4    4    0    0  0.19359631818E+01 -0.19798842539E+02 -0.78259963440E+02  0.14888879104E+03  0.12509000000E+03 0.  0.
<mgrwt>
<rscale>  2 0.44475529E+03</rscale>
<asrwt>0</asrwt>
<pdfrwt beam="1">  1       21 0.21664393E-01 0.44475529E+03</pdfrwt>
<pdfrwt beam="2">  1       21 0.49364859E-01 0.44475529E+03</pdfrwt>
<totfact> 0.72176240E+04</totfact>
</mgrwt>
</event>
<event>
 7    0  0.4737014E-002  0.4518536E+03  0.7546771E-02  0.1027171E+00
         21   -1    0    0  502  501  0.00000000000E+00  0.00000000000E+00  0.98510666286E+03  0.98510666286E+03  0.00000000000E+00 0. -1.
         21   -1    0    0  501  502 -0.00000000000E+00 -0.00000000000E+00 -0.51814618540E+02  0.51814618540E+02  0.00000000000E+00 0. -1.
      99926    2    1    2    0    0  0.17763568394E-14  0.00000000000E+00  0.93329204432E+03  0.10369212814E+04  0.45185363098E+03 0.  0.
      99925    2    3    3    0    0  0.89004927366E+01  0.54521835726E+02  0.37004823754E+03  0.45731542970E+03  0.26296359976E+03 0.  0.
         25    1    4    4    0    0 -0.30004458261E+02  0.48171213527E+02  0.18075046012E+03  0.22702195987E+03  0.12509000000E+03 0.  0.
         25    1    3    3    0    0 -0.89004927366E+01 -0.54521835726E+02  0.56324380678E+03  0.57960585170E+03  0.12509000000E+03 0.  0.
         25    1    4    4    0    0  0.38904950998E+02  0.63506221992E+01  0.18929777741E+03  0.23029346983E+03  0.12509000000E+03 0.  0.
<mgrwt>
<rscale>  2 0.45185363E+03</rscale>
<asrwt>0</asrwt>
<pdfrwt beam="1">  1       21 0.14486862E+00 0.45185363E+03</pdfrwt>
<pdfrwt beam="2">  1       21 0.76197974E-02 0.45185363E+03</pdfrwt>
<totfact> 0.38702883E+04</totfact>
</mgrwt>
</event>
<event>
 7    0  0.4737014E-002  0.4382911E+03  0.7546771E-02  0.1031272E+00
         21   -1    0    0  502  501  0.00000000000E+00  0.00000000000E+00  0.27712418828E+03  0.27712418828E+03  0.00000000000E+00 0. -1.
         21   -1    0    0  501  502 -0.00000000000E+00 -0.00000000000E+00 -0.17329695213E+03  0.17329695213E+03  0.00000000000E+00 0. -1.
      99926    2    1    2    0    0  0.00000000000E+00  0.35527136788E-14  0.10382723615E+03  0.45042114041E+03  0.43829112330E+03 0.  0.
      99925    2    3    3    0    0  0.35376629273E+02  0.13731907716E+02 -0.24853652439E+02  0.26699172516E+03  0.26310987454E+03 0.  0.
         25    1    4    4    0    0 -0.98920198827E+01 -0.22167947155E+02 -0.21053923412E+02  0.12915125137E+03  0.12509000000E+03 0.  0.
         25    1    4    4    0    0  0.45268649156E+02  0.35899854871E+02 -0.37997290269E+01  0.13784047380E+03  0.12509000000E+03 0.  0.
         25    1    3    3    0    0 -0.35376629273E+02 -0.13731907716E+02  0.12868088859E+03  0.18342941524E+03  0.12509000000E+03 0.  0.
<mgrwt>
<rscale>  2 0.43829112E+03</rscale>
<asrwt>0</asrwt>
<pdfrwt beam="1">  1       21 0.40753557E-01 0.43829112E+03</pdfrwt>
<pdfrwt beam="2">  1       21 0.25484846E-01 0.43829112E+03</pdfrwt>
<totfact> 0.78865286E+04</totfact>
</mgrwt>
</event>
<event>
 7    0  0.4737014E-002  0.4599509E+03  0.7546771E-02  0.1024795E+00
         21   -1    0    0  502  501  0.00000000000E+00  0.00000000000E+00  0.73862224270E+03  0.73862224270E+03  0.00000000000E+00 0.  1.
         21   -1    0    0  501  502 -0.00000000000E+00 -0.00000000000E+00 -0.71604552229E+02  0.71604552229E+02  0.00000000000E+00 0.  1.
      99926    2    1    2    0    0  0.00000000000E+00 -0.71054273576E-14  0.66701769047E+03  0.81022679492E+03  0.45995093197E+03 0.  0.
      99925    2    3    3    0    0  0.71956937912E+02 -0.54526013277E+02  0.55108981848E+03  0.61725615819E+03  0.26297203227E+03 0.  0.
         25    1    4    4    0    0  0.11475838950E+02 -0.35348613700E+01  0.19943912060E+03  0.23572793863E+03  0.12509000000E+03 0.  0.
         25    1    3    3    0    0 -0.71956937912E+02  0.54526013277E+02  0.11592787199E+03  0.19297063673E+03  0.12509000000E+03 0.  0.
         25    1    4    4    0    0  0.60481098961E+02 -0.50991151907E+02  0.35165069788E+03  0.38152821956E+03  0.12509000000E+03 0.  0.
<mgrwt>
<rscale>  2 0.45995093E+03</rscale>
<asrwt>0</asrwt>
<pdfrwt beam="1">  1       21 0.10862091E+00 0.45995093E+03</pdfrwt>
<pdfrwt beam="2">  1       21 0.10530082E-01 0.45995093E+03</pdfrwt>
<totfact> 0.45481224E+04</totfact>
</mgrwt>
</event>
<event>
 7    0  0.4737014E-002  0.4257722E+03  0.7546771E-02  0.1035204E+00
         21   -1    0    0  502  501  0.00000000000E+00  0.00000000000E+00  0.30741029321E+02  0.30741029321E+02  0.00000000000E+00 0. -1.
         21   -1    0    0  501  502 -0.00000000000E+00 -0.00000000000E+00 -0.14742673430E+04  0.14742673430E+04  0.00000000000E+00 0. -1.
      99926    2    1    2    0    0 -0.35527136788E-14  0.00000000000E+00 -0.14435263137E+04  0.15050083724E+04  0.42577221900E+03 0.  0.
      99925    2    3    3    0    0 -0.25927513158E+02 -0.75057321651E+02 -0.85168751743E+03  0.89490468743E+03  0.26301508467E+03 0.  0.
         25    1    3    3    0    0  0.25927513158E+02  0.75057321651E+02 -0.59183879628E+03  0.61010368492E+03  0.12509000000E+03 0.  0.
         25    1    4    4    0    0 -0.17101549123E+02 -0.11137120198E+02 -0.50665106134E+03  0.52226363504E+03  0.12509000000E+03 0.  0.
         25    1    4    4    0    0 -0.88259640354E+01 -0.63920201453E+02 -0.34503645609E+03  0.37264105239E+03  0.12509000000E+03 0.  0.
<mgrwt>
<rscale>  2 0.42577222E+03</rscale>
<asrwt>0</asrwt>
<pdfrwt beam="1">  1       21 0.45207387E-02 0.42577222E+03</pdfrwt>
<pdfrwt beam="2">  1       21 0.21680407E+00 0.42577222E+03</pdfrwt>
<totfact> 0.29887937E+04</totfact>
</mgrwt>
</event>
<event>
 7    0  0.4737014E-002  0.4591673E+03  0.7546771E-02  0.1025023E+00
         21   -1    0    0  502  501  0.00000000000E+00  0.00000000000E+00  0.97970367596E+03  0.97970367596E+03  0.00000000000E+00 0. -1.
         21   -1    0    0  501  502 -0.00000000000E+00 -0.00000000000E+00 -0.53800607438E+02  0.53800607438E+02  0.00000000000E+00 0. -1.
      99926    2    1    2    0    0  0.00000000000E+00  0.14210854715E-13  0.92590306852E+03  0.10335042834E+04  0.45916730230E+03 0.  0.
      99925    2    3    3    0    0  0.13017411440E+02 -0.11609333168E+03  0.59861466305E+03  0.66416389417E+03  0.26292023284E+03 0.  0.
         25    1    4    4    0    0 -0.16215779365E+02 -0.67372042186E+02  0.37938550282E+03  0.40544150185E+03  0.12509000000E+03 0.  0.
         25    1    3    3    0    0 -0.13017411440E+02  0.11609333168E+03  0.32728840546E+03  0.36934038922E+03  0.12509000000E+03 0.  0.
         25    1    4    4    0    0  0.29233190805E+02 -0.48721289490E+02  0.21922916023E+03  0.25872239233E+03  0.12509000000E+03 0.  0.
<mgrwt>
<rscale>  2 0.45916730E+03</rscale>
<asrwt>0</asrwt>
<pdfrwt beam="1">  1       21 0.14407406E+00 0.45916730E+03</pdfrwt>
<pdfrwt beam="2">  1       21 0.79118546E-02 0.45916730E+03</pdfrwt>
<totfact> 0.36680629E+04</totfact>
</mgrwt>
</event>
<event>
 7    0  0.4737014E-002  0.4571019E+03  0.7546771E-02  0.1025625E+00
         21   -1    0    0  502  501  0.00000000000E+00  0.00000000000E+00  0.92678116694E+02  0.92678116694E+02  0.00000000000E+00 0.  1.
         21   -1    0    0  501  502 -0.00000000000E+00 -0.00000000000E+00 -0.56362317901E+03  0.56362317901E+03  0.00000000000E+00 0.  1.
      99926    2    1    2    0    0  0.00000000000E+00  0.00000000000E+00 -0.47094506231E+03  0.65630129570E+03  0.45710189129E+03 0.  0.
      99925    2    3    3    0    0 -0.10189585243E+03  0.53856809432E+02 -0.30124098267E+03  0.41602998361E+03  0.26277651523E+03 0.  0.
         25    1    4    4    0    0 -0.29682954078E+02 -0.10095093078E+02 -0.13301835192E+03  0.18526839643E+03  0.12509000000E+03 0.  0.
         25    1    3    3    0    0  0.10189585243E+03 -0.53856809432E+02 -0.16970407964E+03  0.24027131209E+03  0.12509000000E+03 0.  0.
         25    1    4    4    0    0 -0.72212898355E+02  0.63951902510E+02 -0.16822263075E+03  0.23076158718E+03  0.12509000000E+03 0.  0.
<mgrwt>
<rscale>  2 0.45710189E+03</rscale>
<asrwt>0</asrwt>
<pdfrwt beam="1">  1       21 0.13629135E-01 0.45710189E+03</pdfrwt>
<pdfrwt beam="2">  1       21 0.82885761E-01 0.45710189E+03</pdfrwt>
<totfact> 0.54431899E+04</totfact>
</mgrwt>
</event>
<event>
 7    0  0.4737014E-002  0.4521258E+03  0.7546771E-02  0.1027090E+00
         21   -1    0    0  502  501  0.00000000000E+00  0.00000000000E+00  0.26170380127E+03  0.26170380127E+03  0.00000000000E+00 0.  1.
         21   -1    0    0  501  502 -0.00000000000E+00 -0.00000000000E+00 -0.19527583700E+03  0.19527583700E+03  0.00000000000E+00 0.  1.
      99926    2    1    2    0    0  0.00000000000E+00  0.00000000000E+00  0.66427964276E+02  0.45697963827E+03  0.45212577383E+03 0.  0.
      99925    2    3    3    0    0 -0.20138236866E+02 -0.97960070824E+02 -0.52685208941E+01  0.28150993107E+03  0.26309382341E+03 0.  0.
         25    1    4    4    0    0 -0.39885025627E+02 -0.79351458561E+02 -0.55290964444E+01  0.15351074312E+03  0.12509000000E+03 0.  0.
         25    1    4    4    0    0  0.19746788760E+02 -0.18608612263E+02  0.26057555036E+00  0.12799918795E+03  0.12509000000E+03 0.  0.
         25    1    3    3    0    0  0.20138236866E+02  0.97960070824E+02  0.71696485171E+02  0.17546970720E+03  0.12509000000E+03 0.  0.
<mgrwt>
<rscale>  2 0.45212577E+03</rscale>
<asrwt>0</asrwt>
<pdfrwt beam="1">  1       21 0.38485853E-01 0.45212577E+03</pdfrwt>
<pdfrwt beam="2">  1       21 0.28717035E-01 0.45212577E+03</pdfrwt>
<totfact> 0.69991831E+04</totfact>
</mgrwt>
</event>
<event>
 7    0  0.4737014E-002  0.4490727E+03  0.7546771E-02  0.1027999E+00
         21   -1    0    0  502  501  0.00000000000E+00  0.00000000000E+00  0.80511071084E+03  0.80511071084E+03  0.00000000000E+00 0. -1.
         21   -1    0    0  501  502 -0.00000000000E+00 -0.00000000000E+00 -0.62620678247E+02  0.62620678247E+02  0.00000000000E+00 0. -1.
      99926    2    1    2    0    0  0.00000000000E+00  0.00000000000E+00  0.74249003259E+03  0.86773138909E+03  0.44907272808E+03 0.  0.
      99925    2    3    3    0    0 -0.93580499430E+02  0.44070541473E+02  0.52690857113E+03  0.59787513638E+03  0.26291160847E+03 0.  0.
         25    1    3    3    0    0  0.93580499430E+02 -0.44070541473E+02  0.21558146146E+03  0.26985625270E+03  0.12509000000E+03 0.  0.
         25    1    4    4    0    0 -0.60358623225E+02  0.59710968595E+02  0.30757613740E+03  0.34272314128E+03  0.12509000000E+03 0.  0.
         25    1    4    4    0    0 -0.33221876205E+02 -0.15640427121E+02  0.21933243373E+03  0.25515199510E+03  0.12509000000E+03 0.  0.
<mgrwt>
<rscale>  2 0.44907273E+03</rscale>
<asrwt>0</asrwt>
<pdfrwt beam="1">  1       21 0.11839863E+00 0.44907273E+03</pdfrwt>
<pdfrwt beam="2">  1       21 0.92089237E-02 0.44907273E+03</pdfrwt>
<totfact> 0.46793428E+04</totfact>
</mgrwt>
</event>
<event>
 7    0  0.4737014E-002  0.4635645E+03  0.7546771E-02  0.1023752E+00
         21   -1    0    0  502  501  0.00000000000E+00  0.00000000000E+00  0.34529419081E+02  0.34529419081E+02  0.00000000000E+00 0. -1.
         21   -1    0    0  501  502 -0.00000000000E+00 -0.00000000000E+00 -0.15558622904E+04  0.15558622904E+04  0.00000000000E+00 0. -1.
      99926    2    1    2    0    0  0.00000000000E+00  0.00000000000E+00 -0.15213328713E+04  0.15903917094E+04  0.46356454159E+03 0.  0.
      99925    2    3    3    0    0  0.10813261017E+03  0.24688782612E+02 -0.11149087209E+04  0.11509257887E+04  0.26326131090E+03 0.  0.
         25    1    4    4    0    0  0.46923474799E+02 -0.18718430875E+02 -0.43042528124E+03  0.45107163841E+03  0.12509000000E+03 0.  0.
         25    1    3    3    0    0 -0.10813261017E+03 -0.24688782612E+02 -0.40642415037E+03  0.43946592072E+03  0.12509000000E+03 0.  0.
         25    1    4    4    0    0  0.61209135373E+02  0.43407213487E+02 -0.68448343966E+03  0.69985415031E+03  0.12509000000E+03 0.  0.
<mgrwt>
<rscale>  2 0.46356454E+03</rscale>
<asrwt>0</asrwt>
<pdfrwt beam="1">  1       21 0.50778549E-02 0.46356454E+03</pdfrwt>
<pdfrwt beam="2">  1       21 0.22880332E+00 0.46356454E+03</pdfrwt>
<totfact> 0.20266124E+04</totfact>
</mgrwt>
</event>
<event>
 7    0  0.4737014E-002  0.4609897E+03  0.7546771E-02  0.1024495E+00
         21   -1    0    0  502  501  0.00000000000E+00  0.00000000000E+00  0.81941325516E+02  0.81941325516E+02  0.00000000000E+00 0.  1.
         21   -1    0    0  501  502 -0.00000000000E+00 -0.00000000000E+00 -0.64836499605E+03  0.64836499605E+03  0.00000000000E+00 0.  1.
      99926    2    1    2    0    0  0.35527136788E-14  0.00000000000E+00 -0.56642367054E+03  0.73030632157E+03  0.46098974910E+03 0.  0.
      99925    2    3    3    0    0  0.29556046029E+02 -0.89096797343E+02 -0.23953959804E+03  0.36793564932E+03  0.26303160240E+03 0.  0.
         25    1    4    4    0    0 -0.22864690467E+02 -0.48450905971E+02 -0.97694536430E+02  0.16751720780E+03  0.12509000000E+03 0.  0.
         25    1    3    3    0    0 -0.29556046029E+02  0.89096797343E+02 -0.32688407249E+03  0.36237067224E+03  0.12509000000E+03 0.  0.
         25    1    4    4    0    0  0.52420736496E+02 -0.40645891372E+02 -0.14184506161E+03  0.20041844153E+03  0.12509000000E+03 0.  0.
<mgrwt>
<rscale>  2 0.46098975E+03</rscale>
<asrwt>0</asrwt>
<pdfrwt beam="1">  1       21 0.12050195E-01 0.46098975E+03</pdfrwt>
<pdfrwt beam="2">  1       21 0.95347791E-01 0.46098975E+03</pdfrwt>
<totfact> 0.48941988E+04</totfact>
</mgrwt>
</event>
<event>
 7    0  0.4737014E-002  0.4570604E+03  0.7546771E-02  0.1025637E+00
         21   -1    0    0  502  501  0.00000000000E+00  0.00000000000E+00  0.96765436445E+02  0.96765436445E+02  0.00000000000E+00 0.  1.
         21   -1    0    0  501  502 -0.00000000000E+00 -0.00000000000E+00 -0.53971795206E+03  0.53971795206E+03  0.00000000000E+00 0.  1.
      99926    2    1    2    0    0  0.00000000000E+00  0.00000000000E+00 -0.44295251562E+03  0.63648338851E+03  0.45706036008E+03 0.  0.
      99925    2    3    3    0    0  0.76875169568E+02 -0.84653743083E+02 -0.29384641278E+03  0.41074861955E+03  0.26323500193E+03 0.  0.
         25    1    3    3    0    0 -0.76875169568E+02  0.84653743083E+02 -0.14910610283E+03  0.22573476896E+03  0.12509000000E+03 0.  0.
         25    1    4    4    0    0  0.93968387325E+01 -0.43504014227E+02 -0.18191781938E+03  0.22521656453E+03  0.12509000000E+03 0.  0.
         25    1    4    4    0    0  0.67478330836E+02 -0.41149728856E+02 -0.11192859341E+03  0.18553205502E+03  0.12509000000E+03 0.  0.
<mgrwt>
<rscale>  2 0.45706036E+03</rscale>
<asrwt>0</asrwt>
<pdfrwt beam="1">  1       21 0.14230211E-01 0.45706036E+03</pdfrwt>
<pdfrwt beam="2">  1       21 0.79370289E-01 0.45706036E+03</pdfrwt>
<totfact> 0.55577670E+04</totfact>
</mgrwt>
</event>
<event>
 7    0  0.4737014E-002  0.4623729E+03  0.7546771E-02  0.1024095E+00
         21   -1    0    0  502  501  0.00000000000E+00  0.00000000000E+00  0.60870317591E+03  0.60870317591E+03  0.00000000000E+00 0. -1.
         21   -1    0    0  501  502 -0.00000000000E+00 -0.00000000000E+00 -0.87804969770E+02  0.87804969770E+02  0.00000000000E+00 0. -1.
      99926    2    1    2    0    0  0.00000000000E+00  0.00000000000E+00  0.52089820614E+03  0.69650814568E+03  0.46237285370E+03 0.  0.
      99925    2    3    3    0    0 -0.35879642791E+02  0.22441856165E+02  0.15642626231E+03  0.30885070462E+03  0.26292317609E+03 0.  0.
         25    1    4    4    0    0 -0.54050387606E+02 -0.50180651415E+01  0.69946558139E+02  0.15325356268E+03  0.12509000000E+03 0.  0.
         25    1    4    4    0    0  0.18170744814E+02  0.27459921307E+02  0.86479704174E+02  0.15559714194E+03  0.12509000000E+03 0.  0.
         25    1    3    3    0    0  0.35879642791E+02 -0.22441856165E+02  0.36447194382E+03  0.38765744106E+03  0.12509000000E+03 0.  0.
<mgrwt>
<rscale>  2 0.46237285E+03</rscale>
<asrwt>0</asrwt>
<pdfrwt beam="1">  1       21 0.89515171E-01 0.46237285E+03</pdfrwt>
<pdfrwt beam="2">  1       21 0.12912496E-01 0.46237285E+03</pdfrwt>
<totfact> 0.50120529E+04</totfact>
</mgrwt>
</event>
<event>
 7    0  0.4737014E-002  0.4786691E+03  0.7546771E-02  0.1019502E+00
         21   -1    0    0  502  501  0.00000000000E+00  0.00000000000E+00  0.40197243525E+03  0.40197243525E+03  0.00000000000E+00 0. -1.
         21   -1    0    0  501  502 -0.00000000000E+00 -0.00000000000E+00 -0.14249989341E+03  0.14249989341E+03  0.00000000000E+00 0. -1.
      99926    2    1    2    0    0  0.00000000000E+00  0.00000000000E+00  0.25947254184E+03  0.54447232866E+03  0.47866910983E+03 0.  0.
      99925    2    3    3    0    0  0.16299164400E+02  0.90859165108E+02  0.27014991819E+03  0.38864368845E+03  0.26370795898E+03 0.  0.
         25    1    3    3    0    0 -0.16299164400E+02 -0.90859165108E+02 -0.10677376342E+02  0.15582864021E+03  0.12509000000E+03 0.  0.
         25    1    4    4    0    0  0.25020186744E+02  0.30992536293E+02  0.18083718399E+03  0.22346396189E+03  0.12509000000E+03 0.  0.
         25    1    4    4    0    0 -0.87210223437E+01  0.59866628814E+02  0.89312734195E+02  0.16517972656E+03  0.12509000000E+03 0.  0.
<mgrwt>
<rscale>  2 0.47866911E+03</rscale>
<asrwt>0</asrwt>
<pdfrwt beam="1">  1       21 0.59113593E-01 0.47866911E+03</pdfrwt>
<pdfrwt beam="2">  1       21 0.20955867E-01 0.47866911E+03</pdfrwt>
<totfact> 0.51813208E+04</totfact>
</mgrwt>
</event>
<event>
 7    0  0.4737014E-002  0.4475489E+03  0.7546771E-02  0.1028456E+00
         21   -1    0    0  502  501  0.00000000000E+00  0.00000000000E+00  0.11409143536E+04  0.11409143536E+04  0.00000000000E+00 0. -1.
         21   -1    0    0  501  502 -0.00000000000E+00 -0.00000000000E+00 -0.43890244445E+02  0.43890244445E+02  0.00000000000E+00 0. -1.
      99926    2    1    2    0    0  0.00000000000E+00  0.00000000000E+00  0.10970241091E+04  0.11848045980E+04  0.44754892412E+03 0.  0.
      99925    2    3    3    0    0  0.41732785331E+02 -0.54015925938E+01  0.43515498774E+03  0.50990531329E+03  0.26243620672E+03 0.  0.
         25    1    4    4    0    0  0.26399511371E+01 -0.36030707401E+02  0.19192886171E+03  0.23192537005E+03  0.12509000000E+03 0.  0.
         25    1    4    4    0    0  0.39092834194E+02  0.30629114808E+02  0.24322612603E+03  0.27797994324E+03  0.12509000000E+03 0.  0.
         25    1    3    3    0    0 -0.41732785331E+02  0.54015925938E+01  0.66186912141E+03  0.67489928475E+03  0.12509000000E+03 0.  0.
<mgrwt>
<rscale>  2 0.44754892E+03</rscale>
<asrwt>0</asrwt>
<pdfrwt beam="1">  1       21 0.16778150E+00 0.44754892E+03</pdfrwt>
<pdfrwt beam="2">  1       21 0.64544485E-02 0.44754892E+03</pdfrwt>
<totfact> 0.34607075E+04</totfact>
</mgrwt>
</event>
<event>
 7    0  0.4737014E-002  0.4538550E+03  0.7546771E-02  0.1026579E+00
         21   -1    0    0  502  501  0.00000000000E+00  0.00000000000E+00  0.62146495226E+03  0.62146495226E+03  0.00000000000E+00 0. -1.
         21   -1    0    0  501  502 -0.00000000000E+00 -0.00000000000E+00 -0.82862409156E+02  0.82862409156E+02  0.00000000000E+00 0. -1.
      99926    2    1    2    0    0  0.00000000000E+00  0.00000000000E+00  0.53860254310E+03  0.70432736141E+03  0.45385496868E+03 0.  0.
      99925    2    3    3    0    0 -0.55512029180E+02  0.97173775580E+02  0.34950393663E+03  0.45148330055E+03  0.26298258671E+03 0.  0.
         25    1    4    4    0    0 -0.38851727895E+02  0.89245641784E+02  0.17687743862E+03  0.23750237416E+03  0.12509000000E+03 0.  0.
         25    1    4    4    0    0 -0.16660301285E+02  0.79281337963E+01  0.17262649802E+03  0.21398092640E+03  0.12509000000E+03 0.  0.
         25    1    3    3    0    0  0.55512029180E+02 -0.97173775580E+02  0.18909860646E+03  0.25284406086E+03  0.12509000000E+03 0.  0.
<mgrwt>
<rscale>  2 0.45385497E+03</rscale>
<asrwt>0</asrwt>
<pdfrwt beam="1">  1       21 0.91391902E-01 0.45385497E+03</pdfrwt>
<pdfrwt beam="2">  1       21 0.12185649E-01 0.45385497E+03</pdfrwt>
<totfact> 0.53145868E+04</totfact>
</mgrwt>
</event>
<event>
 7    0  0.4737014E-002  0.4502260E+03  0.7546771E-02  0.1027655E+00
         21   -1    0    0  502  501  0.00000000000E+00  0.00000000000E+00  0.79395245652E+02  0.79395245652E+02  0.00000000000E+00 0.  1.
         21   -1    0    0  501  502 -0.00000000000E+00 -0.00000000000E+00 -0.63827331862E+03  0.63827331862E+03  0.00000000000E+00 0.  1.
      99926    2    1    2    0    0  0.00000000000E+00  0.00000000000E+00 -0.55887807297E+03  0.71766856427E+03  0.45022601846E+03 0.  0.
      99925    2    3    3    0    0  0.98378217352E+02  0.35219998684E+02 -0.40090213548E+03  0.49068260241E+03  0.26292236900E+03 0.  0.
         25    1    4    4    0    0  0.63738347805E+02  0.22993495477E+02 -0.27407723619E+03  0.30879947751E+03  0.12509000000E+03 0.  0.
         25    1    4    4    0    0  0.34639869547E+02  0.12226503207E+02 -0.12682489929E+03  0.18188312490E+03  0.12509000000E+03 0.  0.
         25    1    3    3    0    0 -0.98378217352E+02 -0.35219998684E+02 -0.15797593750E+03  0.22698596187E+03  0.12509000000E+03 0.  0.
<mgrwt>
<rscale>  2 0.45022602E+03</rscale>
<asrwt>0</asrwt>
<pdfrwt beam="1">  1       21 0.11675771E-01 0.45022602E+03</pdfrwt>
<pdfrwt beam="2">  1       21 0.93863725E-01 0.45022602E+03</pdfrwt>
<totfact> 0.53951819E+04</totfact>
</mgrwt>
</event>
<event>
 7    0  0.4737014E-002  0.4598439E+03  0.7546771E-02  0.1024827E+00
         21   -1    0    0  502  501  0.00000000000E+00  0.00000000000E+00  0.70448274747E+02  0.70448274747E+02  0.00000000000E+00 0.  1.
         21   -1    0    0  501  502 -0.00000000000E+00 -0.00000000000E+00 -0.75039592617E+03  0.75039592617E+03  0.00000000000E+00 0.  1.
      99926    2    1    2    0    0  0.00000000000E+00 -0.71054273576E-14 -0.67994765142E+03  0.82084420092E+03  0.45984387949E+03 0.  0.
      99925    2    3    3    0    0 -0.99393272974E+02  0.60949889252E+02 -0.45422420578E+03  0.53766140884E+03  0.26299477131E+03 0.  0.
         25    1    4    4    0    0 -0.42666022383E+02 -0.39501785369E+01 -0.16980035579E+03  0.21521073928E+03  0.12509000000E+03 0.  0.
         25    1    4    4    0    0 -0.56727250590E+02  0.64900067789E+02 -0.28442384999E+03  0.32245066956E+03  0.12509000000E+03 0.  0.
         25    1    3    3    0    0  0.99393272974E+02 -0.60949889252E+02 -0.22572344565E+03  0.28318279207E+03  0.12509000000E+03 0.  0.
<mgrwt>
<rscale>  2 0.45984388E+03</rscale>
<asrwt>0</asrwt>
<pdfrwt beam="1">  1       21 0.10360040E-01 0.45984388E+03</pdfrwt>
<pdfrwt beam="2">  1       21 0.11035235E+00 0.45984388E+03</pdfrwt>
<totfact> 0.45036756E+04</totfact>
</mgrwt>
</event>
<event>
 6    0  0.4737014E-002  0.4524284E+03  0.7546771E-02  0.1027000E+00
         21   -1    0    0  502  501  0.00000000000E+00  0.00000000000E+00  0.45323227759E+02  0.45323227759E+02  0.00000000000E+00 0.  1.
         21   -1    0    0  501  502 -0.00000000000E+00 -0.00000000000E+00 -0.11290649420E+04  0.11290649420E+04  0.00000000000E+00 0.  1.
      99926    2    1    2    0    0  0.00000000000E+00 -0.35527136788E-14 -0.10837417143E+04  0.11743881698E+04  0.45242841433E+03 0.  0.
         25    1    3    3    0    0 -0.40813490709E+02  0.19601335944E+02 -0.47397070109E+03  0.49228618403E+03  0.12509000000E+03 0.  0.
         25    1    3    3    0    0 -0.47129724019E+02 -0.41946313566E+02 -0.38177282493E+03  0.40666780308E+03  0.12509000000E+03 0.  0.
         25    1    3    3    0    0  0.87943214728E+02  0.22344977622E+02 -0.22799818825E+03  0.27543418268E+03  0.12509000000E+03 0.  0.
<mgrwt>
<rscale>  2 0.45242841E+03</rscale>
<asrwt>0</asrwt>
<pdfrwt beam="1">  1       21 0.66651809E-02 0.45242841E+03</pdfrwt>
<pdfrwt beam="2">  1       21 0.16603895E+00 0.45242841E+03</pdfrwt>
<totfact> 0.33647621E+04</totfact>
</mgrwt>
</event>
<event>
 7    0  0.4737014E-002  0.4532920E+03  0.7546771E-02  0.1026745E+00
         21   -1    0    0  502  501  0.00000000000E+00  0.00000000000E+00  0.67169729728E+03  0.67169729728E+03  0.00000000000E+00 0.  1.
         21   -1    0    0  501  502 -0.00000000000E+00 -0.00000000000E+00 -0.76475541129E+02  0.76475541129E+02  0.00000000000E+00 0.  1.
      99926    2    1    2    0    0  0.00000000000E+00  0.00000000000E+00  0.59522175615E+03  0.74817283841E+03  0.45329202192E+03 0.  0.
      99925    2    3    3    0    0 -0.67640976006E+02  0.88560111056E+02  0.36512506438E+03  0.46354994655E+03  0.26295255352E+03 0.  0.
         25    1    4    4    0    0 -0.65063649905E+02  0.70484404810E+02  0.22630794509E+03  0.27579725156E+03  0.12509000000E+03 0.  0.
         25    1    3    3    0    0  0.67640976006E+02 -0.88560111056E+02  0.23009669177E+03  0.28462289186E+03  0.12509000000E+03 0.  0.
         25    1    4    4    0    0 -0.25773261008E+01  0.18075706246E+02  0.13881711929E+03  0.18775269498E+03  0.12509000000E+03 0.  0.
<mgrwt>
<rscale>  2 0.45329202E+03</rscale>
<asrwt>0</asrwt>
<pdfrwt beam="1">  1       21 0.98779011E-01 0.45329202E+03</pdfrwt>
<pdfrwt beam="2">  1       21 0.11246403E-01 0.45329202E+03</pdfrwt>
<totfact> 0.51046111E+04</totfact>
</mgrwt>
</event>
<event>
 7    0  0.4737014E-002  0.4646596E+03  0.7546771E-02  0.1023438E+00
         21   -1    0    0  502  501  0.00000000000E+00  0.00000000000E+00  0.20219426673E+03  0.20219426673E+03  0.00000000000E+00 0.  1.
         21   -1    0    0  501  502 -0.00000000000E+00 -0.00000000000E+00 -0.26695681585E+03  0.26695681585E+03  0.00000000000E+00 0.  1.
      99926    2    1    2    0    0  0.71054273576E-14  0.71054273576E-14 -0.64762549121E+02  0.46915108258E+03  0.46465960715E+03 0.  0.
      99925    2    3    3    0    0 -0.41916055365E+02 -0.60166725889E+02  0.58097024351E+02  0.27910115889E+03  0.26295475286E+03 0.  0.
         25    1    4    4    0    0  0.61551687657E+01 -0.60225558413E+02  0.30727047812E+02  0.14232590613E+03  0.12509000000E+03 0.  0.
         25    1    3    3    0    0  0.41916055365E+02  0.60166725889E+02 -0.12285957347E+03  0.19004992369E+03  0.12509000000E+03 0.  0.
         25    1    4    4    0    0 -0.48071224130E+02  0.58832523765E-01  0.27369976539E+02  0.13677525276E+03  0.12509000000E+03 0.  0.
<mgrwt>
<rscale>  2 0.46465961E+03</rscale>
<asrwt>0</asrwt>
<pdfrwt beam="1">  1       21 0.29734451E-01 0.46465961E+03</pdfrwt>
<pdfrwt beam="2">  1       21 0.39258355E-01 0.46465961E+03</pdfrwt>
<totfact> 0.62558939E+04</totfact>
</mgrwt>
</event>
<event>
 7    0  0.4737014E-002  0.4417484E+03  0.7546771E-02  0.1030212E+00
         21   -1    0    0  502  501  0.00000000000E+00  0.00000000000E+00  0.82520940194E+02  0.82520940194E+02  0.00000000000E+00 0.  1.
         21   -1    0    0  501  502 -0.00000000000E+00 -0.00000000000E+00 -0.59118827723E+03  0.59118827723E+03  0.00000000000E+00 0.  1.
      99926    2    1    2    0    0  0.35527136788E-14  0.00000000000E+00 -0.50866733704E+03  0.67370921743E+03  0.44174840110E+03 0.  0.
      99925    2    3    3    0    0  0.47225466917E+01 -0.22097396487E+02 -0.47295886623E+03  0.54167437215E+03  0.26307876943E+03 0.  0.
         25    1    4    4    0    0  0.40976428619E+02  0.14353782019E+01 -0.24173551067E+03  0.27525387051E+03  0.12509000000E+03 0.  0.
         25    1    3    3    0    0 -0.47225466917E+01  0.22097396487E+02 -0.35708470812E+02  0.13203484527E+03  0.12509000000E+03 0.  0.
         25    1    4    4    0    0 -0.36253881927E+02 -0.23532774689E+02 -0.23122335556E+03  0.26642050164E+03  0.12509000000E+03 0.  0.
<mgrwt>
<rscale>  2 0.44174840E+03</rscale>
<asrwt>0</asrwt>
<pdfrwt beam="1">  1       21 0.12135433E-01 0.44174840E+03</pdfrwt>
<pdfrwt beam="2">  1       21 0.86939448E-01 0.44174840E+03</pdfrwt>
<totfact> 0.60417071E+04</totfact>
</mgrwt>
</event>
<event>
 7    0  0.4737014E-002  0.4577219E+03  0.7546771E-02  0.1025444E+00
         21   -1    0    0  502  501  0.00000000000E+00  0.00000000000E+00  0.11715304541E+03  0.11715304541E+03  0.00000000000E+00 0.  1.
         21   -1    0    0  501  502 -0.00000000000E+00 -0.00000000000E+00 -0.44708469111E+03  0.44708469111E+03  0.00000000000E+00 0.  1.
      99926    2    1    2    0    0  0.17763568394E-14  0.00000000000E+00 -0.32993164570E+03  0.56423773652E+03  0.45772189425E+03 0.  0.
      99925    2    3    3    0    0  0.11601391118E+02  0.11309611508E+03 -0.18512259723E+03  0.34165630840E+03  0.26369173961E+03 0.  0.
         25    1    4    4    0    0 -0.71609315465E+01  0.98268483461E+02 -0.92155742609E+02  0.18397870197E+03  0.12509000000E+03 0.  0.
         25    1    3    3    0    0 -0.11601391118E+02 -0.11309611508E+03 -0.14480904848E+03  0.22258142812E+03  0.12509000000E+03 0.  0.
         25    1    4    4    0    0  0.18762322665E+02  0.14827631621E+02 -0.92966854620E+02  0.15767760643E+03  0.12509000000E+03 0.  0.
<mgrwt>
<rscale>  2 0.45772189E+03</rscale>
<asrwt>0</asrwt>
<pdfrwt beam="1">  1       21 0.17228389E-01 0.45772189E+03</pdfrwt>
<pdfrwt beam="2">  1       21 0.65747748E-01 0.45772189E+03</pdfrwt>
<totfact> 0.59641022E+04</totfact>
</mgrwt>
</event>
<event>
 7    0  0.4737014E-002  0.4532523E+03  0.7546771E-02  0.1026757E+00
         21   -1    0    0  502  501  0.00000000000E+00  0.00000000000E+00  0.53624478565E+03  0.53624478565E+03  0.00000000000E+00 0. -1.
         21   -1    0    0  501  502 -0.00000000000E+00 -0.00000000000E+00 -0.95776053125E+02  0.95776053125E+02  0.00000000000E+00 0. -1.
      99926    2    1    2    0    0  0.00000000000E+00 -0.35527136788E-14  0.44046873253E+03  0.63202083878E+03  0.45325228771E+03 0.  0.
      99925    2    3    3    0    0  0.10834826913E+03 -0.23424627169E+02  0.26055920594E+03  0.38645413412E+03  0.26299740948E+03 0.  0.
         25    1    4    4    0    0  0.18378738877E+02  0.10385905961E+02  0.10188744463E+03  0.16270895660E+03  0.12509000000E+03 0.  0.
         25    1    3    3    0    0 -0.10834826913E+03  0.23424627169E+02  0.17990952658E+03  0.24556670466E+03  0.12509000000E+03 0.  0.
         25    1    4    4    0    0  0.89969530249E+02 -0.33810533130E+02  0.15867176132E+03  0.22374517752E+03  0.12509000000E+03 0.  0.
<mgrwt>
<rscale>  2 0.45325229E+03</rscale>
<asrwt>0</asrwt>
<pdfrwt beam="1">  1       21 0.78859526E-01 0.45325229E+03</pdfrwt>
<pdfrwt beam="2">  1       21 0.14084714E-01 0.45325229E+03</pdfrwt>
<totfact> 0.57539025E+04</totfact>
</mgrwt>
</event>
<event>
 7    0  0.4737014E-002  0.4579573E+03  0.7546771E-02  0.1025375E+00
         21   -1    0    0  502  501  0.00000000000E+00  0.00000000000E+00  0.45410771069E+02  0.45410771069E+02  0.00000000000E+00 0.  1.
         21   -1    0    0  501  502 -0.00000000000E+00 -0.00000000000E+00 -0.11545985594E+04  0.11545985594E+04  0.00000000000E+00 0.  1.
      99926    2    1    2    0    0  0.35527136788E-14  0.00000000000E+00 -0.11091877884E+04  0.12000093305E+04  0.45795725067E+03 0.  0.
      99925    2    3    3    0    0  0.29069769820E+02 -0.85087313115E+02 -0.50415300579E+03  0.57567008090E+03  0.26294654671E+03 0.  0.
         25    1    3    3    0    0 -0.29069769820E+02  0.85087313115E+02 -0.60503478258E+03  0.62433924961E+03  0.12509000000E+03 0.  0.
         25    1    4    4    0    0  0.27304233859E+02 -0.23188864693E+02 -0.31311024573E+03  0.33907046275E+03  0.12509000000E+03 0.  0.
         25    1    4    4    0    0  0.17655359610E+01 -0.61898448422E+02 -0.19104276006E+03  0.23659961815E+03  0.12509000000E+03 0.  0.
<mgrwt>
<rscale>  2 0.45795725E+03</rscale>
<asrwt>0</asrwt>
<pdfrwt beam="1">  1       21 0.66780561E-02 0.45795725E+03</pdfrwt>
<pdfrwt beam="2">  1       21 0.16979387E+00 0.45795725E+03</pdfrwt>
<totfact> 0.31425448E+04</totfact>
</mgrwt>
</event>
<event>
 7    0  0.4737014E-002  0.4367055E+03  0.7546771E-02  0.1031762E+00
         21   -1    0    0  502  501  0.00000000000E+00  0.00000000000E+00  0.11284954477E+04  0.11284954477E+04  0.00000000000E+00 0. -1.
         21   -1    0    0  501  502 -0.00000000000E+00 -0.00000000000E+00 -0.42249103495E+02  0.42249103495E+02  0.00000000000E+00 0. -1.
      99926    2    1    2    0    0  0.00000000000E+00  0.00000000000E+00  0.10862463442E+04  0.11707445512E+04  0.43670548869E+03 0.  0.
      99925    2    3    3    0    0 -0.50993314675E+02  0.76574568203E+02  0.63495374124E+03  0.69348518331E+03  0.26323271705E+03 0.  0.
         25    1    3    3    0    0  0.50993314675E+02 -0.76574568203E+02  0.45129260297E+03  0.47725936788E+03  0.12509000000E+03 0.  0.
         25    1    4    4    0    0 -0.34575741925E+02  0.25738822275E+02  0.40774081474E+03  0.42867009344E+03  0.12509000000E+03 0.  0.
         25    1    4    4    0    0 -0.16417572750E+02  0.50835745929E+02  0.22721292650E+03  0.26481508988E+03  0.12509000000E+03 0.  0.
<mgrwt>
<rscale>  2 0.43670549E+03</rscale>
<asrwt>0</asrwt>
<pdfrwt beam="1">  1       21 0.16595519E+00 0.43670549E+03</pdfrwt>
<pdfrwt beam="2">  1       21 0.62131042E-02 0.43670549E+03</pdfrwt>
<totfact> 0.38268310E+04</totfact>
</mgrwt>
</event>
<event>
 7    0  0.4737014E-002  0.4031818E+03  0.7546771E-02  0.1042683E+00
         21   -1    0    0  502  501  0.00000000000E+00  0.00000000000E+00  0.16665851082E+04  0.16665851082E+04  0.00000000000E+00 0.  1.
         21   -1    0    0  501  502 -0.00000000000E+00 -0.00000000000E+00 -0.24384525309E+02  0.24384525309E+02  0.00000000000E+00 0.  1.
      99926    2    1    2    0    0  0.00000000000E+00 -0.88817841970E-15  0.16422005829E+04  0.16909696335E+04  0.40318177910E+03 0.  0.
      99925    2    3    3    0    0  0.50694549249E+02  0.44628227161E+01  0.11239972652E+04  0.11554586246E+04  0.26291619738E+03 0.  0.
         25    1    4    4    0    0  0.23475699580E+02 -0.34015817316E+02  0.48112162480E+03  0.49883234683E+03  0.12509000000E+03 0.  0.
         25    1    3    3    0    0 -0.50694549249E+02 -0.44628227161E+01  0.51820331774E+03  0.53551100897E+03  0.12509000000E+03 0.  0.
         25    1    4    4    0    0  0.27218849669E+02  0.38478640032E+02  0.64287564036E+03  0.65662627772E+03  0.12509000000E+03 0.  0.
<mgrwt>
<rscale>  2 0.40318178E+03</rscale>
<asrwt>0</asrwt>
<pdfrwt beam="1">  1       21 0.24508597E+00 0.40318178E+03</pdfrwt>
<pdfrwt beam="2">  1       21 0.35859607E-02 0.40318178E+03</pdfrwt>
<totfact> 0.29733028E+04</totfact>
</mgrwt>
</event>
<event>
 7    0  0.4737014E-002  0.4547870E+03  0.7546771E-02  0.1026304E+00
         21   -1    0    0  502  501  0.00000000000E+00  0.00000000000E+00  0.11181240179E+03  0.11181240179E+03  0.00000000000E+00 0. -1.
         21   -1    0    0  501  502 -0.00000000000E+00 -0.00000000000E+00 -0.46245137227E+03  0.46245137227E+03  0.00000000000E+00 0. -1.
      99926    2    1    2    0    0  0.35527136788E-14  0.71054273576E-14 -0.35063897048E+03  0.57426377406E+03  0.45478697714E+03 0.  0.
      99925    2    3    3    0    0 -0.16744379399E+02  0.57383315817E+02 -0.99608777972E+02  0.28749403223E+03  0.26297849864E+03 0.  0.
         25    1    3    3    0    0  0.16744379399E+02 -0.57383315817E+02 -0.25103019251E+03  0.28676974182E+03  0.12509000000E+03 0.  0.
         25    1    4    4    0    0  0.23067767438E+02  0.53355712197E+02 -0.58998536437E+02  0.15002429577E+03  0.12509000000E+03 0.  0.
         25    1    4    4    0    0 -0.39812146836E+02  0.40276036209E+01 -0.40610241535E+02  0.13746973647E+03  0.12509000000E+03 0.  0.
<mgrwt>
<rscale>  2 0.45478698E+03</rscale>
<asrwt>0</asrwt>
<pdfrwt beam="1">  1       21 0.16443000E-01 0.45478698E+03</pdfrwt>
<pdfrwt beam="2">  1       21 0.68007555E-01 0.45478698E+03</pdfrwt>
<totfact> 0.60392699E+04</totfact>
</mgrwt>
</event>
<event>
 7    0  0.4737014E-002  0.4417602E+03  0.7546771E-02  0.1030208E+00
         21   -1    0    0  502  501  0.00000000000E+00  0.00000000000E+00  0.10222382909E+03  0.10222382909E+03  0.00000000000E+00 0. -1.
         21   -1    0    0  501  502 -0.00000000000E+00 -0.00000000000E+00 -0.47726661045E+03  0.47726661045E+03  0.00000000000E+00 0. -1.
      99926    2    1    2    0    0 -0.88817841970E-15  0.00000000000E+00 -0.37504278136E+03  0.57949043955E+03  0.44176020834E+03 0.  0.
      99925    2    3    3    0    0 -0.63859848058E+01 -0.21053532182E+02 -0.36706631504E+03  0.45223021742E+03  0.26323080726E+03 0.  0.
         25    1    3    3    0    0  0.63859848058E+01  0.21053532182E+02 -0.79764663159E+01  0.12726022212E+03  0.12509000000E+03 0.  0.
         25    1    4    4    0    0  0.31310023854E+02  0.10804256585E+02 -0.16973096006E+03  0.21343185437E+03  0.12509000000E+03 0.  0.
         25    1    4    4    0    0 -0.37696008660E+02 -0.31857788767E+02 -0.19733535498E+03  0.23879836306E+03  0.12509000000E+03 0.  0.
<mgrwt>
<rscale>  2 0.44176021E+03</rscale>
<asrwt>0</asrwt>
<pdfrwt beam="1">  1       21 0.15032916E-01 0.44176021E+03</pdfrwt>
<pdfrwt beam="2">  1       21 0.70186267E-01 0.44176021E+03</pdfrwt>
<totfact> 0.66667428E+04</totfact>
</mgrwt>
</event>
<event>
 6    0  0.4737014E-002  0.4675458E+03  0.7546771E-02  0.1022615E+00
         21   -1    0    0  502  501  0.00000000000E+00  0.00000000000E+00  0.52358357390E+03  0.52358357390E+03  0.00000000000E+00 0. -1.
         21   -1    0    0  501  502 -0.00000000000E+00 -0.00000000000E+00 -0.10437641586E+03  0.10437641586E+03  0.00000000000E+00 0. -1.
      99926    2    1    2    0    0 -0.14210854715E-13  0.00000000000E+00  0.41920715804E+03  0.62795998975E+03  0.46754583452E+03 0.  0.
         25    1    3    3    0    0  0.38676102296E+02 -0.29987128180E+02  0.14565710155E+03  0.19813775026E+03  0.12509000000E+03 0.  0.
         25    1    3    3    0    0  0.84128759790E+02  0.38686715204E+02  0.11813950189E+03  0.19539385907E+03  0.12509000000E+03 0.  0.
         25    1    3    3    0    0 -0.12280486209E+03 -0.86995870234E+01  0.15541055460E+03  0.23442838042E+03  0.12509000000E+03 0.  0.
<mgrwt>
<rscale>  2 0.46754583E+03</rscale>
<asrwt>0</asrwt>
<pdfrwt beam="1">  1       21 0.76997583E-01 0.46754583E+03</pdfrwt>
<pdfrwt beam="2">  1       21 0.15349473E-01 0.46754583E+03</pdfrwt>
<totfact> 0.51677256E+04</totfact>
</mgrwt>
</event>
<event>
 7    0  0.4737014E-002  0.4542752E+03  0.7546771E-02  0.1026455E+00
         21   -1    0    0  502  501  0.00000000000E+00  0.00000000000E+00  0.10213461813E+04  0.10213461813E+04  0.00000000000E+00 0. -1.
         21   -1    0    0  501  502 -0.00000000000E+00 -0.00000000000E+00 -0.50513231873E+02  0.50513231873E+02  0.00000000000E+00 0. -1.
      99926    2    1    2    0    0  0.14210854715E-13 -0.88817841970E-15  0.97083294939E+03  0.10718594131E+04  0.45427523145E+03 0.  0.
      99925    2    3    3    0    0  0.10783648340E+03 -0.38402578766E+01  0.68568905696E+03  0.74231730320E+03  0.26310081920E+03 0.  0.
         25    1    3    3    0    0 -0.10783648340E+03  0.38402578766E+01  0.28514389244E+03  0.32954210994E+03  0.12509000000E+03 0.  0.
         25    1    4    4    0    0  0.78272599934E+02 -0.12088543136E+02  0.45000436624E+03  0.47373428260E+03  0.12509000000E+03 0.  0.
         25    1    4    4    0    0  0.29563883462E+02  0.82482852592E+01  0.23568469072E+03  0.26858302060E+03  0.12509000000E+03 0.  0.
<mgrwt>
<rscale>  2 0.45427523E+03</rscale>
<asrwt>0</asrwt>
<pdfrwt beam="1">  1       21 0.15019795E+00 0.45427523E+03</pdfrwt>
<pdfrwt beam="2">  1       21 0.74284171E-02 0.45427523E+03</pdfrwt>
<totfact> 0.36692476E+04</totfact>
</mgrwt>
</event>
<event>
 7    0  0.4737014E-002  0.4570168E+03  0.7546771E-02  0.1025650E+00
         21   -1    0    0  502  501  0.00000000000E+00  0.00000000000E+00  0.51766069552E+02  0.51766069552E+02  0.00000000000E+00 0. -1.
         21   -1    0    0  501  502 -0.00000000000E+00 -0.00000000000E+00 -0.10086934218E+04  0.10086934218E+04  0.00000000000E+00 0. -1.
      99926    2    1    2    0    0 -0.14210854715E-13 -0.71054273576E-14 -0.95692735225E+03  0.10604594914E+04  0.45701682170E+03 0.  0.
      99925    2    3    3    0    0 -0.79782668395E+02 -0.50934138449E+02 -0.75287883271E+03  0.80308259444E+03  0.26297444005E+03 0.  0.
         25    1    4    4    0    0 -0.62662267659E+02 -0.44134100933E+02 -0.48798495583E+03  0.50955981383E+03  0.12509000000E+03 0.  0.
         25    1    4    4    0    0 -0.17120400736E+02 -0.68000375161E+01 -0.26489387687E+03  0.29352278061E+03  0.12509000000E+03 0.  0.
         25    1    3    3    0    0  0.79782668395E+02  0.50934138449E+02 -0.20404851954E+03  0.25737689691E+03  0.12509000000E+03 0.  0.
<mgrwt>
<rscale>  2 0.45701682E+03</rscale>
<asrwt>0</asrwt>
<pdfrwt beam="1">  1       21 0.76126580E-02 0.45701682E+03</pdfrwt>
<pdfrwt beam="2">  1       21 0.14833725E+00 0.45701682E+03</pdfrwt>
<totfact> 0.36320857E+04</totfact>
</mgrwt>
</event>
<event>
 7    0  0.4737014E-002  0.4546742E+03  0.7546771E-02  0.1026337E+00
         21   -1    0    0  502  501  0.00000000000E+00  0.00000000000E+00  0.30495210315E+03  0.30495210315E+03  0.00000000000E+00 0.  1.
         21   -1    0    0  501  502 -0.00000000000E+00 -0.00000000000E+00 -0.16947631982E+03  0.16947631982E+03  0.00000000000E+00 0.  1.
      99926    2    1    2    0    0  0.00000000000E+00  0.00000000000E+00  0.13547578333E+03  0.47442842297E+03  0.45467421375E+03 0.  0.
      99925    2    3    3    0    0  0.97278673710E+02  0.54034807072E+02  0.67685439149E+02  0.29380190332E+03  0.26335401837E+03 0.  0.
         25    1    4    4    0    0  0.72713133528E+02  0.44426804839E+02  0.50453309506E+01  0.15143944083E+03  0.12509000000E+03 0.  0.
         25    1    3    3    0    0 -0.97278673710E+02 -0.54034807072E+02  0.67790344181E+02  0.18062651964E+03  0.12509000000E+03 0.  0.
         25    1    4    4    0    0  0.24565540182E+02  0.96080022337E+01  0.62640108199E+02  0.14236246249E+03  0.12509000000E+03 0.  0.
<mgrwt>
<rscale>  2 0.45467421E+03</rscale>
<asrwt>0</asrwt>
<pdfrwt beam="1">  1       21 0.44845897E-01 0.45467421E+03</pdfrwt>
<pdfrwt beam="2">  1       21 0.24922988E-01 0.45467421E+03</pdfrwt>
<totfact> 0.67281748E+04</totfact>
</mgrwt>
</event>
<event>
 7    0  0.4737014E-002  0.4596905E+03  0.7546771E-02  0.1024871E+00
         21   -1    0    0  502  501  0.00000000000E+00  0.00000000000E+00  0.19523705332E+04  0.19523705332E+04  0.00000000000E+00 0.  1.
         21   -1    0    0  501  502 -0.00000000000E+00 -0.00000000000E+00 -0.27058818879E+02  0.27058818879E+02  0.00000000000E+00 0.  1.
      99926    2    1    2    0    0  0.00000000000E+00  0.00000000000E+00  0.19253117143E+04  0.19794293521E+04  0.45969050738E+03 0.  0.
      99925    2    3    3    0    0 -0.10940906827E+03  0.37196826662E+02  0.11151794466E+04  0.11515913562E+04  0.26302757536E+03 0.  0.
         25    1    3    3    0    0  0.10940906827E+03 -0.37196826662E+02  0.81013226769E+03  0.82783799586E+03  0.12509000000E+03 0.  0.
         25    1    4    4    0    0 -0.50438265611E+02  0.50451076141E+02  0.66724673681E+03  0.68260899906E+03  0.12509000000E+03 0.  0.
         25    1    4    4    0    0 -0.58970802662E+02 -0.13254249479E+02  0.44793270983E+03  0.46898235716E+03  0.12509000000E+03 0.  0.
<mgrwt>
<rscale>  2 0.45969051E+03</rscale>
<asrwt>0</asrwt>
<pdfrwt beam="1">  1       21 0.28711322E+00 0.45969051E+03</pdfrwt>
<pdfrwt beam="2">  1       21 0.39792394E-02 0.45969051E+03</pdfrwt>
<totfact> 0.13548572E+04</totfact>
</mgrwt>
</event>
<event>
 7    0  0.4737014E-002  0.4574812E+03  0.7546771E-02  0.1025514E+00
         21   -1    0    0  502  501  0.00000000000E+00  0.00000000000E+00  0.40544844657E+02  0.40544844657E+02  0.00000000000E+00 0. -1.
         21   -1    0    0  501  502 -0.00000000000E+00 -0.00000000000E+00 -0.12904789203E+04  0.12904789203E+04  0.00000000000E+00 0. -1.
      99926    2    1    2    0    0  0.00000000000E+00 -0.71054273576E-14 -0.12499340756E+04  0.13310237650E+04  0.45748122303E+03 0.  0.
      99925    2    3    3    0    0  0.10110713143E+03 -0.53116641724E+02 -0.74996752646E+03  0.80314301322E+03  0.26371078720E+03 0.  0.
         25    1    4    4    0    0  0.81441150568E+02 -0.13937057908E+02 -0.32342892752E+03  0.35648377501E+03  0.12509000000E+03 0.  0.
         25    1    4    4    0    0  0.19665980859E+02 -0.39179583816E+02 -0.42653859894E+03  0.44665923821E+03  0.12509000000E+03 0.  0.
         25    1    3    3    0    0 -0.10110713143E+03  0.53116641724E+02 -0.49996654918E+03  0.52788075173E+03  0.12509000000E+03 0.  0.
<mgrwt>
<rscale>  2 0.45748122E+03</rscale>
<asrwt>0</asrwt>
<pdfrwt beam="1">  1       21 0.59624775E-02 0.45748122E+03</pdfrwt>
<pdfrwt beam="2">  1       21 0.18977630E+00 0.45748122E+03</pdfrwt>
<totfact> 0.27688836E+04</totfact>
</mgrwt>
</event>
<event>
 7    0  0.4737014E-002  0.4501884E+03  0.7546771E-02  0.1027666E+00
         21   -1    0    0  502  501  0.00000000000E+00  0.00000000000E+00  0.70074942571E+03  0.70074942571E+03  0.00000000000E+00 0. -1.
         21   -1    0    0  501  502 -0.00000000000E+00 -0.00000000000E+00 -0.72304582215E+02  0.72304582215E+02  0.00000000000E+00 0. -1.
      99926    2    1    2    0    0 -0.35527136788E-14  0.00000000000E+00  0.62844484350E+03  0.77305400793E+03  0.45018838041E+03 0.  0.
      99925    2    3    3    0    0 -0.23810584676E+02  0.65658071262E+02  0.54012135450E+03  0.60474930486E+03  0.26289297801E+03 0.  0.
         25    1    4    4    0    0  0.12749052553E+02  0.18837119049E+02  0.32418029439E+03  0.34822083046E+03  0.12509000000E+03 0.  0.
         25    1    3    3    0    0  0.23810584676E+02 -0.65658071262E+02  0.88323489001E+02  0.16830470306E+03  0.12509000000E+03 0.  0.
         25    1    4    4    0    0 -0.36559637229E+02  0.46820952213E+02  0.21594106011E+03  0.25652847441E+03  0.12509000000E+03 0.  0.
<mgrwt>
<rscale>  2 0.45018838E+03</rscale>
<asrwt>0</asrwt>
<pdfrwt beam="1">  1       21 0.10305138E+00 0.45018838E+03</pdfrwt>
<pdfrwt beam="2">  1       21 0.10633027E-01 0.45018838E+03</pdfrwt>
<totfact> 0.50994767E+04</totfact>
</mgrwt>
</event>
<event>
 7    0  0.4737014E-002  0.4457782E+03  0.7546771E-02  0.1028989E+00
         21   -1    0    0  502  501  0.00000000000E+00  0.00000000000E+00  0.14613754590E+03  0.14613754590E+03  0.00000000000E+00 0. -1.
         21   -1    0    0  501  502 -0.00000000000E+00 -0.00000000000E+00 -0.33995064726E+03  0.33995064726E+03  0.00000000000E+00 0. -1.
      99926    2    1    2    0    0  0.00000000000E+00  0.71054273576E-14 -0.19381310136E+03  0.48608819316E+03  0.44577821086E+03 0.  0.
      99925    2    3    3    0    0  0.89166470265E+02  0.52694640614E+02 -0.10723507271E+03  0.30204839390E+03  0.26269085798E+03 0.  0.
         25    1    3    3    0    0 -0.89166470265E+02 -0.52694640614E+02 -0.86578028653E+02  0.18403979927E+03  0.12509000000E+03 0.  0.
         25    1    4    4    0    0  0.49614051109E+02  0.56070501194E+02 -0.27106146255E+02  0.14828252236E+03  0.12509000000E+03 0.  0.
         25    1    4    4    0    0  0.39552419155E+02 -0.33758605792E+01 -0.80128926454E+02  0.15376587154E+03  0.12509000000E+03 0.  0.
<mgrwt>
<rscale>  2 0.44577821E+03</rscale>
<asrwt>0</asrwt>
<pdfrwt beam="1">  1       21 0.21490816E-01 0.44577821E+03</pdfrwt>
<pdfrwt beam="2">  1       21 0.49992742E-01 0.44577821E+03</pdfrwt>
<totfact> 0.71340982E+04</totfact>
</mgrwt>
</event>
<event>
 7    0  0.4737014E-002  0.4607724E+03  0.7546771E-02  0.1024557E+00
         21   -1    0    0  502  501  0.00000000000E+00  0.00000000000E+00  0.13607892409E+03  0.13607892409E+03  0.00000000000E+00 0. -1.
         21   -1    0    0  501  502 -0.00000000000E+00 -0.00000000000E+00 -0.39005157064E+03  0.39005157064E+03  0.00000000000E+00 0. -1.
      99926    2    1    2    0    0 -0.71054273576E-14  0.00000000000E+00 -0.25397264655E+03  0.52613049472E+03  0.46077238663E+03 0.  0.
      99925    2    3    3    0    0 -0.53448050254E+02  0.99049992549E+02 -0.11758394673E+03  0.30952721534E+03  0.26327460456E+03 0.  0.
         25    1    3    3    0    0  0.53448050254E+02 -0.99049992549E+02 -0.13638869983E+03  0.21660327939E+03  0.12509000000E+03 0.  0.
         25    1    4    4    0    0  0.15044783666E+02  0.48897383345E+02 -0.55786571864E+02  0.14620858153E+03  0.12509000000E+03 0.  0.
         25    1    4    4    0    0 -0.68492833919E+02  0.50152609204E+02 -0.61797374862E+02  0.16331863381E+03  0.12509000000E+03 0.  0.
<mgrwt>
<rscale>  2 0.46077239E+03</rscale>
<asrwt>0</asrwt>
<pdfrwt beam="1">  1       21 0.20011607E-01 0.46077239E+03</pdfrwt>
<pdfrwt beam="2">  1       21 0.57360524E-01 0.46077239E+03</pdfrwt>
<totfact> 0.60646007E+04</totfact>
</mgrwt>
</event>
<event>
 7    0  0.4737014E-002  0.4599957E+03  0.7546771E-02  0.1024782E+00
         21   -1    0    0  502  501  0.00000000000E+00  0.00000000000E+00  0.42605612976E+03  0.42605612976E+03  0.00000000000E+00 0.  1.
         21   -1    0    0  501  502 -0.00000000000E+00 -0.00000000000E+00 -0.12415972591E+03  0.12415972591E+03  0.00000000000E+00 0.  1.
      99926    2    1    2    0    0  0.00000000000E+00  0.00000000000E+00  0.30189640385E+03  0.55021585567E+03  0.45999570561E+03 0.  0.
      99925    2    3    3    0    0  0.10135584161E+03 -0.58688514920E+02  0.17583621990E+03  0.33748121700E+03  0.26316885680E+03 0.  0.
         25    1    4    4    0    0  0.43293325781E+02 -0.17673092667E+02  0.39490343509E+02  0.13926106991E+03  0.12509000000E+03 0.  0.
         25    1    3    3    0    0 -0.10135584161E+03  0.58688514920E+02  0.12606018395E+03  0.21273463867E+03  0.12509000000E+03 0.  0.
         25    1    4    4    0    0  0.58062515829E+02 -0.41015422253E+02  0.13634587639E+03  0.19822014710E+03  0.12509000000E+03 0.  0.
<mgrwt>
<rscale>  2 0.45999571E+03</rscale>
<asrwt>0</asrwt>
<pdfrwt beam="1">  1       21 0.62655313E-01 0.45999571E+03</pdfrwt>
<pdfrwt beam="2">  1       21 0.18258783E-01 0.45999571E+03</pdfrwt>
<totfact> 0.59466693E+04</totfact>
</mgrwt>
</event>
<event>
 7    0  0.4737014E-002  0.4544011E+03  0.7546771E-02  0.1026418E+00
         21   -1    0    0  502  501  0.00000000000E+00  0.00000000000E+00  0.27990673838E+02  0.27990673838E+02  0.00000000000E+00 0. -1.
         21   -1    0    0  501  502 -0.00000000000E+00 -0.00000000000E+00 -0.18441888382E+04  0.18441888382E+04  0.00000000000E+00 0. -1.
      99926    2    1    2    0    0  0.00000000000E+00 -0.71054273576E-14 -0.18161981644E+04  0.18721795121E+04  0.45440109272E+03 0.  0.
      99925    2    3    3    0    0 -0.96755849815E+02 -0.45551827881E+02 -0.12891570787E+04  0.13200414156E+04  0.26295760450E+03 0.  0.
         25    1    3    3    0    0  0.96755849815E+02  0.45551827881E+02 -0.52704108571E+03  0.55213809651E+03  0.12509000000E+03 0.  0.
         25    1    4    4    0    0 -0.85049539132E+02 -0.43310385504E+01 -0.65665508764E+03  0.67386615453E+03  0.12509000000E+03 0.  0.
         25    1    4    4    0    0 -0.11706310683E+02 -0.41220789331E+02 -0.63250199106E+03  0.64617526104E+03  0.12509000000E+03 0.  0.
<mgrwt>
<rscale>  2 0.45440109E+03</rscale>
<asrwt>0</asrwt>
<pdfrwt beam="1">  1       21 0.41162757E-02 0.45440109E+03</pdfrwt>
<pdfrwt beam="2">  1       21 0.27120423E+00 0.45440109E+03</pdfrwt>
<totfact> 0.15985214E+04</totfact>
</mgrwt>
</event>
<event>
 7    0  0.4737014E-002  0.4484979E+03  0.7546771E-02  0.1028171E+00
         21   -1    0    0  502  501  0.00000000000E+00  0.00000000000E+00  0.25665616286E+03  0.25665616286E+03  0.00000000000E+00 0.  1.
         21   -1    0    0  501  502 -0.00000000000E+00 -0.00000000000E+00 -0.19593373393E+03  0.19593373393E+03  0.00000000000E+00 0.  1.
      99926    2    1    2    0    0  0.00000000000E+00  0.00000000000E+00  0.60722428934E+02  0.45258989679E+03  0.44849793902E+03 0.  0.
      99925    2    3    3    0    0 -0.17689632253E+02 -0.10473894310E+03  0.25834795102E+02  0.28481676311E+03  0.26300186810E+03 0.  0.
         25    1    3    3    0    0  0.17689632253E+02  0.10473894310E+03  0.34887633833E+02  0.16777313368E+03  0.12509000000E+03 0.  0.
         25    1    4    4    0    0 -0.47580415808E+02 -0.40758391764E+02  0.16398892012E+02  0.14086012291E+03  0.12509000000E+03 0.  0.
         25    1    4    4    0    0  0.29890783556E+02 -0.63980551335E+02  0.94359030896E+01  0.14395664020E+03  0.12509000000E+03 0.  0.
<mgrwt>
<rscale>  2 0.44849794E+03</rscale>
<asrwt>0</asrwt>
<pdfrwt beam="1">  1       21 0.37743554E-01 0.44849794E+03</pdfrwt>
<pdfrwt beam="2">  1       21 0.28813784E-01 0.44849794E+03</pdfrwt>
<totfact> 0.72406241E+04</totfact>
</mgrwt>
</event>
<event>
 7    0  0.4737014E-002  0.4212358E+03  0.7546771E-02  0.1036665E+00
         21   -1    0    0  502  501  0.00000000000E+00  0.00000000000E+00  0.47629945277E+02  0.47629945277E+02  0.00000000000E+00 0. -1.
         21   -1    0    0  501  502 -0.00000000000E+00 -0.00000000000E+00 -0.93134475668E+03  0.93134475668E+03  0.00000000000E+00 0. -1.
      99926    2    1    2    0    0  0.71054273576E-14  0.35527136788E-14 -0.88371481140E+03  0.97897470196E+03  0.42123579997E+03 0.  0.
      99925    2    3    3    0    0  0.62541040125E+02  0.26751105087E+02 -0.66035579838E+03  0.71409027410E+03  0.26311240143E+03 0.  0.
         25    1    4    4    0    0  0.46299353546E+02 -0.57775483364E+01 -0.24807737372E+03  0.28172131914E+03  0.12509000000E+03 0.  0.
         25    1    4    4    0    0  0.16241686579E+02  0.32528653423E+02 -0.41227842466E+03  0.43236895496E+03  0.12509000000E+03 0.  0.
         25    1    3    3    0    0 -0.62541040125E+02 -0.26751105087E+02 -0.22335901302E+03  0.26488442786E+03  0.12509000000E+03 0.  0.
<mgrwt>
<rscale>  2 0.42123580E+03</rscale>
<asrwt>0</asrwt>
<pdfrwt beam="1">  1       21 0.70044035E-02 0.42123580E+03</pdfrwt>
<pdfrwt beam="2">  1       21 0.13696247E+00 0.42123580E+03</pdfrwt>
<totfact> 0.52545129E+04</totfact>
</mgrwt>
</event>
<event>
 7    0  0.4737014E-002  0.4374353E+03  0.7546771E-02  0.1031537E+00
         21   -1    0    0  502  501  0.00000000000E+00  0.00000000000E+00  0.38204787539E+03  0.38204787539E+03  0.00000000000E+00 0. -1.
         21   -1    0    0  501  502 -0.00000000000E+00 -0.00000000000E+00 -0.12521312441E+03  0.12521312441E+03  0.00000000000E+00 0. -1.
      99926    2    1    2    0    0 -0.71054273576E-14  0.00000000000E+00  0.25683475097E+03  0.50726099980E+03  0.43743528963E+03 0.  0.
      99925    2    3    3    0    0  0.54049102730E+02  0.79005029341E+02  0.16610806255E+03  0.32548657844E+03  0.26303331374E+03 0.  0.
         25    1    4    4    0    0 -0.13314081905E+02  0.36598573896E+02  0.88828498574E+02  0.15828686189E+03  0.12509000000E+03 0.  0.
         25    1    3    3    0    0 -0.54049102730E+02 -0.79005029341E+02  0.90726688424E+02  0.18177442136E+03  0.12509000000E+03 0.  0.
         25    1    4    4    0    0  0.67363184635E+02  0.42406455444E+02  0.77279563976E+02  0.16719971655E+03  0.12509000000E+03 0.  0.
<mgrwt>
<rscale>  2 0.43743529E+03</rscale>
<asrwt>0</asrwt>
<pdfrwt beam="1">  1       21 0.56183511E-01 0.43743529E+03</pdfrwt>
<pdfrwt beam="2">  1       21 0.18413695E-01 0.43743529E+03</pdfrwt>
<totfact> 0.74633175E+04</totfact>
</mgrwt>
</event>
<event>
 7    0  0.4737014E-002  0.4606680E+03  0.7546771E-02  0.1024588E+00
         21   -1    0    0  502  501  0.00000000000E+00  0.00000000000E+00  0.15698587420E+03  0.15698587420E+03  0.00000000000E+00 0.  1.
         21   -1    0    0  501  502 -0.00000000000E+00 -0.00000000000E+00 -0.33795244127E+03  0.33795244127E+03  0.00000000000E+00 0.  1.
      99926    2    1    2    0    0  0.00000000000E+00  0.00000000000E+00 -0.18096656707E+03  0.49493831546E+03  0.46066803418E+03 0.  0.
      99925    2    3    3    0    0 -0.80947442390E+02 -0.46054562750E+02 -0.34787585381E+02  0.28118772724E+03  0.26302633076E+03 0.  0.
         25    1    4    4    0    0 -0.36637131622E+02 -0.57478946017E+02 -0.39752733166E+02  0.14789826416E+03  0.12509000000E+03 0.  0.
         25    1    3    3    0    0  0.80947442390E+02  0.46054562750E+02 -0.14617898169E+03  0.21375058823E+03  0.12509000000E+03 0.  0.
         25    1    4    4    0    0 -0.44310310768E+02  0.11424383266E+02  0.49651477858E+01  0.13328946307E+03  0.12509000000E+03 0.  0.
<mgrwt>
<rscale>  2 0.46066803E+03</rscale>
<asrwt>0</asrwt>
<pdfrwt beam="1">  1       21 0.23086158E-01 0.46066803E+03</pdfrwt>
<pdfrwt beam="2">  1       21 0.49698888E-01 0.46066803E+03</pdfrwt>
<totfact> 0.62756042E+04</totfact>
</mgrwt>
</event>
<event>
 7    0  0.4737014E-002  0.4584453E+03  0.7546771E-02  0.1025233E+00
         21   -1    0    0  502  501  0.00000000000E+00  0.00000000000E+00  0.16903273456E+03  0.16903273456E+03  0.00000000000E+00 0.  1.
         21   -1    0    0  501  502 -0.00000000000E+00 -0.00000000000E+00 -0.31084529543E+03  0.31084529543E+03  0.00000000000E+00 0.  1.
      99926    2    1    2    0    0 -0.35527136788E-14  0.14210854715E-13 -0.14181256088E+03  0.47987802999E+03  0.45844533070E+03 0.  0.
      99925    2    3    3    0    0 -0.25008858278E+02  0.10651172939E+03 -0.13096752827E+03  0.31333880241E+03  0.26278987831E+03 0.  0.
         25    1    3    3    0    0  0.25008858278E+02 -0.10651172939E+03 -0.10845032606E+02  0.16653922758E+03  0.12509000000E+03 0.  0.
         25    1    4    4    0    0 -0.21793217562E+02  0.17538907950E+02 -0.82069758131E+02  0.15220220407E+03  0.12509000000E+03 0.  0.
         25    1    4    4    0    0 -0.32156407154E+01  0.88972821439E+02 -0.48897770139E+02  0.16113659834E+03  0.12509000000E+03 0.  0.
<mgrwt>
<rscale>  2 0.45844533E+03</rscale>
<asrwt>0</asrwt>
<pdfrwt beam="1">  1       21 0.24857755E-01 0.45844533E+03</pdfrwt>
<pdfrwt beam="2">  1       21 0.45712543E-01 0.45844533E+03</pdfrwt>
<totfact> 0.64915612E+04</totfact>
</mgrwt>
</event>
<event>
 7    0  0.4737014E-002  0.4524133E+03  0.7546771E-02  0.1027005E+00
         21   -1    0    0  502  501  0.00000000000E+00  0.00000000000E+00  0.77881123445E+02  0.77881123445E+02  0.00000000000E+00 0.  1.
         21   -1    0    0  501  502 -0.00000000000E+00 -0.00000000000E+00 -0.65701978151E+03  0.65701978151E+03  0.00000000000E+00 0.  1.
      99926    2    1    2    0    0  0.35527136788E-14  0.71054273576E-14 -0.57913865807E+03  0.73490090496E+03  0.45241325670E+03 0.  0.
      99925    2    3    3    0    0  0.16868151864E+02  0.54148051001E+02 -0.51975980065E+03  0.58526834572E+03  0.26300615993E+03 0.  0.
         25    1    4    4    0    0 -0.17012274381E+02 -0.43320012761E+01 -0.22582959266E+03  0.25875605642E+03  0.12509000000E+03 0.  0.
         25    1    4    4    0    0  0.33880426245E+02  0.58480052277E+02 -0.29393020799E+03  0.32651228930E+03  0.12509000000E+03 0.  0.
         25    1    3    3    0    0 -0.16868151864E+02 -0.54148051001E+02 -0.59378857422E+02  0.14963255924E+03  0.12509000000E+03 0.  0.
<mgrwt>
<rscale>  2 0.45241326E+03</rscale>
<asrwt>0</asrwt>
<pdfrwt beam="1">  1       21 0.11453107E-01 0.45241326E+03</pdfrwt>
<pdfrwt beam="2">  1       21 0.96620551E-01 0.45241326E+03</pdfrwt>
<totfact> 0.52100282E+04</totfact>
</mgrwt>
</event>
<event>
 7    0  0.4737014E-002  0.4521999E+03  0.7546771E-02  0.1027068E+00
         21   -1    0    0  502  501  0.00000000000E+00  0.00000000000E+00  0.27491801392E+03  0.27491801392E+03  0.00000000000E+00 0.  1.
         21   -1    0    0  501  502 -0.00000000000E+00 -0.00000000000E+00 -0.18595066942E+03  0.18595066942E+03  0.00000000000E+00 0.  1.
      99926    2    1    2    0    0 -0.35527136788E-14 -0.71054273576E-14  0.88967344499E+02  0.46086868334E+03  0.45219990590E+03 0.  0.
      99925    2    3    3    0    0  0.16710497238E+02  0.48913200115E+02  0.15590847432E+03  0.30987078658E+03  0.26275598975E+03 0.  0.
         25    1    4    4    0    0  0.15768665051E+02  0.23761862256E+01  0.11395405846E+03  0.16996273885E+03  0.12509000000E+03 0.  0.
         25    1    4    4    0    0  0.94183218679E+00  0.46537013890E+02  0.41954415856E+02  0.13990804773E+03  0.12509000000E+03 0.  0.
         25    1    3    3    0    0 -0.16710497238E+02 -0.48913200115E+02 -0.66941129822E+02  0.15099789676E+03  0.12509000000E+03 0.  0.
<mgrwt>
<rscale>  2 0.45219991E+03</rscale>
<asrwt>0</asrwt>
<pdfrwt beam="1">  1       21 0.40429120E-01 0.45219991E+03</pdfrwt>
<pdfrwt beam="2">  1       21 0.27345687E-01 0.45219991E+03</pdfrwt>
<totfact> 0.69655567E+04</totfact>
</mgrwt>
</event>
<event>
 7    0  0.4737014E-002  0.4497752E+03  0.7546771E-02  0.1027789E+00
         21   -1    0    0  502  501  0.00000000000E+00  0.00000000000E+00  0.12114979114E+03  0.12114979114E+03  0.00000000000E+00 0.  1.
         21   -1    0    0  501  502 -0.00000000000E+00 -0.00000000000E+00 -0.41745374494E+03  0.41745374494E+03  0.00000000000E+00 0.  1.
      99926    2    1    2    0    0  0.00000000000E+00  0.00000000000E+00 -0.29630395380E+03  0.53860353609E+03  0.44977520613E+03 0.  0.
      99925    2    3    3    0    0  0.10262392108E+03  0.27816614398E+02 -0.21152803289E+03  0.35383368443E+03  0.26296146928E+03 0.  0.
         25    1    3    3    0    0 -0.10262392108E+03 -0.27816614398E+02 -0.84775920912E+02  0.18476985166E+03  0.12509000000E+03 0.  0.
         25    1    4    4    0    0  0.31031230105E+02  0.46932319333E+02 -0.11821699742E+03  0.18107552684E+03  0.12509000000E+03 0.  0.
         25    1    4    4    0    0  0.71592690974E+02 -0.19115704935E+02 -0.93311035468E+02  0.17275815760E+03  0.12509000000E+03 0.  0.
<mgrwt>
<rscale>  2 0.44977521E+03</rscale>
<asrwt>0</asrwt>
<pdfrwt beam="1">  1       21 0.17816146E-01 0.44977521E+03</pdfrwt>
<pdfrwt beam="2">  1       21 0.61390257E-01 0.44977521E+03</pdfrwt>
<totfact> 0.65283815E+04</totfact>
</mgrwt>
</event>
<event>
 7    0  0.4737014E-002  0.3928664E+03  0.7546771E-02  0.1046278E+00
         21   -1    0    0  502  501  0.00000000000E+00  0.00000000000E+00  0.88091732518E+02  0.88091732518E+02  0.00000000000E+00 0.  1.
         21   -1    0    0  501  502 -0.00000000000E+00 -0.00000000000E+00 -0.43802078190E+03  0.43802078190E+03  0.00000000000E+00 0.  1.
      99926    2    1    2    0    0  0.44408920985E-15  0.35527136788E-14 -0.34992904939E+03  0.52611251442E+03  0.39286643815E+03 0.  0.
      99925    2    3    3    0    0 -0.24796947855E+01  0.27771015932E+02 -0.24916427215E+03  0.36308360090E+03  0.26262042669E+03 0.  0.
         25    1    4    4    0    0  0.26289379826E+02  0.35540517626E+02 -0.15300815324E+03  0.20251731517E+03  0.12509000000E+03 0.  0.
         25    1    3    3    0    0  0.24796947855E+01 -0.27771015932E+02 -0.10076477723E+03  0.16302891352E+03  0.12509000000E+03 0.  0.
         25    1    4    4    0    0 -0.28769074611E+02 -0.77695016946E+01 -0.96156118910E+02  0.16056628573E+03  0.12509000000E+03 0.  0.
<mgrwt>
<rscale>  2 0.39286644E+03</rscale>
<asrwt>0</asrwt>
<pdfrwt beam="1">  1       21 0.12954666E-01 0.39286644E+03</pdfrwt>
<pdfrwt beam="2">  1       21 0.64414822E-01 0.39286644E+03</pdfrwt>
<totfact> 0.10729063E+05</totfact>
</mgrwt>
</event>
<event>
 7    0  0.4737014E-002  0.4515189E+03  0.7546771E-02  0.1027270E+00
         21   -1    0    0  502  501  0.00000000000E+00  0.00000000000E+00  0.64198026543E+03  0.64198026543E+03  0.00000000000E+00 0.  1.
         21   -1    0    0  501  502 -0.00000000000E+00 -0.00000000000E+00 -0.79390803142E+02  0.79390803142E+02  0.00000000000E+00 0.  1.
      99926    2    1    2    0    0  0.00000000000E+00 -0.14210854715E-13  0.56258946228E+03  0.72137106857E+03  0.45151889827E+03 0.  0.
      99925    2    3    3    0    0  0.20695690487E+02 -0.10450408950E+03  0.31351252191E+03  0.42298164742E+03  0.26319946111E+03 0.  0.
         25    1    4    4    0    0  0.33598003820E+02 -0.38310425744E+02  0.10709896276E+03  0.17237810332E+03  0.12509000000E+03 0.  0.
         25    1    4    4    0    0 -0.12902313334E+02 -0.66193663760E+02  0.20641355915E+03  0.25060354409E+03  0.12509000000E+03 0.  0.
         25    1    3    3    0    0 -0.20695690487E+02  0.10450408950E+03  0.24907694038E+03  0.29838942115E+03  0.12509000000E+03 0.  0.
<mgrwt>
<rscale>  2 0.45151890E+03</rscale>
<asrwt>0</asrwt>
<pdfrwt beam="1">  1       21 0.94408860E-01 0.45151890E+03</pdfrwt>
<pdfrwt beam="2">  1       21 0.11675118E-01 0.45151890E+03</pdfrwt>
<totfact> 0.53199700E+04</totfact>
</mgrwt>
</event>
<event>
 7    0  0.4737014E-002  0.4541854E+03  0.7546771E-02  0.1026481E+00
         21   -1    0    0  502  501  0.00000000000E+00  0.00000000000E+00  0.13730951715E+04  0.13730951715E+04  0.00000000000E+00 0. -1.
         21   -1    0    0  501  502 -0.00000000000E+00 -0.00000000000E+00 -0.37558275164E+02  0.37558275164E+02  0.00000000000E+00 0. -1.
      99926    2    1    2    0    0  0.00000000000E+00  0.22204460493E-15  0.13355368963E+04  0.14106534467E+04  0.45418536426E+03 0.  0.
      99925    2    3    3    0    0  0.10368635161E+03  0.56368350574E+00  0.97608333884E+03  0.10161847593E+04  0.26294790993E+03 0.  0.
         25    1    4    4    0    0  0.18740412119E+02 -0.13286325175E+02  0.52689510059E+03  0.54202738364E+03  0.12509000000E+03 0.  0.
         25    1    3    3    0    0 -0.10368635161E+03 -0.56368350574E+00  0.35945355751E+03  0.39446868742E+03  0.12509000000E+03 0.  0.
         25    1    4    4    0    0  0.84945939486E+02  0.13850008681E+02  0.44918823824E+03  0.47415737562E+03  0.12509000000E+03 0.  0.
<mgrwt>
<rscale>  2 0.45418536E+03</rscale>
<asrwt>0</asrwt>
<pdfrwt beam="1">  1       21 0.20192573E+00 0.45418536E+03</pdfrwt>
<pdfrwt beam="2">  1       21 0.55232767E-02 0.45418536E+03</pdfrwt>
<totfact> 0.26215053E+04</totfact>
</mgrwt>
</event>
<event>
 7    0  0.4737014E-002  0.4539906E+03  0.7546771E-02  0.1026539E+00
         21   -1    0    0  502  501  0.00000000000E+00  0.00000000000E+00  0.50580015393E+03  0.50580015393E+03  0.00000000000E+00 0. -1.
         21   -1    0    0  501  502 -0.00000000000E+00 -0.00000000000E+00 -0.10187197968E+03  0.10187197968E+03  0.00000000000E+00 0. -1.
      99926    2    1    2    0    0  0.00000000000E+00 -0.71054273576E-14  0.40392817425E+03  0.60767213360E+03  0.45399058582E+03 0.  0.
      99925    2    3    3    0    0  0.95691698437E+02  0.42702303251E+02  0.30825243872E+03  0.41851150789E+03  0.26296754250E+03 0.  0.
         25    1    4    4    0    0  0.32322083899E+02 -0.17071314488E+02  0.13216444752E+03  0.18561006485E+03  0.12509000000E+03 0.  0.
         25    1    4    4    0    0  0.63369614538E+02  0.59773617739E+02  0.17608799119E+03  0.23290144303E+03  0.12509000000E+03 0.  0.
         25    1    3    3    0    0 -0.95691698437E+02 -0.42702303251E+02  0.95675735530E+02  0.18916062572E+03  0.12509000000E+03 0.  0.
<mgrwt>
<rscale>  2 0.45399059E+03</rscale>
<asrwt>0</asrwt>
<pdfrwt beam="1">  1       21 0.74382374E-01 0.45399059E+03</pdfrwt>
<pdfrwt beam="2">  1       21 0.14981174E-01 0.45399059E+03</pdfrwt>
<totfact> 0.58674962E+04</totfact>
</mgrwt>
</event>
<event>
 7    0  0.4737014E-002  0.4640870E+03  0.7546771E-02  0.1023603E+00
         21   -1    0    0  502  501  0.00000000000E+00  0.00000000000E+00  0.26655156202E+03  0.26655156202E+03  0.00000000000E+00 0.  1.
         21   -1    0    0  501  502 -0.00000000000E+00 -0.00000000000E+00 -0.20200287255E+03  0.20200287255E+03  0.00000000000E+00 0.  1.
      99926    2    1    2    0    0  0.14210854715E-13 -0.14210854715E-13  0.64548689472E+02  0.46855443458E+03  0.46408697983E+03 0.  0.
      99925    2    3    3    0    0 -0.66251483411E+02  0.68168932433E+02  0.11658448841E+03  0.30305067367E+03  0.26308079647E+03 0.  0.
         25    1    4    4    0    0  0.82895558563E+01  0.26606579415E+02  0.48659507848E+02  0.13708348773E+03  0.12509000000E+03 0.  0.
         25    1    3    3    0    0  0.66251483411E+02 -0.68168932433E+02 -0.52035798940E+02  0.16550376091E+03  0.12509000000E+03 0.  0.
         25    1    4    4    0    0 -0.74541039268E+02  0.41562353018E+02  0.67924980564E+02  0.16596718594E+03  0.12509000000E+03 0.  0.
<mgrwt>
<rscale>  2 0.46408698E+03</rscale>
<asrwt>0</asrwt>
<pdfrwt beam="1">  1       21 0.39198759E-01 0.46408698E+03</pdfrwt>
<pdfrwt beam="2">  1       21 0.29706305E-01 0.46408698E+03</pdfrwt>
<totfact> 0.62879850E+04</totfact>
</mgrwt>
</event>
<event>
 7    0  0.4737014E-002  0.4390990E+03  0.7546771E-02  0.1031024E+00
         21   -1    0    0  502  501  0.00000000000E+00  0.00000000000E+00  0.15949623887E+03  0.15949623887E+03  0.00000000000E+00 0.  1.
         21   -1    0    0  501  502 -0.00000000000E+00 -0.00000000000E+00 -0.30221385315E+03  0.30221385315E+03  0.00000000000E+00 0.  1.
      99926    2    1    2    0    0  0.88817841970E-15  0.00000000000E+00 -0.14271761427E+03  0.46171009202E+03  0.43909895428E+03 0.  0.
      99925    2    3    3    0    0  0.42400643128E+01 -0.26087639670E+02 -0.18971568606E+03  0.32549383036E+03  0.26316468034E+03 0.  0.
         25    1    4    4    0    0  0.26150908112E+02 -0.11389404761E+02 -0.54457171560E+02  0.13937962609E+03  0.12509000000E+03 0.  0.
         25    1    4    4    0    0 -0.21910843799E+02 -0.14698234909E+02 -0.13525851450E+03  0.18611420427E+03  0.12509000000E+03 0.  0.
         25    1    3    3    0    0 -0.42400643128E+01  0.26087639670E+02  0.46998071785E+02  0.13621626166E+03  0.12509000000E+03 0.  0.
<mgrwt>
<rscale>  2 0.43909895E+03</rscale>
<asrwt>0</asrwt>
<pdfrwt beam="1">  1       21 0.23455329E-01 0.43909895E+03</pdfrwt>
<pdfrwt beam="2">  1       21 0.44443213E-01 0.43909895E+03</pdfrwt>
<totfact> 0.77366994E+04</totfact>
</mgrwt>
</event>
<event>
 7    0  0.4737014E-002  0.4492605E+03  0.7546771E-02  0.1027943E+00
         21   -1    0    0  502  501  0.00000000000E+00  0.00000000000E+00  0.12840812946E+04  0.12840812946E+04  0.00000000000E+00 0. -1.
         21   -1    0    0  501  502 -0.00000000000E+00 -0.00000000000E+00 -0.39295602756E+02  0.39295602756E+02  0.00000000000E+00 0. -1.
      99926    2    1    2    0    0 -0.17763568394E-14 -0.71054273576E-14  0.12447856919E+04  0.13233768974E+04  0.44926049664E+03 0.  0.
      99925    2    3    3    0    0  0.95943339614E+01  0.53928977690E+02  0.51394127767E+03  0.57988415919E+03  0.26292511350E+03 0.  0.
         25    1    3    3    0    0 -0.95943339614E+01 -0.53928977690E+02  0.73084441418E+03  0.74349273818E+03  0.12509000000E+03 0.  0.
         25    1    4    4    0    0  0.21048838064E+02  0.33245491636E+02  0.18161305243E+03  0.22400697581E+03  0.12509000000E+03 0.  0.
         25    1    4    4    0    0 -0.11454504102E+02  0.20683486054E+02  0.33232822524E+03  0.35587718338E+03  0.12509000000E+03 0.  0.
<mgrwt>
<rscale>  2 0.44926050E+03</rscale>
<asrwt>0</asrwt>
<pdfrwt beam="1">  1       21 0.18883546E+00 0.44926050E+03</pdfrwt>
<pdfrwt beam="2">  1       21 0.57787660E-02 0.44926050E+03</pdfrwt>
<totfact> 0.29748990E+04</totfact>
</mgrwt>
</event>
<event>
 7    0  0.4737014E-002  0.4729375E+03  0.7546771E-02  0.1021094E+00
         21   -1    0    0  502  501  0.00000000000E+00  0.00000000000E+00  0.96992413256E+02  0.96992413256E+02  0.00000000000E+00 0.  1.
         21   -1    0    0  501  502 -0.00000000000E+00 -0.00000000000E+00 -0.57651393016E+03  0.57651393016E+03  0.00000000000E+00 0.  1.
      99926    2    1    2    0    0  0.00000000000E+00  0.00000000000E+00 -0.47952151690E+03  0.67350634341E+03  0.47293753229E+03 0.  0.
      99925    2    3    3    0    0 -0.82415658362E+02 -0.69584463062E+02 -0.19577744683E+03  0.34518859543E+03  0.26304375964E+03 0.  0.
         25    1    4    4    0    0 -0.24135620139E+02 -0.29988196735E+02 -0.13866859074E+03  0.19067854169E+03  0.12509000000E+03 0.  0.
         25    1    3    3    0    0  0.82415658362E+02  0.69584463062E+02 -0.28374407007E+03  0.32831774798E+03  0.12509000000E+03 0.  0.
         25    1    4    4    0    0 -0.58280038223E+02 -0.39596266326E+02 -0.57108856091E+02  0.15451005374E+03  0.12509000000E+03 0.  0.
<mgrwt>
<rscale>  2 0.47293753E+03</rscale>
<asrwt>0</asrwt>
<pdfrwt beam="1">  1       21 0.14263591E-01 0.47293753E+03</pdfrwt>
<pdfrwt beam="2">  1       21 0.84781458E-01 0.47293753E+03</pdfrwt>
<totfact> 0.47311682E+04</totfact>
</mgrwt>
</event>
<event>
 7    0  0.4737014E-002  0.4684280E+03  0.7546771E-02  0.1022365E+00
         21   -1    0    0  502  501  0.00000000000E+00  0.00000000000E+00  0.16323460825E+03  0.16323460825E+03  0.00000000000E+00 0. -1.
         21   -1    0    0  501  502 -0.00000000000E+00 -0.00000000000E+00 -0.33605738663E+03  0.33605738663E+03  0.00000000000E+00 0. -1.
      99926    2    1    2    0    0  0.00000000000E+00  0.00000000000E+00 -0.17282277838E+03  0.49929199488E+03  0.46842799172E+03 0.  0.
      99925    2    3    3    0    0 -0.95635059775E+02  0.54188139052E+02 -0.17158141023E+03  0.33276431500E+03  0.26307696579E+03 0.  0.
         25    1    4    4    0    0 -0.35882022009E+02  0.12615393295E+02 -0.38868269796E+02  0.13639984658E+03  0.12509000000E+03 0.  0.
         25    1    3    3    0    0  0.95635059775E+02 -0.54188139052E+02 -0.12413681514E+01  0.16652767988E+03  0.12509000000E+03 0.  0.
         25    1    4    4    0    0 -0.59753037765E+02  0.41572745757E+02 -0.13271314043E+03  0.19636446841E+03  0.12509000000E+03 0.  0.
<mgrwt>
<rscale>  2 0.46842799E+03</rscale>
<asrwt>0</asrwt>
<pdfrwt beam="1">  1       21 0.24005090E-01 0.46842799E+03</pdfrwt>
<pdfrwt beam="2">  1       21 0.49420203E-01 0.46842799E+03</pdfrwt>
<totfact> 0.58798174E+04</totfact>
</mgrwt>
</event>
<event>
 7    0  0.4737014E-002  0.4417952E+03  0.7546771E-02  0.1030197E+00
         21   -1    0    0  502  501  0.00000000000E+00  0.00000000000E+00  0.15289584964E+03  0.15289584964E+03  0.00000000000E+00 0.  1.
         21   -1    0    0  501  502 -0.00000000000E+00 -0.00000000000E+00 -0.31914366454E+03  0.31914366454E+03  0.00000000000E+00 0.  1.
      99926    2    1    2    0    0 -0.88817841970E-15 -0.17763568394E-14 -0.16624781490E+03  0.47203951418E+03  0.44179516406E+03 0.  0.
      99925    2    3    3    0    0  0.53865977557E+01 -0.12860487296E+02  0.20621698916E+00  0.26335587706E+03  0.26298644050E+03 0.  0.
         25    1    4    4    0    0  0.13770113646E+02  0.52504743590E+01  0.37304222974E+02  0.13136322416E+03  0.12509000000E+03 0.  0.
         25    1    4    4    0    0 -0.83835158905E+01 -0.18110961655E+02 -0.37098005985E+02  0.13199265290E+03  0.12509000000E+03 0.  0.
         25    1    3    3    0    0 -0.53865977557E+01  0.12860487296E+02 -0.16645403189E+03  0.20868363712E+03  0.12509000000E+03 0.  0.
<mgrwt>
<rscale>  2 0.44179516E+03</rscale>
<asrwt>0</asrwt>
<pdfrwt beam="1">  1       21 0.22484684E-01 0.44179516E+03</pdfrwt>
<pdfrwt beam="2">  1       21 0.46932891E-01 0.44179516E+03</pdfrwt>
<totfact> 0.74824429E+04</totfact>
</mgrwt>
</event>
<event>
 7    0  0.4737014E-002  0.4479629E+03  0.7546771E-02  0.1028331E+00
         21   -1    0    0  502  501  0.00000000000E+00  0.00000000000E+00  0.33286468443E+03  0.33286468443E+03  0.00000000000E+00 0.  1.
         21   -1    0    0  501  502 -0.00000000000E+00 -0.00000000000E+00 -0.15071499590E+03  0.15071499590E+03  0.00000000000E+00 0.  1.
      99926    2    1    2    0    0  0.35527136788E-14  0.00000000000E+00  0.18214968853E+03  0.48357968032E+03  0.44796294287E+03 0.  0.
      99925    2    3    3    0    0  0.31309675391E+02 -0.79927363173E+02  0.18336344860E+03  0.33186395777E+03  0.26295028623E+03 0.  0.
         25    1    3    3    0    0 -0.31309675391E+02  0.79927363173E+02 -0.12137600671E+01  0.15171572256E+03  0.12509000000E+03 0.  0.
         25    1    4    4    0    0  0.38645276655E+02 -0.24986428582E+02  0.54779580286E+02  0.14410443969E+03  0.12509000000E+03 0.  0.
         25    1    4    4    0    0 -0.73356012643E+01 -0.54940934591E+02  0.12858386831E+03  0.18775951808E+03  0.12509000000E+03 0.  0.
<mgrwt>
<rscale>  2 0.44796294E+03</rscale>
<asrwt>0</asrwt>
<pdfrwt beam="1">  1       21 0.48950689E-01 0.44796294E+03</pdfrwt>
<pdfrwt beam="2">  1       21 0.22163970E-01 0.44796294E+03</pdfrwt>
<totfact> 0.70285579E+04</totfact>
</mgrwt>
</event>
<event>
 7    0  0.4737014E-002  0.4622149E+03  0.7546771E-02  0.1024141E+00
         21   -1    0    0  502  501  0.00000000000E+00  0.00000000000E+00  0.23902359552E+04  0.23902359552E+04  0.00000000000E+00 0. -1.
         21   -1    0    0  501  502 -0.00000000000E+00 -0.00000000000E+00 -0.22345345215E+02  0.22345345215E+02  0.00000000000E+00 0. -1.
      99926    2    1    2    0    0  0.44408920985E-15  0.00000000000E+00  0.23678906100E+04  0.24125813004E+04  0.46221487455E+03 0.  0.
      99925    2    3    3    0    0  0.19385670089E+01 -0.83665472412E+02  0.19274845950E+04  0.19471689719E+04  0.26318524314E+03 0.  0.
         25    1    4    4    0    0 -0.91735965231E+01 -0.13431495396E+02  0.69947434176E+03  0.71075764000E+03  0.12509000000E+03 0.  0.
         25    1    3    3    0    0 -0.19385670089E+01  0.83665472412E+02  0.44040601502E+03  0.46541232846E+03  0.12509000000E+03 0.  0.
         25    1    4    4    0    0  0.11112163532E+02 -0.70233977017E+02  0.12280102532E+04  0.12364113319E+04  0.12509000000E+03 0.  0.
<mgrwt>
<rscale>  2 0.46221487E+03</rscale>
<asrwt>0</asrwt>
<pdfrwt beam="1">  1       21 0.35150511E+00 0.46221487E+03</pdfrwt>
<pdfrwt beam="2">  1       21 0.32860818E-02 0.46221487E+03</pdfrwt>
<totfact> 0.76310607E+03</totfact>
</mgrwt>
</event>
<event>
 7    0  0.4737014E-002  0.4567346E+03  0.7546771E-02  0.1025733E+00
         21   -1    0    0  502  501  0.00000000000E+00  0.00000000000E+00  0.22681681185E+03  0.22681681185E+03  0.00000000000E+00 0.  1.
         21   -1    0    0  501  502 -0.00000000000E+00 -0.00000000000E+00 -0.22992841845E+03  0.22992841845E+03  0.00000000000E+00 0.  1.
      99926    2    1    2    0    0  0.00000000000E+00  0.00000000000E+00 -0.31116066054E+01  0.45674523030E+03  0.45673463116E+03 0.  0.
      99925    2    3    3    0    0  0.17351250377E+02  0.51678393571E+02 -0.10288425208E+03  0.28770733178E+03  0.26309431233E+03 0.  0.
         25    1    4    4    0    0  0.34390419661E+02 -0.59950715490E+01 -0.48078792552E+02  0.13848364611E+03  0.12509000000E+03 0.  0.
         25    1    3    3    0    0 -0.17351250377E+02 -0.51678393571E+02  0.99772645476E+02  0.16903789852E+03  0.12509000000E+03 0.  0.
         25    1    4    4    0    0 -0.17039169284E+02  0.57673465120E+02 -0.54805459530E+02  0.14922368566E+03  0.12509000000E+03 0.  0.
<mgrwt>
<rscale>  2 0.45673463E+03</rscale>
<asrwt>0</asrwt>
<pdfrwt beam="1">  1       21 0.33355413E-01 0.45673463E+03</pdfrwt>
<pdfrwt beam="2">  1       21 0.33813003E-01 0.45673463E+03</pdfrwt>
<totfact> 0.67479326E+04</totfact>
</mgrwt>
</event>
<event>
 7    0  0.4737014E-002  0.4566345E+03  0.7546771E-02  0.1025762E+00
         21   -1    0    0  502  501  0.00000000000E+00  0.00000000000E+00  0.18943733880E+03  0.18943733880E+03  0.00000000000E+00 0. -1.
         21   -1    0    0  501  502 -0.00000000000E+00 -0.00000000000E+00 -0.27517679543E+03  0.27517679543E+03  0.00000000000E+00 0. -1.
      99926    2    1    2    0    0  0.00000000000E+00  0.17763568394E-14 -0.85739456633E+02  0.46461413424E+03  0.45663447013E+03 0.  0.
      99925    2    3    3    0    0  0.72003414405E+02 -0.51306355166E+01 -0.14461708441E+03  0.30864972080E+03  0.26294435521E+03 0.  0.
         25    1    4    4    0    0  0.35509830828E+02 -0.40397824206E+02 -0.88872426040E+02  0.16259996463E+03  0.12509000000E+03 0.  0.
         25    1    3    3    0    0 -0.72003414405E+02  0.51306355166E+01  0.58877627780E+02  0.15596441344E+03  0.12509000000E+03 0.  0.
         25    1    4    4    0    0  0.36493583577E+02  0.35267188690E+02 -0.55744658372E+02  0.14604975617E+03  0.12509000000E+03 0.  0.
<mgrwt>
<rscale>  2 0.45663447E+03</rscale>
<asrwt>0</asrwt>
<pdfrwt beam="1">  1       21 0.27858433E-01 0.45663447E+03</pdfrwt>
<pdfrwt beam="2">  1       21 0.40467175E-01 0.45663447E+03</pdfrwt>
<totfact> 0.66964516E+04</totfact>
</mgrwt>
</event>
<event>
 7    0  0.4737014E-002  0.4533857E+03  0.7546771E-02  0.1026717E+00
         21   -1    0    0  502  501  0.00000000000E+00  0.00000000000E+00  0.30140006902E+03  0.30140006902E+03  0.00000000000E+00 0.  1.
         21   -1    0    0  501  502 -0.00000000000E+00 -0.00000000000E+00 -0.17050310223E+03  0.17050310223E+03  0.00000000000E+00 0.  1.
      99926    2    1    2    0    0  0.00000000000E+00  0.71054273576E-14  0.13089696680E+03  0.47190317125E+03  0.45338569356E+03 0.  0.
      99925    2    3    3    0    0  0.42027848224E+02  0.49392020120E+02  0.17717195205E+03  0.32359675184E+03  0.26290501238E+03 0.  0.
         25    1    4    4    0    0  0.18413782904E+01  0.49078457627E+02  0.58562637630E+02  0.14659186984E+03  0.12509000000E+03 0.  0.
         25    1    3    3    0    0 -0.42027848224E+02 -0.49392020120E+02 -0.46274985249E+02  0.14830641941E+03  0.12509000000E+03 0.  0.
         25    1    4    4    0    0  0.40186469934E+02  0.31356249306E+00  0.11860931442E+03  0.17700488200E+03  0.12509000000E+03 0.  0.
<mgrwt>
<rscale>  2 0.45338569E+03</rscale>
<asrwt>0</asrwt>
<pdfrwt beam="1">  1       21 0.44323539E-01 0.45338569E+03</pdfrwt>
<pdfrwt beam="2">  1       21 0.25073986E-01 0.45338569E+03</pdfrwt>
<totfact> 0.68163376E+04</totfact>
</mgrwt>
</event>
<event>
 7    0  0.4737014E-002  0.4181522E+03  0.7546771E-02  0.1037669E+00
         21   -1    0    0  502  501  0.00000000000E+00  0.00000000000E+00  0.78446819481E+03  0.78446819481E+03  0.00000000000E+00 0.  1.
         21   -1    0    0  501  502 -0.00000000000E+00 -0.00000000000E+00 -0.55722876889E+02  0.55722876889E+02  0.00000000000E+00 0.  1.
      99926    2    1    2    0    0  0.00000000000E+00  0.35527136788E-14  0.72874531792E+03  0.84019107170E+03  0.41815224329E+03 0.  0.
      99925    2    3    3    0    0 -0.11993914231E+02 -0.18265004084E+02  0.61779508017E+03  0.67156447916E+03  0.26239402478E+03 0.  0.
         25    1    4    4    0    0 -0.29644440935E+02 -0.38185379098E+02  0.34954917564E+03  0.37439157355E+03  0.12509000000E+03 0.  0.
         25    1    3    3    0    0  0.11993914231E+02  0.18265004084E+02  0.11095023775E+03  0.16862659253E+03  0.12509000000E+03 0.  0.
         25    1    4    4    0    0  0.17650526703E+02  0.19920375014E+02  0.26824590452E+03  0.29717290561E+03  0.12509000000E+03 0.  0.
<mgrwt>
<rscale>  2 0.41815224E+03</rscale>
<asrwt>0</asrwt>
<pdfrwt beam="1">  1       21 0.11536296E+00 0.41815224E+03</pdfrwt>
<pdfrwt beam="2">  1       21 0.81945412E-02 0.41815224E+03</pdfrwt>
<totfact> 0.61931786E+04</totfact>
</mgrwt>
</event>
<event>
 7    0  0.4737014E-002  0.3924167E+03  0.7546771E-02  0.1046438E+00
         21   -1    0    0  502  501  0.00000000000E+00  0.00000000000E+00  0.10573154790E+04  0.10573154790E+04  0.00000000000E+00 0. -1.
         21   -1    0    0  501  502 -0.00000000000E+00 -0.00000000000E+00 -0.36410822348E+02  0.36410822348E+02  0.00000000000E+00 0. -1.
      99926    2    1    2    0    0  0.00000000000E+00 -0.35527136788E-14  0.10209046566E+04  0.10937263013E+04  0.39241674822E+03 0.  0.
      99925    2    3    3    0    0  0.25284252134E+02  0.97208048983E+01  0.69409099055E+03  0.74274415378E+03  0.26300720022E+03 0.  0.
         25    1    3    3    0    0 -0.25284252134E+02 -0.97208048983E+01  0.32681366609E+03  0.35098214754E+03  0.12509000000E+03 0.  0.
         25    1    4    4    0    0  0.38706751492E+02  0.32833271535E+02  0.39564132944E+03  0.41803804372E+03  0.12509000000E+03 0.  0.
         25    1    4    4    0    0 -0.13422499358E+02 -0.23112466637E+02  0.29844966110E+03  0.32470611007E+03  0.12509000000E+03 0.  0.
<mgrwt>
<rscale>  2 0.39241675E+03</rscale>
<asrwt>0</asrwt>
<pdfrwt beam="1">  1       21 0.15548755E+00 0.39241675E+03</pdfrwt>
<pdfrwt beam="2">  1       21 0.53545334E-02 0.39241675E+03</pdfrwt>
<totfact> 0.60131752E+04</totfact>
</mgrwt>
</event>
<event>
 7    0  0.4737014E-002  0.4478804E+03  0.7546771E-02  0.1028356E+00
         21   -1    0    0  502  501  0.00000000000E+00  0.00000000000E+00  0.43310938902E+03  0.43310938902E+03  0.00000000000E+00 0.  1.
         21   -1    0    0  501  502 -0.00000000000E+00 -0.00000000000E+00 -0.11578880082E+03  0.11578880082E+03  0.00000000000E+00 0.  1.
      99926    2    1    2    0    0  0.00000000000E+00  0.00000000000E+00  0.31732058820E+03  0.54889818985E+03  0.44788041610E+03 0.  0.
      99925    2    3    3    0    0 -0.60131324052E+02 -0.68581152151E+02  0.27062503852E+03  0.38719743839E+03  0.26146662169E+03 0.  0.
         25    1    4    4    0    0 -0.47853468187E+02 -0.11075969249E+02  0.16748705181E+03  0.21473716990E+03  0.12509000000E+03 0.  0.
         25    1    4    4    0    0 -0.12277855865E+02 -0.57505182902E+02  0.10313798671E+03  0.17246026849E+03  0.12509000000E+03 0.  0.
         25    1    3    3    0    0  0.60131324052E+02  0.68581152151E+02  0.46695549680E+02  0.16170075146E+03  0.12509000000E+03 0.  0.
<mgrwt>
<rscale>  2 0.44788042E+03</rscale>
<asrwt>0</asrwt>
<pdfrwt beam="1">  1       21 0.63692557E-01 0.44788042E+03</pdfrwt>
<pdfrwt beam="2">  1       21 0.17027765E-01 0.44788042E+03</pdfrwt>
<totfact> 0.65554799E+04</totfact>
</mgrwt>
</event>
<event>
 7    0  0.4737014E-002  0.4557092E+03  0.7546771E-02  0.1026033E+00
         21   -1    0    0  502  501  0.00000000000E+00  0.00000000000E+00  0.19707102755E+03  0.19707102755E+03  0.00000000000E+00 0.  1.
         21   -1    0    0  501  502 -0.00000000000E+00 -0.00000000000E+00 -0.26344670834E+03  0.26344670834E+03  0.00000000000E+00 0.  1.
      99926    2    1    2    0    0  0.00000000000E+00  0.00000000000E+00 -0.66375680784E+02  0.46051773589E+03  0.45570917707E+03 0.  0.
      99925    2    3    3    0    0 -0.12358957712E+02  0.10612194402E+03 -0.24444984214E+01  0.28402605049E+03  0.26315434814E+03 0.  0.
         25    1    3    3    0    0  0.12358957712E+02 -0.10612194402E+03 -0.63931182363E+02  0.17649168540E+03  0.12509000000E+03 0.  0.
         25    1    4    4    0    0  0.14730993734E+02  0.90379470163E+02 -0.35736215641E+01  0.15506685550E+03  0.12509000000E+03 0.  0.
         25    1    4    4    0    0 -0.27089951447E+02  0.15742473859E+02  0.11291231427E+01  0.12895919499E+03  0.12509000000E+03 0.  0.
<mgrwt>
<rscale>  2 0.45570918E+03</rscale>
<asrwt>0</asrwt>
<pdfrwt beam="1">  1       21 0.28981033E-01 0.45570918E+03</pdfrwt>
<pdfrwt beam="2">  1       21 0.38742163E-01 0.45570918E+03</pdfrwt>
<totfact> 0.67758840E+04</totfact>
</mgrwt>
</event>
<event>
 7    0  0.4737014E-002  0.4631198E+03  0.7546771E-02  0.1023880E+00
         21   -1    0    0  502  501  0.00000000000E+00  0.00000000000E+00  0.28707573681E+02  0.28707573681E+02  0.00000000000E+00 0. -1.
         21   -1    0    0  501  502 -0.00000000000E+00 -0.00000000000E+00 -0.18677994857E+04  0.18677994857E+04  0.00000000000E+00 0. -1.
      99926    2    1    2    0    0 -0.14210854715E-13 -0.71054273576E-14 -0.18390919120E+04  0.18965070594E+04  0.46311981757E+03 0.  0.
      99925    2    3    3    0    0  0.10760781683E+03  0.50608523377E+02 -0.12322621369E+04  0.12656104363E+04  0.26298124967E+03 0.  0.
         25    1    4    4    0    0  0.16728178761E+02  0.37773133496E+02 -0.63544910872E+03  0.64896049144E+03  0.12509000000E+03 0.  0.
         25    1    4    4    0    0  0.90879638069E+02  0.12835389880E+02 -0.59681302815E+03  0.61664994488E+03  0.12509000000E+03 0.  0.
         25    1    3    3    0    0 -0.10760781683E+03 -0.50608523377E+02 -0.60682977514E+03  0.63089662305E+03  0.12509000000E+03 0.  0.
<mgrwt>
<rscale>  2 0.46311982E+03</rscale>
<asrwt>0</asrwt>
<pdfrwt beam="1">  1       21 0.42217022E-02 0.46311982E+03</pdfrwt>
<pdfrwt beam="2">  1       21 0.27467638E+00 0.46311982E+03</pdfrwt>
<totfact> 0.14536162E+04</totfact>
</mgrwt>
</event>
<event>
 7    0  0.4737014E-002  0.4385571E+03  0.7546771E-02  0.1031190E+00
         21   -1    0    0  502  501  0.00000000000E+00  0.00000000000E+00  0.53475186518E+02  0.53475186518E+02  0.00000000000E+00 0. -1.
         21   -1    0    0  501  502 -0.00000000000E+00 -0.00000000000E+00 -0.89916605655E+03  0.89916605655E+03  0.00000000000E+00 0. -1.
      99926    2    1    2    0    0 -0.35527136788E-14  0.00000000000E+00 -0.84569087003E+03  0.95264124307E+03  0.43855705483E+03 0.  0.
      99925    2    3    3    0    0 -0.19764731581E+02 -0.57807066236E+02 -0.37692209305E+03  0.46363820024E+03  0.26297873483E+03 0.  0.
         25    1    3    3    0    0  0.19764731581E+02  0.57807066236E+02 -0.46876877698E+03  0.48900304282E+03  0.12509000000E+03 0.  0.
         25    1    4    4    0    0 -0.79345607105E+00  0.55169914889E+01 -0.14125621467E+03  0.18876412014E+03  0.12509000000E+03 0.  0.
         25    1    4    4    0    0 -0.18971275510E+02 -0.63324057725E+02 -0.23566587838E+03  0.27487408011E+03  0.12509000000E+03 0.  0.
<mgrwt>
<rscale>  2 0.43855705E+03</rscale>
<asrwt>0</asrwt>
<pdfrwt beam="1">  1       21 0.78639985E-02 0.43855705E+03</pdfrwt>
<pdfrwt beam="2">  1       21 0.13223029E+00 0.43855705E+03</pdfrwt>
<totfact> 0.46763263E+04</totfact>
</mgrwt>
</event>
<event>
 7    0  0.4737014E-002  0.4709707E+03  0.7546771E-02  0.1021647E+00
         21   -1    0    0  502  501  0.00000000000E+00  0.00000000000E+00  0.86685737636E+02  0.86685737636E+02  0.00000000000E+00 0. -1.
         21   -1    0    0  501  502 -0.00000000000E+00 -0.00000000000E+00 -0.63970564931E+03  0.63970564931E+03  0.00000000000E+00 0. -1.
      99926    2    1    2    0    0  0.00000000000E+00  0.00000000000E+00 -0.55301991168E+03  0.72639138695E+03  0.47097072555E+03 0.  0.
      99925    2    3    3    0    0  0.69092310280E+02 -0.46217156913E+02 -0.19414964217E+03  0.33736034530E+03  0.26307441170E+03 0.  0.
         25    1    4    4    0    0  0.51309668387E+02 -0.25863639948E+02 -0.14590380309E+03  0.20059171917E+03  0.12509000000E+03 0.  0.
         25    1    4    4    0    0  0.17782641893E+02 -0.20353516964E+02 -0.48245839080E+02  0.13676862613E+03  0.12509000000E+03 0.  0.
         25    1    3    3    0    0 -0.69092310280E+02  0.46217156913E+02 -0.35887026951E+03  0.38903104165E+03  0.12509000000E+03 0.  0.
<mgrwt>
<rscale>  2 0.47097073E+03</rscale>
<asrwt>0</asrwt>
<pdfrwt beam="1">  1       21 0.12747903E-01 0.47097073E+03</pdfrwt>
<pdfrwt beam="2">  1       21 0.94074359E-01 0.47097073E+03</pdfrwt>
<totfact> 0.45503000E+04</totfact>
</mgrwt>
</event>
<event>
 7    0  0.4737014E-002  0.4550173E+03  0.7546771E-02  0.1026236E+00
         21   -1    0    0  502  501  0.00000000000E+00  0.00000000000E+00  0.17545314137E+04  0.17545314137E+04  0.00000000000E+00 0. -1.
         21   -1    0    0  501  502 -0.00000000000E+00 -0.00000000000E+00 -0.29500857592E+02  0.29500857592E+02  0.00000000000E+00 0. -1.
      99926    2    1    2    0    0  0.17763568394E-14  0.35527136788E-14  0.17250305561E+04  0.17840322713E+04  0.45501728045E+03 0.  0.
      99925    2    3    3    0    0  0.34072163875E+01 -0.25188398818E+02  0.15164937812E+04  0.15395304121E+04  0.26411065262E+03 0.  0.
         25    1    4    4    0    0  0.42284954712E+02 -0.20880359489E+02  0.81673706140E+03  0.82760554757E+03  0.12509000000E+03 0.  0.
         25    1    3    3    0    0 -0.34072163875E+01  0.25188398818E+02  0.20853677496E+03  0.24450185923E+03  0.12509000000E+03 0.  0.
         25    1    4    4    0    0 -0.38877738324E+02 -0.43080393291E+01  0.69975671976E+03  0.71192486450E+03  0.12509000000E+03 0.  0.
<mgrwt>
<rscale>  2 0.45501728E+03</rscale>
<asrwt>0</asrwt>
<pdfrwt beam="1">  1       21 0.25801926E+00 0.45501728E+03</pdfrwt>
<pdfrwt beam="2">  1       21 0.43383626E-02 0.45501728E+03</pdfrwt>
<totfact> 0.17565935E+04</totfact>
</mgrwt>
</event>
<event>
 7    0  0.4737014E-002  0.4319324E+03  0.7546771E-02  0.1033251E+00
         21   -1    0    0  502  501  0.00000000000E+00  0.00000000000E+00  0.27745481948E+03  0.27745481948E+03  0.00000000000E+00 0. -1.
         21   -1    0    0  501  502 -0.00000000000E+00 -0.00000000000E+00 -0.16810445959E+03  0.16810445959E+03  0.00000000000E+00 0. -1.
      99926    2    1    2    0    0 -0.14210854715E-13  0.00000000000E+00  0.10935035990E+03  0.44555927907E+03  0.43193236734E+03 0.  0.
      99925    2    3    3    0    0 -0.84221838614E+02 -0.42924465766E+01  0.10214906495E+03  0.29452580613E+03  0.26305755228E+03 0.  0.
         25    1    4    4    0    0 -0.10882929981E+02 -0.26419264828E+02  0.61657883811E+02  0.14235736179E+03  0.12509000000E+03 0.  0.
         25    1    3    3    0    0  0.84221838614E+02  0.42924465766E+01  0.72012949492E+01  0.15103347293E+03  0.12509000000E+03 0.  0.
         25    1    4    4    0    0 -0.73338908633E+02  0.22126818251E+02  0.40491181136E+02  0.15216844435E+03  0.12509000000E+03 0.  0.
<mgrwt>
<rscale>  2 0.43193237E+03</rscale>
<asrwt>0</asrwt>
<pdfrwt beam="1">  1       21 0.40802180E-01 0.43193237E+03</pdfrwt>
<pdfrwt beam="2">  1       21 0.24721244E-01 0.43193237E+03</pdfrwt>
<totfact> 0.83573582E+04</totfact>
</mgrwt>
</event>
<event>
 7    0  0.4737014E-002  0.4540792E+03  0.7546771E-02  0.1026513E+00
         21   -1    0    0  502  501  0.00000000000E+00  0.00000000000E+00  0.34392697960E+03  0.34392697960E+03  0.00000000000E+00 0. -1.
         21   -1    0    0  501  502 -0.00000000000E+00 -0.00000000000E+00 -0.14987767477E+03  0.14987767477E+03  0.00000000000E+00 0. -1.
      99926    2    1    2    0    0  0.00000000000E+00  0.00000000000E+00  0.19404930483E+03  0.49380465436E+03  0.45407918248E+03 0.  0.
      99925    2    3    3    0    0 -0.34148007008E+02 -0.96005119132E+02  0.17305953160E+03  0.33110509087E+03  0.26324496280E+03 0.  0.
         25    1    4    4    0    0 -0.46225138992E+02 -0.72496138616E+02  0.71302607401E+02  0.16770218696E+03  0.12509000000E+03 0.  0.
         25    1    3    3    0    0  0.34148007008E+02  0.96005119132E+02  0.20989773230E+02  0.16269956350E+03  0.12509000000E+03 0.  0.
         25    1    4    4    0    0  0.12077131984E+02 -0.23508980515E+02  0.10175692420E+03  0.16340290391E+03  0.12509000000E+03 0.  0.
<mgrwt>
<rscale>  2 0.45407918E+03</rscale>
<asrwt>0</asrwt>
<pdfrwt beam="1">  1       21 0.50577497E-01 0.45407918E+03</pdfrwt>
<pdfrwt beam="2">  1       21 0.22040835E-01 0.45407918E+03</pdfrwt>
<totfact> 0.66190657E+04</totfact>
</mgrwt>
</event>
<event>
 7    0  0.4737014E-002  0.4864625E+03  0.7546771E-02  0.1017374E+00
         21   -1    0    0  502  501  0.00000000000E+00  0.00000000000E+00  0.41517137549E+03  0.41517137549E+03  0.00000000000E+00 0.  1.
         21   -1    0    0  501  502 -0.00000000000E+00 -0.00000000000E+00 -0.14249882427E+03  0.14249882427E+03  0.00000000000E+00 0.  1.
      99926    2    1    2    0    0  0.00000000000E+00  0.00000000000E+00  0.27267255122E+03  0.55767019977E+03  0.48646246671E+03 0.  0.
      99925    2    3    3    0    0  0.24350561641E+02  0.11513687102E+02  0.32541762272E+03  0.41926837351E+03  0.26299016143E+03 0.  0.
         25    1    3    3    0    0 -0.24350561641E+02 -0.11513687102E+02 -0.52745071496E+02  0.13840182625E+03  0.12509000000E+03 0.  0.
         25    1    4    4    0    0  0.19580751369E+02 -0.14018823593E+02  0.21737100531E+03  0.25194760426E+03  0.12509000000E+03 0.  0.
         25    1    4    4    0    0  0.47698102722E+01  0.25532510695E+02  0.10804661740E+03  0.16732076926E+03  0.12509000000E+03 0.  0.
<mgrwt>
<rscale>  2 0.48646247E+03</rscale>
<asrwt>0</asrwt>
<pdfrwt beam="1">  1       21 0.61054614E-01 0.48646247E+03</pdfrwt>
<pdfrwt beam="2">  1       21 0.20955710E-01 0.48646247E+03</pdfrwt>
<totfact> 0.48188893E+04</totfact>
</mgrwt>
</event>
<event>
 7    0  0.4737014E-002  0.4525084E+03  0.7546771E-02  0.1026977E+00
         21   -1    0    0  502  501  0.00000000000E+00  0.00000000000E+00  0.10350352689E+04  0.10350352689E+04  0.00000000000E+00 0.  1.
         21   -1    0    0  501  502 -0.00000000000E+00 -0.00000000000E+00 -0.49458178680E+02  0.49458178680E+02  0.00000000000E+00 0.  1.
      99926    2    1    2    0    0  0.00000000000E+00  0.00000000000E+00  0.98557709023E+03  0.10844934476E+04  0.45250838343E+03 0.  0.
      99925    2    3    3    0    0  0.36545664059E+02  0.12331413215E+02  0.87210336620E+03  0.91125533556E+03  0.26140840832E+03 0.  0.
         25    1    4    4    0    0  0.47706476292E+02  0.26808924084E+02  0.40784252686E+03  0.43009029413E+03  0.12509000000E+03 0.  0.
         25    1    3    3    0    0 -0.36545664059E+02 -0.12331413215E+02  0.11347372403E+03  0.17323811203E+03  0.12509000000E+03 0.  0.
         25    1    4    4    0    0 -0.11160812232E+02 -0.14477510869E+02  0.46426083934E+03  0.48116504143E+03  0.12509000000E+03 0.  0.
<mgrwt>
<rscale>  2 0.45250838E+03</rscale>
<asrwt>0</asrwt>
<pdfrwt beam="1">  1       21 0.15221106E+00 0.45250838E+03</pdfrwt>
<pdfrwt beam="2">  1       21 0.72732622E-02 0.45250838E+03</pdfrwt>
<totfact> 0.36745765E+04</totfact>
</mgrwt>
</event>
<event>
 7    0  0.4737014E-002  0.4588756E+03  0.7546771E-02  0.1025108E+00
         21   -1    0    0  502  501  0.00000000000E+00  0.00000000000E+00  0.79315303073E+02  0.79315303073E+02  0.00000000000E+00 0.  1.
         21   -1    0    0  501  502 -0.00000000000E+00 -0.00000000000E+00 -0.66370184663E+03  0.66370184663E+03  0.00000000000E+00 0.  1.
      99926    2    1    2    0    0  0.00000000000E+00 -0.35527136788E-14 -0.58438654356E+03  0.74301714970E+03  0.45887563943E+03 0.  0.
      99925    2    3    3    0    0  0.11070553160E+03 -0.29038843270E+02 -0.40053230947E+03  0.49291945552E+03  0.26352322394E+03 0.  0.
         25    1    4    4    0    0  0.66034785316E+02 -0.55281990111E+02 -0.20763239316E+03  0.25724581647E+03  0.12509000000E+03 0.  0.
         25    1    3    3    0    0 -0.11070553160E+03  0.29038843270E+02 -0.18385423409E+03  0.25009769418E+03  0.12509000000E+03 0.  0.
         25    1    4    4    0    0  0.44670746281E+02  0.26243146841E+02 -0.19289991632E+03  0.23567363905E+03  0.12509000000E+03 0.  0.
<mgrwt>
<rscale>  2 0.45887564E+03</rscale>
<asrwt>0</asrwt>
<pdfrwt beam="1">  1       21 0.11664015E-01 0.45887564E+03</pdfrwt>
<pdfrwt beam="2">  1       21 0.97603214E-01 0.45887564E+03</pdfrwt>
<totfact> 0.49115303E+04</totfact>
</mgrwt>
</event>
<event>
 7    0  0.4737014E-002  0.4574290E+03  0.7546771E-02  0.1025530E+00
         21   -1    0    0  502  501  0.00000000000E+00  0.00000000000E+00  0.28020977759E+03  0.28020977759E+03  0.00000000000E+00 0. -1.
         21   -1    0    0  501  502 -0.00000000000E+00 -0.00000000000E+00 -0.18668267679E+03  0.18668267679E+03  0.00000000000E+00 0. -1.
      99926    2    1    2    0    0  0.00000000000E+00  0.53290705182E-14  0.93527100803E+02  0.46689245439E+03  0.45742895118E+03 0.  0.
      99925    2    3    3    0    0  0.76142568229E+02  0.98749680568E+01 -0.29181513335E+02  0.27558088188E+03  0.26305523383E+03 0.  0.
         25    1    3    3    0    0 -0.76142568229E+02 -0.98749680568E+01  0.12270861414E+03  0.19131157250E+03  0.12509000000E+03 0.  0.
         25    1    4    4    0    0  0.50511964662E+02  0.41905409973E+02 -0.26394691571E+01  0.14128693095E+03  0.12509000000E+03 0.  0.
         25    1    4    4    0    0  0.25630603567E+02 -0.32030441916E+02 -0.26542044177E+02  0.13429395093E+03  0.12509000000E+03 0.  0.
<mgrwt>
<rscale>  2 0.45742895E+03</rscale>
<asrwt>0</asrwt>
<pdfrwt beam="1">  1       21 0.41207320E-01 0.45742895E+03</pdfrwt>
<pdfrwt beam="2">  1       21 0.27453335E-01 0.45742895E+03</pdfrwt>
<totfact> 0.66379075E+04</totfact>
</mgrwt>
</event>
<event>
 7    0  0.4737014E-002  0.4523512E+03  0.7546771E-02  0.1027023E+00
         21   -1    0    0  502  501  0.00000000000E+00  0.00000000000E+00  0.28840798375E+03  0.28840798375E+03  0.00000000000E+00 0.  1.
         21   -1    0    0  501  502 -0.00000000000E+00 -0.00000000000E+00 -0.17737163575E+03  0.17737163575E+03  0.00000000000E+00 0.  1.
      99926    2    1    2    0    0  0.44408920985E-15  0.00000000000E+00  0.11103634800E+03  0.46577961950E+03  0.45235117261E+03 0.  0.
      99925    2    3    3    0    0  0.51677878993E+00 -0.11006114646E+03  0.57757245404E+02  0.29085136594E+03  0.26295416835E+03 0.  0.
         25    1    3    3    0    0 -0.51677878993E+00  0.11006114646E+03  0.53279102595E+02  0.17492825356E+03  0.12509000000E+03 0.  0.
         25    1    4    4    0    0 -0.28836055008E+02 -0.81620639800E+02  0.44994290865E+02  0.15863619139E+03  0.12509000000E+03 0.  0.
         25    1    4    4    0    0  0.29352833798E+02 -0.28440506660E+02  0.12762954540E+02  0.13221517454E+03  0.12509000000E+03 0.  0.
<mgrwt>
<rscale>  2 0.45235117E+03</rscale>
<asrwt>0</asrwt>
<pdfrwt beam="1">  1       21 0.42412939E-01 0.45235117E+03</pdfrwt>
<pdfrwt beam="2">  1       21 0.26084064E-01 0.45235117E+03</pdfrwt>
<totfact> 0.69193482E+04</totfact>
</mgrwt>
</event>
<event>
 7    0  0.4737014E-002  0.4346264E+03  0.7546771E-02  0.1032408E+00
         21   -1    0    0  502  501  0.00000000000E+00  0.00000000000E+00  0.17870825271E+02  0.17870825271E+02  0.00000000000E+00 0.  1.
         21   -1    0    0  501  502 -0.00000000000E+00 -0.00000000000E+00 -0.26425763563E+04  0.26425763563E+04  0.00000000000E+00 0.  1.
      99926    2    1    2    0    0  0.14210854715E-13 -0.71054273576E-14 -0.26247055310E+04  0.26604471816E+04  0.43462636978E+03 0.  0.
      99925    2    3    3    0    0 -0.78465118523E+02  0.45997110310E+02 -0.16881932007E+04  0.17112499619E+04  0.26477847351E+03 0.  0.
         25    1    4    4    0    0 -0.53320464272E+02  0.44897997757E+01 -0.62588707562E+03  0.64050399667E+03  0.12509000000E+03 0.  0.
         25    1    4    4    0    0 -0.25144654251E+02  0.41507310534E+02 -0.10623061251E+04  0.10707459652E+04  0.12509000000E+03 0.  0.
         25    1    3    3    0    0  0.78465118523E+02 -0.45997110310E+02 -0.93651233028E+03  0.94919721968E+03  0.12509000000E+03 0.  0.
<mgrwt>
<rscale>  2 0.43462637E+03</rscale>
<asrwt>0</asrwt>
<pdfrwt beam="1">  1       21 0.26280611E-02 0.43462637E+03</pdfrwt>
<pdfrwt beam="2">  1       21 0.38861438E+00 0.43462637E+03</pdfrwt>
<totfact> 0.66126600E+03</totfact>
</mgrwt>
</event>
<event>
 7    0  0.4737014E-002  0.4421011E+03  0.7546771E-02  0.1030104E+00
         21   -1    0    0  502  501  0.00000000000E+00  0.00000000000E+00  0.23783289890E+02  0.23783289890E+02  0.00000000000E+00 0. -1.
         21   -1    0    0  501  502 -0.00000000000E+00 -0.00000000000E+00 -0.20545246221E+04  0.20545246221E+04  0.00000000000E+00 0. -1.
      99926    2    1    2    0    0  0.14210854715E-13  0.35527136788E-14 -0.20307413322E+04  0.20783079120E+04  0.44210114080E+03 0.  0.
      99925    2    3    3    0    0 -0.97303550413E+02 -0.17404525273E+02 -0.12259472516E+04  0.12578739301E+04  0.26368401884E+03 0.  0.
         25    1    4    4    0    0 -0.74215134576E+02  0.38314057226E+01 -0.50756890817E+03  0.52801161967E+03  0.12509000000E+03 0.  0.
         25    1    3    3    0    0  0.97303550413E+02  0.17404525273E+02 -0.80479408057E+03  0.82043398189E+03  0.12509000000E+03 0.  0.
         25    1    4    4    0    0 -0.23088415838E+02 -0.21235930995E+02 -0.71837834345E+03  0.72986231040E+03  0.12509000000E+03 0.  0.
<mgrwt>
<rscale>  2 0.44210114E+03</rscale>
<asrwt>0</asrwt>
<pdfrwt beam="1">  1       21 0.34975437E-02 0.44210114E+03</pdfrwt>
<pdfrwt beam="2">  1       21 0.30213588E+00 0.44210114E+03</pdfrwt>
<totfact> 0.13804924E+04</totfact>
</mgrwt>
</event>
<event>
 7    0  0.4737014E-002  0.4570085E+03  0.7546771E-02  0.1025652E+00
         21   -1    0    0  502  501  0.00000000000E+00  0.00000000000E+00  0.38452979966E+03  0.38452979966E+03  0.00000000000E+00 0. -1.
         21   -1    0    0  501  502 -0.00000000000E+00 -0.00000000000E+00 -0.13578709417E+03  0.13578709417E+03  0.00000000000E+00 0. -1.
      99926    2    1    2    0    0  0.17763568394E-14  0.00000000000E+00  0.24874270550E+03  0.52031689383E+03  0.45700846433E+03 0.  0.
      99925    2    3    3    0    0  0.11445361854E+02  0.11024906226E+03  0.19125944165E+03  0.34357503190E+03  0.26301668481E+03 0.  0.
         25    1    4    4    0    0  0.25634995821E+02  0.46256262438E+02  0.52541758743E+02  0.14561915855E+03  0.12509000000E+03 0.  0.
         25    1    3    3    0    0 -0.11445361854E+02 -0.11024906226E+03  0.57483263846E+02  0.17674186193E+03  0.12509000000E+03 0.  0.
         25    1    4    4    0    0 -0.14189633967E+02  0.63992799818E+02  0.13871768291E+03  0.19795587335E+03  0.12509000000E+03 0.  0.
<mgrwt>
<rscale>  2 0.45700846E+03</rscale>
<asrwt>0</asrwt>
<pdfrwt beam="1">  1       21 0.56548500E-01 0.45700846E+03</pdfrwt>
<pdfrwt beam="2">  1       21 0.19968690E-01 0.45700846E+03</pdfrwt>
<totfact> 0.62858041E+04</totfact>
</mgrwt>
</event>
<event>
 7    0  0.4737014E-002  0.4567961E+03  0.7546771E-02  0.1025715E+00
         21   -1    0    0  502  501  0.00000000000E+00  0.00000000000E+00  0.77275090718E+02  0.77275090718E+02  0.00000000000E+00 0.  1.
         21   -1    0    0  501  502 -0.00000000000E+00 -0.00000000000E+00 -0.67506456678E+03  0.67506456678E+03  0.00000000000E+00 0.  1.
      99926    2    1    2    0    0  0.35527136788E-14  0.14210854715E-13 -0.59778947606E+03  0.75233965749E+03  0.45679612800E+03 0.  0.
      99925    2    3    3    0    0 -0.18726608300E+02 -0.11334497324E+03 -0.38072725223E+03  0.47672890674E+03  0.26290576471E+03 0.  0.
         25    1    4    4    0    0 -0.43643612028E+02 -0.55213898882E+02 -0.15701435252E+03  0.21273070887E+03  0.12509000000E+03 0.  0.
         25    1    4    4    0    0  0.24917003728E+02 -0.58131074358E+02 -0.22371289971E+03  0.26399819787E+03  0.12509000000E+03 0.  0.
         25    1    3    3    0    0  0.18726608300E+02  0.11334497324E+03 -0.21706222382E+03  0.27561075075E+03  0.12509000000E+03 0.  0.
<mgrwt>
<rscale>  2 0.45679613E+03</rscale>
<asrwt>0</asrwt>
<pdfrwt beam="1">  1       21 0.11363984E-01 0.45679613E+03</pdfrwt>
<pdfrwt beam="2">  1       21 0.99274198E-01 0.45679613E+03</pdfrwt>
<totfact> 0.49449950E+04</totfact>
</mgrwt>
</event>
<event>
 7    0  0.4737014E-002  0.4221326E+03  0.7546771E-02  0.1036374E+00
         21   -1    0    0  502  501  0.00000000000E+00  0.00000000000E+00  0.14631985216E+03  0.14631985216E+03  0.00000000000E+00 0.  1.
         21   -1    0    0  501  502 -0.00000000000E+00 -0.00000000000E+00 -0.30446295468E+03  0.30446295468E+03  0.00000000000E+00 0.  1.
      99926    2    1    2    0    0  0.00000000000E+00  0.00000000000E+00 -0.15814310252E+03  0.45078280683E+03  0.42213255982E+03 0.  0.
      99925    2    3    3    0    0  0.19341898327E+02  0.69856900298E+02 -0.13474764806E+03  0.30432820315E+03  0.26306773087E+03 0.  0.
         25    1    3    3    0    0 -0.19341898327E+02 -0.69856900298E+02 -0.23395454452E+02  0.14645460368E+03  0.12509000000E+03 0.  0.
         25    1    4    4    0    0  0.46773166714E+02  0.18755712127E+02 -0.61922710549E+02  0.14839621304E+03  0.12509000000E+03 0.  0.
         25    1    4    4    0    0 -0.27431268387E+02  0.51101188170E+02 -0.72824937516E+02  0.15593199012E+03  0.12509000000E+03 0.  0.
<mgrwt>
<rscale>  2 0.42213256E+03</rscale>
<asrwt>0</asrwt>
<pdfrwt beam="1">  1       21 0.21517625E-01 0.42213256E+03</pdfrwt>
<pdfrwt beam="2">  1       21 0.44773964E-01 0.42213256E+03</pdfrwt>
<totfact> 0.90224614E+04</totfact>
</mgrwt>
</event>
<event>
 7    0  0.4737014E-002  0.4643889E+03  0.7546771E-02  0.1023516E+00
         21   -1    0    0  502  501  0.00000000000E+00  0.00000000000E+00  0.12783303336E+03  0.12783303336E+03  0.00000000000E+00 0.  1.
         21   -1    0    0  501  502 -0.00000000000E+00 -0.00000000000E+00 -0.42175539391E+03  0.42175539391E+03  0.00000000000E+00 0.  1.
      99926    2    1    2    0    0  0.00000000000E+00  0.00000000000E+00 -0.29392236055E+03  0.54958842727E+03  0.46438893759E+03 0.  0.
      99925    2    3    3    0    0  0.44720040089E+02  0.10838674235E+03 -0.22235977069E+03  0.36380285121E+03  0.26298494069E+03 0.  0.
         25    1    4    4    0    0  0.50875841365E+02  0.83676669478E+02 -0.14110268899E+03  0.21247967712E+03  0.12509000000E+03 0.  0.
         25    1    3    3    0    0 -0.44720040089E+02 -0.10838674235E+03 -0.71562589864E+02  0.18578557606E+03  0.12509000000E+03 0.  0.
         25    1    4    4    0    0 -0.61558012764E+01  0.24710072873E+02 -0.81257081693E+02  0.15132317409E+03  0.12509000000E+03 0.  0.
<mgrwt>
<rscale>  2 0.46438894E+03</rscale>
<asrwt>0</asrwt>
<pdfrwt beam="1">  1       21 0.18798975E-01 0.46438894E+03</pdfrwt>
<pdfrwt beam="2">  1       21 0.62022852E-01 0.46438894E+03</pdfrwt>
<totfact> 0.57501260E+04</totfact>
</mgrwt>
</event>
<event>
 7    0  0.4737014E-002  0.4559054E+03  0.7546771E-02  0.1025975E+00
         21   -1    0    0  502  501  0.00000000000E+00  0.00000000000E+00  0.51519393997E+02  0.51519393997E+02  0.00000000000E+00 0.  1.
         21   -1    0    0  501  502 -0.00000000000E+00 -0.00000000000E+00 -0.10085995142E+04  0.10085995142E+04  0.00000000000E+00 0.  1.
      99926    2    1    2    0    0  0.00000000000E+00  0.00000000000E+00 -0.95708012022E+03  0.10601189082E+04  0.45590541018E+03 0.  0.
      99925    2    3    3    0    0  0.10386754843E+03 -0.45642649908E+02 -0.62707175331E+03  0.68941046559E+03  0.26305149144E+03 0.  0.
         25    1    4    4    0    0  0.21260646501E+02 -0.42611647291E+02 -0.24902790607E+03  0.28271924886E+03  0.12509000000E+03 0.  0.
         25    1    4    4    0    0  0.82606901928E+02 -0.30310026169E+01 -0.37804384725E+03  0.40669121673E+03  0.12509000000E+03 0.  0.
         25    1    3    3    0    0 -0.10386754843E+03  0.45642649908E+02 -0.33000836690E+03  0.37070844263E+03  0.12509000000E+03 0.  0.
<mgrwt>
<rscale>  2 0.45590541E+03</rscale>
<asrwt>0</asrwt>
<pdfrwt beam="1">  1       21 0.75763817E-02 0.45590541E+03</pdfrwt>
<pdfrwt beam="2">  1       21 0.14832345E+00 0.45590541E+03</pdfrwt>
<totfact> 0.36648621E+04</totfact>
</mgrwt>
</event>
<event>
 7    0  0.4737014E-002  0.4325003E+03  0.7546771E-02  0.1033073E+00
         21   -1    0    0  502  501  0.00000000000E+00  0.00000000000E+00  0.37194076716E+03  0.37194076716E+03  0.00000000000E+00 0.  1.
         21   -1    0    0  501  502 -0.00000000000E+00 -0.00000000000E+00 -0.12573002490E+03  0.12573002490E+03  0.00000000000E+00 0.  1.
      99926    2    1    2    0    0 -0.71054273576E-14  0.17763568394E-14  0.24621074226E+03  0.49767079205E+03  0.43250027475E+03 0.  0.
      99925    2    3    3    0    0 -0.41132801446E+02  0.67621530063E+01  0.25073766907E+03  0.36574037390E+03  0.26298100376E+03 0.  0.
         25    1    3    3    0    0  0.41132801446E+02 -0.67621530063E+01 -0.45269268092E+01  0.13193041815E+03  0.12509000000E+03 0.  0.
         25    1    4    4    0    0 -0.47328871908E+02 -0.25196275137E+02  0.11347106407E+03  0.17719499112E+03  0.12509000000E+03 0.  0.
         25    1    4    4    0    0  0.61960704625E+01  0.31958428144E+02  0.13726660500E+03  0.18854538278E+03  0.12509000000E+03 0.  0.
<mgrwt>
<rscale>  2 0.43250027E+03</rscale>
<asrwt>0</asrwt>
<pdfrwt beam="1">  1       21 0.54697171E-01 0.43250027E+03</pdfrwt>
<pdfrwt beam="2">  1       21 0.18489710E-01 0.43250027E+03</pdfrwt>
<totfact> 0.78549416E+04</totfact>
</mgrwt>
</event>
<event>
 7    0  0.4737014E-002  0.4587795E+03  0.7546771E-02  0.1025136E+00
         21   -1    0    0  502  501  0.00000000000E+00  0.00000000000E+00  0.41849099514E+03  0.41849099514E+03  0.00000000000E+00 0. -1.
         21   -1    0    0  501  502 -0.00000000000E+00 -0.00000000000E+00 -0.12573665669E+03  0.12573665669E+03  0.00000000000E+00 0. -1.
      99926    2    1    2    0    0  0.35527136788E-14  0.00000000000E+00  0.29275433845E+03  0.54422765183E+03  0.45877950514E+03 0.  0.
      99925    2    3    3    0    0  0.22688614985E+02  0.76258377474E+02  0.82135782240E+02  0.28666640143E+03  0.26287111976E+03 0.  0.
         25    1    4    4    0    0 -0.22552343377E+02  0.60101739001E+02  0.44800069032E+02  0.14756483832E+03  0.12509000000E+03 0.  0.
         25    1    3    3    0    0 -0.22688614985E+02 -0.76258377474E+02  0.21061855621E+03  0.25756125039E+03  0.12509000000E+03 0.  0.
         25    1    4    4    0    0  0.45240958362E+02  0.16156638473E+02  0.37335713207E+02  0.13910156311E+03  0.12509000000E+03 0.  0.
<mgrwt>
<rscale>  2 0.45877951E+03</rscale>
<asrwt>0</asrwt>
<pdfrwt beam="1">  1       21 0.61542793E-01 0.45877951E+03</pdfrwt>
<pdfrwt beam="2">  1       21 0.18490685E-01 0.45877951E+03</pdfrwt>
<totfact> 0.60422103E+04</totfact>
</mgrwt>
</event>
<event>
 7    0  0.4737014E-002  0.4558884E+03  0.7546771E-02  0.1025980E+00
         21   -1    0    0  502  501  0.00000000000E+00  0.00000000000E+00  0.32423600415E+02  0.32423600415E+02  0.00000000000E+00 0. -1.
         21   -1    0    0  501  502 -0.00000000000E+00 -0.00000000000E+00 -0.16024918444E+04  0.16024918444E+04  0.00000000000E+00 0. -1.
      99926    2    1    2    0    0  0.00000000000E+00  0.00000000000E+00 -0.15700682440E+04  0.16349154449E+04  0.45588838649E+03 0.  0.
      99925    2    3    3    0    0  0.84415869220E+02 -0.59719817790E+02 -0.11601502309E+04  0.11940381590E+04  0.26284229347E+03 0.  0.
         25    1    4    4    0    0  0.33963264558E+02  0.89046843883E-01 -0.65866838395E+03  0.67130101995E+03  0.12509000000E+03 0.  0.
         25    1    4    4    0    0  0.50452604662E+02 -0.59808864634E+02 -0.50148184699E+03  0.52273713907E+03  0.12509000000E+03 0.  0.
         25    1    3    3    0    0 -0.84415869220E+02  0.59719817790E+02 -0.40991801309E+03  0.44087728584E+03  0.12509000000E+03 0.  0.
<mgrwt>
<rscale>  2 0.45588839E+03</rscale>
<asrwt>0</asrwt>
<pdfrwt beam="1">  1       21 0.47681765E-02 0.45588839E+03</pdfrwt>
<pdfrwt beam="2">  1       21 0.23566057E+00 0.45588839E+03</pdfrwt>
<totfact> 0.20510301E+04</totfact>
</mgrwt>
</event>
<event>
 7    0  0.4737014E-002  0.4531897E+03  0.7546771E-02  0.1026775E+00
         21   -1    0    0  502  501  0.00000000000E+00  0.00000000000E+00  0.36253889759E+03  0.36253889759E+03  0.00000000000E+00 0. -1.
         21   -1    0    0  501  502 -0.00000000000E+00 -0.00000000000E+00 -0.14162682014E+03  0.14162682014E+03  0.00000000000E+00 0. -1.
      99926    2    1    2    0    0  0.00000000000E+00  0.00000000000E+00  0.22091207745E+03  0.50416571774E+03  0.45318972294E+03 0.  0.
      99925    2    3    3    0    0 -0.33698351329E+02 -0.10202551232E+03  0.10661565475E+03  0.30352682722E+03  0.26309095947E+03 0.  0.
         25    1    3    3    0    0  0.33698351329E+02  0.10202551232E+03  0.11429642270E+03  0.20063889052E+03  0.12509000000E+03 0.  0.
         25    1    4    4    0    0 -0.44324332313E+02 -0.68837349449E+02  0.84728349425E+02  0.17184187036E+03  0.12509000000E+03 0.  0.
         25    1    4    4    0    0  0.10625980984E+02 -0.33188162874E+02  0.21887305320E+02  0.13168495685E+03  0.12509000000E+03 0.  0.
<mgrwt>
<rscale>  2 0.45318972E+03</rscale>
<asrwt>0</asrwt>
<pdfrwt beam="1">  1       21 0.53314544E-01 0.45318972E+03</pdfrwt>
<pdfrwt beam="2">  1       21 0.20827474E-01 0.45318972E+03</pdfrwt>
<totfact> 0.65921104E+04</totfact>
</mgrwt>
</event>
<event>
 7    0  0.4737014E-002  0.4502806E+03  0.7546771E-02  0.1027638E+00
         21   -1    0    0  502  501  0.00000000000E+00  0.00000000000E+00  0.23644580736E+02  0.23644580736E+02  0.00000000000E+00 0. -1.
         21   -1    0    0  501  502 -0.00000000000E+00 -0.00000000000E+00 -0.21437535198E+04  0.21437535198E+04  0.00000000000E+00 0. -1.
      99926    2    1    2    0    0  0.00000000000E+00  0.00000000000E+00 -0.21201089391E+04  0.21673981005E+04  0.45028059330E+03 0.  0.
      99925    2    3    3    0    0  0.43833474868E+02  0.88299481450E+02 -0.15599867094E+04  0.15850729403E+04  0.26302000061E+03 0.  0.
         25    1    4    4    0    0  0.30685757822E+02  0.46914908479E+02 -0.10158644559E+04  0.10250710831E+04  0.12509000000E+03 0.  0.
         25    1    3    3    0    0 -0.43833474868E+02 -0.88299481450E+02 -0.56012222968E+03  0.58232516022E+03  0.12509000000E+03 0.  0.
         25    1    4    4    0    0  0.13147717046E+02  0.41384572970E+02 -0.54412225343E+03  0.56000185725E+03  0.12509000000E+03 0.  0.
<mgrwt>
<rscale>  2 0.45028059E+03</rscale>
<asrwt>0</asrwt>
<pdfrwt beam="1">  1       21 0.34771441E-02 0.45028059E+03</pdfrwt>
<pdfrwt beam="2">  1       21 0.31525789E+00 0.45028059E+03</pdfrwt>
<totfact> 0.11583012E+04</totfact>
</mgrwt>
</event>
<event>
 7    0  0.4737014E-002  0.4620635E+03  0.7546771E-02  0.1024184E+00
         21   -1    0    0  502  501  0.00000000000E+00  0.00000000000E+00  0.10587183287E+03  0.10587183287E+03  0.00000000000E+00 0. -1.
         21   -1    0    0  501  502 -0.00000000000E+00 -0.00000000000E+00 -0.50415363034E+03  0.50415363034E+03  0.00000000000E+00 0. -1.
      99926    2    1    2    0    0  0.14210854715E-13  0.71054273576E-14 -0.39828179748E+03  0.61002546321E+03  0.46206349733E+03 0.  0.
      99925    2    3    3    0    0 -0.96950451730E+02 -0.50090253947E+02 -0.31369813206E+03  0.42371838287E+03  0.26310136124E+03 0.  0.
         25    1    4    4    0    0 -0.56102511712E+02  0.11120711193E+02 -0.17873016148E+03  0.22552858081E+03  0.12509000000E+03 0.  0.
         25    1    3    3    0    0  0.96950451730E+02  0.50090253947E+02 -0.84583665414E+02  0.18630708034E+03  0.12509000000E+03 0.  0.
         25    1    4    4    0    0 -0.40847940018E+02 -0.61210965140E+02 -0.13496797058E+03  0.19818980206E+03  0.12509000000E+03 0.  0.
<mgrwt>
<rscale>  2 0.46206350E+03</rscale>
<asrwt>0</asrwt>
<pdfrwt beam="1">  1       21 0.15569387E-01 0.46206350E+03</pdfrwt>
<pdfrwt beam="2">  1       21 0.74140239E-01 0.46206350E+03</pdfrwt>
<totfact> 0.54935424E+04</totfact>
</mgrwt>
</event>
<event>
 7    0  0.4737014E-002  0.4244790E+03  0.7546771E-02  0.1035618E+00
         21   -1    0    0  502  501  0.00000000000E+00  0.00000000000E+00  0.38030900177E+03  0.38030900177E+03  0.00000000000E+00 0. -1.
         21   -1    0    0  501  502 -0.00000000000E+00 -0.00000000000E+00 -0.11844476580E+03  0.11844476580E+03  0.00000000000E+00 0. -1.
      99926    2    1    2    0    0  0.71054273576E-14  0.00000000000E+00  0.26186423597E+03  0.49875376757E+03  0.42447902491E+03 0.  0.
      99925    2    3    3    0    0 -0.54242574230E+02  0.54393299536E+02  0.20086730075E+03  0.33979143839E+03  0.26307729130E+03 0.  0.
         25    1    3    3    0    0  0.54242574230E+02 -0.54393299536E+02  0.60996935218E+02  0.15896232918E+03  0.12509000000E+03 0.  0.
         25    1    4    4    0    0  0.13859009072E+02  0.28202017129E+02  0.87083483699E+02  0.15562283616E+03  0.12509000000E+03 0.  0.
         25    1    4    4    0    0 -0.68101583302E+02  0.26191282408E+02  0.11378381705E+03  0.18416860222E+03  0.12509000000E+03 0.  0.
<mgrwt>
<rscale>  2 0.42447902E+03</rscale>
<asrwt>0</asrwt>
<pdfrwt beam="1">  1       21 0.55927794E-01 0.42447902E+03</pdfrwt>
<pdfrwt beam="2">  1       21 0.17418348E-01 0.42447902E+03</pdfrwt>
<totfact> 0.83902345E+04</totfact>
</mgrwt>
</event>
<event>
 7    0  0.4737014E-002  0.4583319E+03  0.7546771E-02  0.1025266E+00
         21   -1    0    0  502  501  0.00000000000E+00  0.00000000000E+00  0.37981711341E+02  0.37981711341E+02  0.00000000000E+00 0.  1.
         21   -1    0    0  501  502 -0.00000000000E+00 -0.00000000000E+00 -0.13826923689E+04  0.13826923689E+04  0.00000000000E+00 0.  1.
      99926    2    1    2    0    0  0.17763568394E-14  0.14210854715E-13 -0.13447106576E+04  0.14206740802E+04  0.45833185545E+03 0.  0.
      99925    2    3    3    0    0  0.63191750245E+01 -0.84566986533E+02 -0.10900520362E+04  0.11245490581E+04  0.26306963974E+03 0.  0.
         25    1    3    3    0    0 -0.63191750245E+01  0.84566986533E+02 -0.25465862138E+03  0.29612502213E+03  0.12509000000E+03 0.  0.
         25    1    4    4    0    0  0.40777140581E+02 -0.58770281590E+02 -0.56275188161E+03  0.58090783223E+03  0.12509000000E+03 0.  0.
         25    1    4    4    0    0 -0.34457965557E+02 -0.25796704944E+02 -0.52730015456E+03  0.54364122588E+03  0.12509000000E+03 0.  0.
<mgrwt>
<rscale>  2 0.45833186E+03</rscale>
<asrwt>0</asrwt>
<pdfrwt beam="1">  1       21 0.55855464E-02 0.45833186E+03</pdfrwt>
<pdfrwt beam="2">  1       21 0.20333709E+00 0.45833186E+03</pdfrwt>
<totfact> 0.25129341E+04</totfact>
</mgrwt>
</event>
<event>
 7    0  0.4737014E-002  0.4604914E+03  0.7546771E-02  0.1024639E+00
         21   -1    0    0  502  501  0.00000000000E+00  0.00000000000E+00  0.24114515964E+03  0.24114515964E+03  0.00000000000E+00 0. -1.
         21   -1    0    0  501  502 -0.00000000000E+00 -0.00000000000E+00 -0.21983885941E+03  0.21983885941E+03  0.00000000000E+00 0. -1.
      99926    2    1    2    0    0  0.00000000000E+00  0.00000000000E+00  0.21306300226E+02  0.46098401905E+03  0.46049137602E+03 0.  0.
      99925    2    3    3    0    0 -0.64046236672E+02 -0.18233051886E+02 -0.84369683526E+02  0.28420934254E+03  0.26310139163E+03 0.  0.
         25    1    3    3    0    0  0.64046236672E+02  0.18233051886E+02  0.10567598375E+03  0.17677467651E+03  0.12509000000E+03 0.  0.
         25    1    4    4    0    0 -0.55951534653E+02 -0.48099259175E+01 -0.91869429927E+01  0.13742495275E+03  0.12509000000E+03 0.  0.
         25    1    4    4    0    0 -0.80947020187E+01 -0.13423125968E+02 -0.75182740533E+02  0.14678438979E+03  0.12509000000E+03 0.  0.
<mgrwt>
<rscale>  2 0.46049138E+03</rscale>
<asrwt>0</asrwt>
<pdfrwt beam="1">  1       21 0.35462523E-01 0.46049138E+03</pdfrwt>
<pdfrwt beam="2">  1       21 0.32329244E-01 0.46049138E+03</pdfrwt>
<totfact> 0.65205483E+04</totfact>
</mgrwt>
</event>
<event>
 7    0  0.4737014E-002  0.4258098E+03  0.7546771E-02  0.1035192E+00
         21   -1    0    0  502  501  0.00000000000E+00  0.00000000000E+00  0.33351487176E+03  0.33351487176E+03  0.00000000000E+00 0.  1.
         21   -1    0    0  501  502 -0.00000000000E+00 -0.00000000000E+00 -0.13591149178E+03  0.13591149178E+03  0.00000000000E+00 0.  1.
      99926    2    1    2    0    0  0.00000000000E+00 -0.71054273576E-14  0.19760337998E+03  0.46942636355E+03  0.42580983433E+03 0.  0.
      99925    2    3    3    0    0  0.16824623875E+02  0.35706475418E+02  0.47648111779E+02  0.27019757316E+03  0.26301780478E+03 0.  0.
         25    1    3    3    0    0 -0.16824623875E+02 -0.35706475418E+02  0.14995526820E+03  0.19922879038E+03  0.12509000000E+03 0.  0.
         25    1    4    4    0    0  0.35671956165E+02  0.22171596231E+02  0.54555868244E+02  0.14278627033E+03  0.12509000000E+03 0.  0.
         25    1    4    4    0    0 -0.18847332291E+02  0.13534879187E+02 -0.69077564649E+01  0.12741130283E+03  0.12509000000E+03 0.  0.
<mgrwt>
<rscale>  2 0.42580983E+03</rscale>
<asrwt>0</asrwt>
<pdfrwt beam="1">  1       21 0.49046305E-01 0.42580983E+03</pdfrwt>
<pdfrwt beam="2">  1       21 0.19986984E-01 0.42580983E+03</pdfrwt>
<totfact> 0.85674122E+04</totfact>
</mgrwt>
</event>
<event>
 7    0  0.4737014E-002  0.4558825E+03  0.7546771E-02  0.1025982E+00
         21   -1    0    0  502  501  0.00000000000E+00  0.00000000000E+00  0.12350551781E+03  0.12350551781E+03  0.00000000000E+00 0. -1.
         21   -1    0    0  501  502 -0.00000000000E+00 -0.00000000000E+00 -0.42068738901E+03  0.42068738901E+03  0.00000000000E+00 0. -1.
      99926    2    1    2    0    0  0.00000000000E+00 -0.17763568394E-14 -0.29718187121E+03  0.54419290682E+03  0.45588250159E+03 0.  0.
      99925    2    3    3    0    0 -0.55135749653E+02  0.13154740074E+02 -0.30489808103E+03  0.40664274844E+03  0.26302563937E+03 0.  0.
         25    1    4    4    0    0  0.55925008033E+01  0.27847753581E+02 -0.12874899439E+03  0.18174318447E+03  0.12509000000E+03 0.  0.
         25    1    4    4    0    0 -0.60728250457E+02 -0.14693013507E+02 -0.17614908664E+03  0.22489956397E+03  0.12509000000E+03 0.  0.
         25    1    3    3    0    0  0.55135749653E+02 -0.13154740074E+02  0.77162098258E+01  0.13755015838E+03  0.12509000000E+03 0.  0.
<mgrwt>
<rscale>  2 0.45588250E+03</rscale>
<asrwt>0</asrwt>
<pdfrwt beam="1">  1       21 0.18162576E-01 0.45588250E+03</pdfrwt>
<pdfrwt beam="2">  1       21 0.61865793E-01 0.45588250E+03</pdfrwt>
<totfact> 0.61819054E+04</totfact>
</mgrwt>
</event>
<event>
 7    0  0.4737014E-002  0.4540553E+03  0.7546771E-02  0.1026520E+00
         21   -1    0    0  502  501  0.00000000000E+00  0.00000000000E+00  0.81144612795E+03  0.81144612795E+03  0.00000000000E+00 0. -1.
         21   -1    0    0  501  502 -0.00000000000E+00 -0.00000000000E+00 -0.63518152367E+02  0.63518152367E+02  0.00000000000E+00 0. -1.
      99926    2    1    2    0    0  0.14210854715E-13 -0.71054273576E-14  0.74792797558E+03  0.87496428032E+03  0.45405532171E+03 0.  0.
      99925    2    3    3    0    0  0.86653182009E+02 -0.32929727049E+02  0.34892759618E+03  0.44666304084E+03  0.26299099566E+03 0.  0.
         25    1    4    4    0    0  0.19204869297E+02 -0.35698836374E+02  0.12497379965E+03  0.18140890999E+03  0.12509000000E+03 0.  0.
         25    1    4    4    0    0  0.67448312712E+02  0.27691093248E+01  0.22395379653E+03  0.26525413085E+03  0.12509000000E+03 0.  0.
         25    1    3    3    0    0 -0.86653182009E+02  0.32929727049E+02  0.39900037940E+03  0.42830123948E+03  0.12509000000E+03 0.  0.
<mgrwt>
<rscale>  2 0.45405532E+03</rscale>
<asrwt>0</asrwt>
<pdfrwt beam="1">  1       21 0.11933031E+00 0.45405532E+03</pdfrwt>
<pdfrwt beam="2">  1       21 0.93409053E-02 0.45405532E+03</pdfrwt>
<totfact> 0.44663442E+04</totfact>
</mgrwt>
</event>
<event>
 7    0  0.4737014E-002  0.4642679E+03  0.7546771E-02  0.1023551E+00
         21   -1    0    0  502  501  0.00000000000E+00  0.00000000000E+00  0.44853323373E+02  0.44853323373E+02  0.00000000000E+00 0.  1.
         21   -1    0    0  501  502 -0.00000000000E+00 -0.00000000000E+00 -0.12013863302E+04  0.12013863302E+04  0.00000000000E+00 0.  1.
      99926    2    1    2    0    0  0.00000000000E+00  0.00000000000E+00 -0.11565330068E+04  0.12462396536E+04  0.46426789492E+03 0.  0.
      99925    2    3    3    0    0 -0.41046655287E+01  0.11992867878E+03 -0.77586367484E+03  0.82796177383E+03  0.26297627403E+03 0.  0.
         25    1    3    3    0    0  0.41046655287E+01 -0.11992867878E+03 -0.38066933198E+03  0.41827787974E+03  0.12509000000E+03 0.  0.
         25    1    4    4    0    0 -0.13690670503E+02  0.42395681905E+02 -0.47000936006E+03  0.48840673107E+03  0.12509000000E+03 0.  0.
         25    1    4    4    0    0  0.95860049742E+01  0.77532996870E+02 -0.30585431478E+03  0.33955504276E+03  0.12509000000E+03 0.  0.
<mgrwt>
<rscale>  2 0.46426789E+03</rscale>
<asrwt>0</asrwt>
<pdfrwt beam="1">  1       21 0.65960778E-02 0.46426789E+03</pdfrwt>
<pdfrwt beam="2">  1       21 0.17667444E+00 0.46426789E+03</pdfrwt>
<totfact> 0.28597235E+04</totfact>
</mgrwt>
</event>
<event>
 7    0  0.4737014E-002  0.4536648E+03  0.7546771E-02  0.1026635E+00
         21   -1    0    0  502  501  0.00000000000E+00  0.00000000000E+00  0.16296194497E+04  0.16296194497E+04  0.00000000000E+00 0.  1.
         21   -1    0    0  501  502 -0.00000000000E+00 -0.00000000000E+00 -0.31573589083E+02  0.31573589083E+02  0.00000000000E+00 0.  1.
      99926    2    1    2    0    0  0.00000000000E+00  0.00000000000E+00  0.15980458607E+04  0.16611930388E+04  0.45366478756E+03 0.  0.
      99925    2    3    3    0    0 -0.29108118350E+02 -0.10455919572E+03  0.90973319240E+03  0.95323700534E+03  0.26318510411E+03 0.  0.
         25    1    4    4    0    0 -0.27111326970E+02 -0.11002783619E+02  0.41194112598E+03  0.43150791960E+03  0.12509000000E+03 0.  0.
         25    1    3    3    0    0  0.29108118350E+02  0.10455919572E+03  0.68831266825E+03  0.70795603348E+03  0.12509000000E+03 0.  0.
         25    1    4    4    0    0 -0.19967913798E+01 -0.93556412105E+02  0.49779206642E+03  0.52172908574E+03  0.12509000000E+03 0.  0.
<mgrwt>
<rscale>  2 0.45366479E+03</rscale>
<asrwt>0</asrwt>
<pdfrwt beam="1">  1       21 0.23964986E+00 0.45366479E+03</pdfrwt>
<pdfrwt beam="2">  1       21 0.46431760E-02 0.45366479E+03</pdfrwt>
<totfact> 0.20291204E+04</totfact>
</mgrwt>
</event>
<event>
 7    0  0.4737014E-002  0.4294976E+03  0.7546771E-02  0.1034019E+00
         21   -1    0    0  502  501  0.00000000000E+00  0.00000000000E+00  0.35672511295E+03  0.35672511295E+03  0.00000000000E+00 0.  1.
         21   -1    0    0  501  502 -0.00000000000E+00 -0.00000000000E+00 -0.12927893027E+03  0.12927893027E+03  0.00000000000E+00 0.  1.
      99926    2    1    2    0    0  0.00000000000E+00  0.00000000000E+00  0.22744618268E+03  0.48600404322E+03  0.42949757160E+03 0.  0.
      99925    2    3    3    0    0  0.32204552336E+02  0.79953898016E+02  0.13280701475E+03  0.30702404656E+03  0.26305190172E+03 0.  0.
         25    1    4    4    0    0 -0.12608803759E+01  0.51049691469E+02  0.28087775080E+02  0.13800033343E+03  0.12509000000E+03 0.  0.
         25    1    4    4    0    0  0.33465432712E+02  0.28904206547E+02  0.10471923967E+03  0.16902371313E+03  0.12509000000E+03 0.  0.
         25    1    3    3    0    0 -0.32204552336E+02 -0.79953898016E+02  0.94639167925E+02  0.17897999666E+03  0.12509000000E+03 0.  0.
<mgrwt>
<rscale>  2 0.42949757E+03</rscale>
<asrwt>0</asrwt>
<pdfrwt beam="1">  1       21 0.52459575E-01 0.42949757E+03</pdfrwt>
<pdfrwt beam="2">  1       21 0.19011607E-01 0.42949757E+03</pdfrwt>
<totfact> 0.81568632E+04</totfact>
</mgrwt>
</event>
<event>
 7    0  0.4737014E-002  0.4579097E+03  0.7546771E-02  0.1025389E+00
         21   -1    0    0  502  501  0.00000000000E+00  0.00000000000E+00  0.53324066833E+02  0.53324066833E+02  0.00000000000E+00 0. -1.
         21   -1    0    0  501  502 -0.00000000000E+00 -0.00000000000E+00 -0.98305189809E+03  0.98305189809E+03  0.00000000000E+00 0. -1.
      99926    2    1    2    0    0  0.17763568394E-14  0.14210854715E-13 -0.92972783125E+03  0.10363759649E+04  0.45790970775E+03 0.  0.
      99925    2    3    3    0    0 -0.68130006791E+01 -0.96218137147E+02 -0.43814949257E+03  0.52004165649E+03  0.26299049366E+03 0.  0.
         25    1    4    4    0    0 -0.31172410266E+02 -0.19539132574E+02 -0.18283029809E+03  0.22456162376E+03  0.12509000000E+03 0.  0.
         25    1    3    3    0    0  0.68130006791E+01  0.96218137147E+02 -0.49157833869E+03  0.51633430843E+03  0.12509000000E+03 0.  0.
         25    1    4    4    0    0  0.24359409587E+02 -0.76679004573E+02 -0.25531919448E+03  0.29548003274E+03  0.12509000000E+03 0.  0.
<mgrwt>
<rscale>  2 0.45790971E+03</rscale>
<asrwt>0</asrwt>
<pdfrwt beam="1">  1       21 0.78417745E-02 0.45790971E+03</pdfrwt>
<pdfrwt beam="2">  1       21 0.14456646E+00 0.45790971E+03</pdfrwt>
<totfact> 0.36935189E+04</totfact>
</mgrwt>
</event>
<event>
 7    0  0.4737014E-002  0.4541020E+03  0.7546771E-02  0.1026506E+00
         21   -1    0    0  502  501  0.00000000000E+00  0.00000000000E+00  0.32675417381E+03  0.32675417381E+03  0.00000000000E+00 0.  1.
         21   -1    0    0  501  502 -0.00000000000E+00 -0.00000000000E+00 -0.15777045984E+03  0.15777045984E+03  0.00000000000E+00 0.  1.
      99926    2    1    2    0    0  0.35527136788E-14 -0.14210854715E-13  0.16898371397E+03  0.48452463365E+03  0.45410199849E+03 0.  0.
      99925    2    3    3    0    0  0.29911289968E+02 -0.81761329408E+02  0.18087298610E+03  0.33165716443E+03  0.26401105538E+03 0.  0.
         25    1    3    3    0    0 -0.29911289968E+02  0.81761329408E+02 -0.11889272125E+02  0.15286746922E+03  0.12509000000E+03 0.  0.
         25    1    4    4    0    0  0.25078413354E+02 -0.14330713817E+02  0.12408715815E+03  0.17854810862E+03  0.12509000000E+03 0.  0.
         25    1    4    4    0    0  0.48328766136E+01 -0.67430615591E+02  0.56785827947E+02  0.15310905581E+03  0.12509000000E+03 0.  0.
<mgrwt>
<rscale>  2 0.45410200E+03</rscale>
<asrwt>0</asrwt>
<pdfrwt beam="1">  1       21 0.48052084E-01 0.45410200E+03</pdfrwt>
<pdfrwt beam="2">  1       21 0.23201538E-01 0.45410200E+03</pdfrwt>
<totfact> 0.66847454E+04</totfact>
</mgrwt>
</event>
<event>
 7    0  0.4737014E-002  0.4517663E+03  0.7546771E-02  0.1027197E+00
         21   -1    0    0  502  501  0.00000000000E+00  0.00000000000E+00  0.12346629714E+04  0.12346629714E+04  0.00000000000E+00 0. -1.
         21   -1    0    0  501  502 -0.00000000000E+00 -0.00000000000E+00 -0.41325608767E+02  0.41325608767E+02  0.00000000000E+00 0. -1.
      99926    2    1    2    0    0  0.00000000000E+00  0.00000000000E+00  0.11933373626E+04  0.12759885801E+04  0.45176630646E+03 0.  0.
      99925    2    3    3    0    0  0.10909031121E+03  0.15362507710E+02  0.75881837469E+03  0.81059523941E+03  0.26291179839E+03 0.  0.
         25    1    4    4    0    0  0.69626173149E+02  0.42958534956E+02  0.44201912283E+03  0.46660652885E+03  0.12509000000E+03 0.  0.
         25    1    3    3    0    0 -0.10909031121E+03 -0.15362507710E+02  0.43451898790E+03  0.46539334072E+03  0.12509000000E+03 0.  0.
         25    1    4    4    0    0  0.39464138057E+02 -0.27596027246E+02  0.31679925186E+03  0.34398871056E+03  0.12509000000E+03 0.  0.
<mgrwt>
<rscale>  2 0.45176631E+03</rscale>
<asrwt>0</asrwt>
<pdfrwt beam="1">  1       21 0.18156806E+00 0.45176631E+03</pdfrwt>
<pdfrwt beam="2">  1       21 0.60772962E-02 0.45176631E+03</pdfrwt>
<totfact> 0.30582323E+04</totfact>
</mgrwt>
</event>
<event>
 7    0  0.4737014E-002  0.4564442E+03  0.7546771E-02  0.1025818E+00
         21   -1    0    0  502  501  0.00000000000E+00  0.00000000000E+00  0.39871606588E+03  0.39871606588E+03  0.00000000000E+00 0. -1.
         21   -1    0    0  501  502 -0.00000000000E+00 -0.00000000000E+00 -0.13063263163E+03  0.13063263163E+03  0.00000000000E+00 0. -1.
      99926    2    1    2    0    0  0.00000000000E+00  0.00000000000E+00  0.26808343426E+03  0.52934869751E+03  0.45644420890E+03 0.  0.
      99925    2    3    3    0    0 -0.67503774924E+02 -0.89952666402E+02  0.19345344899E+03  0.34532319759E+03  0.26301260815E+03 0.  0.
         25    1    3    3    0    0  0.67503774924E+02  0.89952666402E+02  0.74629985268E+02  0.18402549993E+03  0.12509000000E+03 0.  0.
         25    1    4    4    0    0 -0.97253072884E+01 -0.61660164491E+02  0.13039199437E+03  0.19117044171E+03  0.12509000000E+03 0.  0.
         25    1    4    4    0    0 -0.57778467635E+02 -0.28292501911E+02  0.63061454615E+02  0.15415275588E+03  0.12509000000E+03 0.  0.
<mgrwt>
<rscale>  2 0.45644421E+03</rscale>
<asrwt>0</asrwt>
<pdfrwt beam="1">  1       21 0.58634715E-01 0.45644421E+03</pdfrwt>
<pdfrwt beam="2">  1       21 0.19210681E-01 0.45644421E+03</pdfrwt>
<totfact> 0.62531756E+04</totfact>
</mgrwt>
</event>
<event>
 7    0  0.4737014E-002  0.4557640E+03  0.7546771E-02  0.1026017E+00
         21   -1    0    0  502  501  0.00000000000E+00  0.00000000000E+00  0.56029874251E+02  0.56029874251E+02  0.00000000000E+00 0. -1.
         21   -1    0    0  501  502 -0.00000000000E+00 -0.00000000000E+00 -0.92683070464E+03  0.92683070464E+03  0.00000000000E+00 0. -1.
      99926    2    1    2    0    0  0.14210854715E-13  0.00000000000E+00 -0.87080083039E+03  0.98286057890E+03  0.45576400838E+03 0.  0.
      99925    2    3    3    0    0 -0.99949203472E+02  0.22736376729E+02 -0.44054976894E+03  0.52321912071E+03  0.26299688831E+03 0.  0.
         25    1    4    4    0    0 -0.78139959990E+02  0.43011708668E+02 -0.23507997964E+03  0.28083084830E+03  0.12509000000E+03 0.  0.
         25    1    3    3    0    0  0.99949203472E+02 -0.22736376729E+02 -0.43025106145E+03  0.45964145819E+03  0.12509000000E+03 0.  0.
         25    1    4    4    0    0 -0.21809243482E+02 -0.20275331940E+02 -0.20546978930E+03  0.24238827241E+03  0.12509000000E+03 0.  0.
<mgrwt>
<rscale>  2 0.45576401E+03</rscale>
<asrwt>0</asrwt>
<pdfrwt beam="1">  1       21 0.82396874E-02 0.45576401E+03</pdfrwt>
<pdfrwt beam="2">  1       21 0.13629863E+00 0.45576401E+03</pdfrwt>
<totfact> 0.39600814E+04</totfact>
</mgrwt>
</event>
<event>
 7    0  0.4737014E-002  0.4481647E+03  0.7546771E-02  0.1028271E+00
         21   -1    0    0  502  501  0.00000000000E+00  0.00000000000E+00  0.13522496516E+04  0.13522496516E+04  0.00000000000E+00 0. -1.
         21   -1    0    0  501  502 -0.00000000000E+00 -0.00000000000E+00 -0.37132857790E+02  0.37132857790E+02  0.00000000000E+00 0. -1.
      99926    2    1    2    0    0  0.71054273576E-14  0.00000000000E+00  0.13151167938E+04  0.13893825094E+04  0.44816467513E+03 0.  0.
      99925    2    3    3    0    0  0.48804974678E+02  0.14022544780E+02  0.54257664422E+03  0.60513487748E+03  0.26309741120E+03 0.  0.
         25    1    3    3    0    0 -0.48804974678E+02 -0.14022544780E+02  0.77254014956E+03  0.78424763188E+03  0.12509000000E+03 0.  0.
         25    1    4    4    0    0  0.19434764641E+02  0.45834953886E+02  0.24813304092E+03  0.28230491879E+03  0.12509000000E+03 0.  0.
         25    1    4    4    0    0  0.29370210037E+02 -0.31812409106E+02  0.29444360329E+03  0.32282995869E+03  0.12509000000E+03 0.  0.
<mgrwt>
<rscale>  2 0.44816468E+03</rscale>
<asrwt>0</asrwt>
<pdfrwt beam="1">  1       21 0.19886021E+00 0.44816468E+03</pdfrwt>
<pdfrwt beam="2">  1       21 0.54607153E-02 0.44816468E+03</pdfrwt>
<totfact> 0.28078546E+04</totfact>
</mgrwt>
</event>
<event>
 7    0  0.4737014E-002  0.4472518E+03  0.7546771E-02  0.1028545E+00
         21   -1    0    0  502  501  0.00000000000E+00  0.00000000000E+00  0.19749999887E+02  0.19749999887E+02  0.00000000000E+00 0. -1.
         21   -1    0    0  501  502 -0.00000000000E+00 -0.00000000000E+00 -0.25320779438E+04  0.25320779438E+04  0.00000000000E+00 0. -1.
      99926    2    1    2    0    0  0.00000000000E+00  0.00000000000E+00 -0.25123279439E+04  0.25518279436E+04  0.44725178190E+03 0.  0.
      99925    2    3    3    0    0 -0.78858420749E+02  0.53649891859E+02 -0.18535473088E+04  0.18745271282E+04  0.26290181970E+03 0.  0.
         25    1    3    3    0    0  0.78858420749E+02 -0.53649891859E+02 -0.65878063503E+03  0.67730081546E+03  0.12509000000E+03 0.  0.
         25    1    4    4    0    0 -0.15687190064E+02  0.30924624656E+02 -0.11085255533E+04  0.11160998302E+04  0.12509000000E+03 0.  0.
         25    1    4    4    0    0 -0.63171230684E+02  0.22725267203E+02 -0.74502175549E+03  0.75842729804E+03  0.12509000000E+03 0.  0.
<mgrwt>
<rscale>  2 0.44725178E+03</rscale>
<asrwt>0</asrwt>
<pdfrwt beam="1">  1       21 0.29044135E-02 0.44725178E+03</pdfrwt>
<pdfrwt beam="2">  1       21 0.37236418E+00 0.44725178E+03</pdfrwt>
<totfact> 0.70300570E+03</totfact>
</mgrwt>
</event>
<event>
 7    0  0.4737014E-002  0.4510399E+03  0.7546771E-02  0.1027412E+00
         21   -1    0    0  502  501  0.00000000000E+00  0.00000000000E+00  0.89746059232E+03  0.89746059232E+03  0.00000000000E+00 0. -1.
         21   -1    0    0  501  502 -0.00000000000E+00 -0.00000000000E+00 -0.56670170908E+02  0.56670170908E+02  0.00000000000E+00 0. -1.
      99926    2    1    2    0    0  0.35527136788E-14  0.00000000000E+00  0.84079042141E+03  0.95413076322E+03  0.45103988803E+03 0.  0.
      99925    2    3    3    0    0 -0.21608456308E+02 -0.62895897309E+02  0.71407286375E+03  0.76405796980E+03  0.26355589005E+03 0.  0.
         25    1    4    4    0    0 -0.19150767697E+01  0.99672738674E+01  0.34528764411E+03  0.36738818618E+03  0.12509000000E+03 0.  0.
         25    1    3    3    0    0  0.21608456308E+02  0.62895897309E+02  0.12671755766E+03  0.19007279343E+03  0.12509000000E+03 0.  0.
         25    1    4    4    0    0 -0.19693379538E+02 -0.72863171176E+02  0.36878521964E+03  0.39666978362E+03  0.12509000000E+03 0.  0.
<mgrwt>
<rscale>  2 0.45103989E+03</rscale>
<asrwt>0</asrwt>
<pdfrwt beam="1">  1       21 0.13197949E+00 0.45103989E+03</pdfrwt>
<pdfrwt beam="2">  1       21 0.83338492E-02 0.45103989E+03</pdfrwt>
<totfact> 0.42267748E+04</totfact>
</mgrwt>
</event>
<event>
 7    0  0.4737014E-002  0.4493523E+03  0.7546771E-02  0.1027915E+00
         21   -1    0    0  502  501  0.00000000000E+00  0.00000000000E+00  0.34209703247E+02  0.34209703247E+02  0.00000000000E+00 0. -1.
         21   -1    0    0  501  502 -0.00000000000E+00 -0.00000000000E+00 -0.14755866429E+04  0.14755866429E+04  0.00000000000E+00 0. -1.
      99926    2    1    2    0    0  0.00000000000E+00  0.00000000000E+00 -0.14413769397E+04  0.15097963462E+04  0.44935233913E+03 0.  0.
      99925    2    3    3    0    0  0.34350237191E+02  0.10116611942E+03 -0.96443908247E+03  0.10052849486E+04  0.26275570713E+03 0.  0.
         25    1    3    3    0    0 -0.34350237191E+02 -0.10116611942E+03 -0.47693785720E+03  0.50451139754E+03  0.12509000000E+03 0.  0.
         25    1    4    4    0    0  0.55946005710E+02  0.59727601447E+02 -0.47581233904E+03  0.49874064604E+03  0.12509000000E+03 0.  0.
         25    1    4    4    0    0 -0.21595768519E+02  0.41438517973E+02 -0.48862674343E+03  0.50654430259E+03  0.12509000000E+03 0.  0.
<mgrwt>
<rscale>  2 0.44935234E+03</rscale>
<asrwt>0</asrwt>
<pdfrwt beam="1">  1       21 0.50308389E-02 0.44935234E+03</pdfrwt>
<pdfrwt beam="2">  1       21 0.21699803E+00 0.44935234E+03</pdfrwt>
<totfact> 0.24601665E+04</totfact>
</mgrwt>
</event>
<event>
 7    0  0.4737014E-002  0.4616986E+03  0.7546771E-02  0.1024290E+00
         21   -1    0    0  502  501  0.00000000000E+00  0.00000000000E+00  0.21029448382E+03  0.21029448382E+03  0.00000000000E+00 0.  1.
         21   -1    0    0  501  502 -0.00000000000E+00 -0.00000000000E+00 -0.25341320378E+03  0.25341320378E+03  0.00000000000E+00 0.  1.
      99926    2    1    2    0    0  0.00000000000E+00  0.71054273576E-14 -0.43118719962E+02  0.46370768760E+03  0.46169859815E+03 0.  0.
      99925    2    3    3    0    0 -0.53752246884E+02 -0.52606472376E+02  0.66152745240E+02  0.28137692720E+03  0.26294494572E+03 0.  0.
         25    1    3    3    0    0  0.53752246884E+02  0.52606472376E+02 -0.10927146520E+03  0.18233076040E+03  0.12509000000E+03 0.  0.
         25    1    4    4    0    0 -0.46676441078E+02 -0.59513413739E+02  0.19353973945E+02  0.14745379267E+03  0.12509000000E+03 0.  0.
         25    1    4    4    0    0 -0.70758058065E+01  0.69069413636E+01  0.46798771295E+02  0.13392313453E+03  0.12509000000E+03 0.  0.
<mgrwt>
<rscale>  2 0.46169860E+03</rscale>
<asrwt>0</asrwt>
<pdfrwt beam="1">  1       21 0.30925660E-01 0.46169860E+03</pdfrwt>
<pdfrwt beam="2">  1       21 0.37266647E-01 0.46169860E+03</pdfrwt>
<totfact> 0.64401139E+04</totfact>
</mgrwt>
</event>
<event>
 7    0  0.4737014E-002  0.4569498E+03  0.7546771E-02  0.1025670E+00
         21   -1    0    0  502  501  0.00000000000E+00  0.00000000000E+00  0.20973210506E+03  0.20973210506E+03  0.00000000000E+00 0. -1.
         21   -1    0    0  501  502 -0.00000000000E+00 -0.00000000000E+00 -0.24889265741E+03  0.24889265741E+03  0.00000000000E+00 0. -1.
      99926    2    1    2    0    0  0.00000000000E+00  0.14210854715E-13 -0.39160552351E+02  0.45862476247E+03  0.45694980457E+03 0.  0.
      99925    2    3    3    0    0  0.46380777998E+02 -0.10279522381E+03 -0.46993011656E+02  0.29002200412E+03  0.26303304948E+03 0.  0.
         25    1    4    4    0    0 -0.35882414332E+01 -0.32436112602E+02  0.50846949558E+01  0.12937673323E+03  0.12509000000E+03 0.  0.
         25    1    3    3    0    0 -0.46380777998E+02  0.10279522381E+03  0.78324593056E+01  0.16860275836E+03  0.12509000000E+03 0.  0.
         25    1    4    4    0    0  0.49969019431E+02 -0.70359111212E+02 -0.52077706612E+02  0.16064527089E+03  0.12509000000E+03 0.  0.
<mgrwt>
<rscale>  2 0.45694980E+03</rscale>
<asrwt>0</asrwt>
<pdfrwt beam="1">  1       21 0.30842957E-01 0.45694980E+03</pdfrwt>
<pdfrwt beam="2">  1       21 0.36601861E-01 0.45694980E+03</pdfrwt>
<totfact> 0.67229107E+04</totfact>
</mgrwt>
</event>
<event>
 7    0  0.4737014E-002  0.4523321E+03  0.7546771E-02  0.1027029E+00
         21   -1    0    0  502  501  0.00000000000E+00  0.00000000000E+00  0.12237673356E+03  0.12237673356E+03  0.00000000000E+00 0. -1.
         21   -1    0    0  501  502 -0.00000000000E+00 -0.00000000000E+00 -0.41798044689E+03  0.41798044689E+03  0.00000000000E+00 0. -1.
      99926    2    1    2    0    0  0.00000000000E+00  0.71054273576E-14 -0.29560371333E+03  0.54035718045E+03  0.45233209827E+03 0.  0.
      99925    2    3    3    0    0 -0.10558800295E+03  0.32956211306E+02 -0.18431640168E+03  0.33969001306E+03  0.26302439206E+03 0.  0.
         25    1    4    4    0    0 -0.13123186147E+02  0.17502322168E+00 -0.70631401276E+02  0.14425169529E+03  0.12509000000E+03 0.  0.
         25    1    3    3    0    0  0.10558800295E+03 -0.32956211306E+02 -0.11128731165E+03  0.20066716738E+03  0.12509000000E+03 0.  0.
         25    1    4    4    0    0 -0.92464816802E+02  0.32781188084E+02 -0.11368500040E+03  0.19543831777E+03  0.12509000000E+03 0.  0.
<mgrwt>
<rscale>  2 0.45233210E+03</rscale>
<asrwt>0</asrwt>
<pdfrwt beam="1">  1       21 0.17996579E-01 0.45233210E+03</pdfrwt>
<pdfrwt beam="2">  1       21 0.61467712E-01 0.45233210E+03</pdfrwt>
<totfact> 0.63845599E+04</totfact>
</mgrwt>
</event>
<event>
 7    0  0.4737014E-002  0.4527733E+03  0.7546771E-02  0.1026898E+00
         21   -1    0    0  502  501  0.00000000000E+00  0.00000000000E+00  0.27047153900E+02  0.27047153900E+02  0.00000000000E+00 0.  1.
         21   -1    0    0  501  502 -0.00000000000E+00 -0.00000000000E+00 -0.18948730211E+04  0.18948730211E+04  0.00000000000E+00 0.  1.
      99926    2    1    2    0    0  0.00000000000E+00  0.00000000000E+00 -0.18678258672E+04  0.19219201750E+04  0.45277333059E+03 0.  0.
      99925    2    3    3    0    0  0.31083398259E+02 -0.30038212513E+02 -0.74203544087E+03  0.78837702894E+03  0.26277989345E+03 0.  0.
         25    1    3    3    0    0 -0.31083398259E+02  0.30038212513E+02 -0.11257904263E+04  0.11335431460E+04  0.12509000000E+03 0.  0.
         25    1    4    4    0    0  0.19406029059E+02  0.24327689571E+02 -0.38442822131E+03  0.40546392674E+03  0.12509000000E+03 0.  0.
         25    1    4    4    0    0  0.11677369199E+02 -0.54365902085E+02 -0.35760721956E+03  0.38291310221E+03  0.12509000000E+03 0.  0.
<mgrwt>
<rscale>  2 0.45277333E+03</rscale>
<asrwt>0</asrwt>
<pdfrwt beam="1">  1       21 0.39775218E-02 0.45277333E+03</pdfrwt>
<pdfrwt beam="2">  1       21 0.27865785E+00 0.45277333E+03</pdfrwt>
<totfact> 0.15289207E+04</totfact>
</mgrwt>
</event>
<event>
 7    0  0.4737014E-002  0.4609121E+03  0.7546771E-02  0.1024517E+00
         21   -1    0    0  502  501  0.00000000000E+00  0.00000000000E+00  0.29248965863E+03  0.29248965863E+03  0.00000000000E+00 0. -1.
         21   -1    0    0  501  502 -0.00000000000E+00 -0.00000000000E+00 -0.18157905700E+03  0.18157905700E+03  0.00000000000E+00 0. -1.
      99926    2    1    2    0    0  0.00000000000E+00  0.00000000000E+00  0.11091060164E+03  0.47406871563E+03  0.46091212349E+03 0.  0.
      99925    2    3    3    0    0  0.30703779684E+02  0.11429162880E+03  0.61312507615E+02  0.29486833189E+03  0.26302625546E+03 0.  0.
         25    1    4    4    0    0  0.39897010979E+02  0.31919173275E+02  0.70679338499E+01  0.13530731280E+03  0.12509000000E+03 0.  0.
         25    1    3    3    0    0 -0.30703779684E+02 -0.11429162880E+03  0.49598094020E+02  0.17920038374E+03  0.12509000000E+03 0.  0.
         25    1    4    4    0    0 -0.91932312948E+01  0.82372455528E+02  0.54244573765E+02  0.15956101909E+03  0.12509000000E+03 0.  0.
<mgrwt>
<rscale>  2 0.46091212E+03</rscale>
<asrwt>0</asrwt>
<pdfrwt beam="1">  1       21 0.43013185E-01 0.46091212E+03</pdfrwt>
<pdfrwt beam="2">  1       21 0.26702802E-01 0.46091212E+03</pdfrwt>
<totfact> 0.64075994E+04</totfact>
</mgrwt>
</event>
<event>
 7    0  0.4737014E-002  0.4745847E+03  0.7546771E-02  0.1020634E+00
         21   -1    0    0  502  501  0.00000000000E+00  0.00000000000E+00  0.83433645285E+02  0.83433645285E+02  0.00000000000E+00 0. -1.
         21   -1    0    0  501  502 -0.00000000000E+00 -0.00000000000E+00 -0.67487947344E+03  0.67487947344E+03  0.00000000000E+00 0. -1.
      99926    2    1    2    0    0 -0.17763568394E-14 -0.14210854715E-13 -0.59144582816E+03  0.75831311873E+03  0.47458467989E+03 0.  0.
      99925    2    3    3    0    0  0.11823312724E+02  0.92662494969E+02 -0.51196682134E+03  0.58312593506E+03  0.26305836099E+03 0.  0.
         25    1    3    3    0    0 -0.11823312724E+02 -0.92662494969E+02 -0.79479006823E+02  0.17518718367E+03  0.12509000000E+03 0.  0.
         25    1    4    4    0    0  0.17823591577E+02  0.55132418531E+01 -0.22408351282E+03  0.25731110561E+03  0.12509000000E+03 0.  0.
         25    1    4    4    0    0 -0.60002788535E+01  0.87149253116E+02 -0.28788330852E+03  0.32581482945E+03  0.12509000000E+03 0.  0.
<mgrwt>
<rscale>  2 0.47458468E+03</rscale>
<asrwt>0</asrwt>
<pdfrwt beam="1">  1       21 0.12269653E-01 0.47458468E+03</pdfrwt>
<pdfrwt beam="2">  1       21 0.99246984E-01 0.47458468E+03</pdfrwt>
<totfact> 0.42861533E+04</totfact>
</mgrwt>
</event>
<event>
 7    0  0.4737014E-002  0.4558406E+03  0.7546771E-02  0.1025994E+00
         21   -1    0    0  502  501  0.00000000000E+00  0.00000000000E+00  0.97040952026E+02  0.97040952026E+02  0.00000000000E+00 0.  1.
         21   -1    0    0  501  502 -0.00000000000E+00 -0.00000000000E+00 -0.53531701005E+03  0.53531701005E+03  0.00000000000E+00 0.  1.
      99926    2    1    2    0    0  0.00000000000E+00  0.00000000000E+00 -0.43827605803E+03  0.63235796208E+03  0.45584064010E+03 0.  0.
      99925    2    3    3    0    0  0.38098298699E+02  0.10345292857E+03 -0.23582396637E+03  0.37008263668E+03  0.26304795393E+03 0.  0.
         25    1    4    4    0    0  0.43185317500E+02  0.40217912201E+02 -0.15684382887E+03  0.20911706498E+03  0.12509000000E+03 0.  0.
         25    1    3    3    0    0 -0.38098298699E+02 -0.10345292857E+03 -0.20245209166E+03  0.26227532540E+03  0.12509000000E+03 0.  0.
         25    1    4    4    0    0 -0.50870188002E+01  0.63235016371E+02 -0.78980137492E+02  0.16096557170E+03  0.12509000000E+03 0.  0.
<mgrwt>
<rscale>  2 0.45584064E+03</rscale>
<asrwt>0</asrwt>
<pdfrwt beam="1">  1       21 0.14270728E-01 0.45584064E+03</pdfrwt>
<pdfrwt beam="2">  1       21 0.78723089E-01 0.45584064E+03</pdfrwt>
<totfact> 0.56354592E+04</totfact>
</mgrwt>
</event>
<event>
 7    0  0.4737014E-002  0.4684316E+03  0.7546771E-02  0.1022364E+00
         21   -1    0    0  502  501  0.00000000000E+00  0.00000000000E+00  0.51910573674E+03  0.51910573674E+03  0.00000000000E+00 0. -1.
         21   -1    0    0  501  502 -0.00000000000E+00 -0.00000000000E+00 -0.10567603594E+03  0.10567603594E+03  0.00000000000E+00 0. -1.
      99926    2    1    2    0    0  0.00000000000E+00  0.00000000000E+00  0.41342970079E+03  0.62478177268E+03  0.46843158089E+03 0.  0.
      99925    2    3    3    0    0 -0.53096491642E+02 -0.96619451037E+02  0.33664101907E+03  0.44121008237E+03  0.26302966624E+03 0.  0.
         25    1    3    3    0    0  0.53096491642E+02  0.96619451037E+02  0.76788681725E+02  0.18357169031E+03  0.12509000000E+03 0.  0.
         25    1    4    4    0    0 -0.46180533086E+02 -0.15649758642E+02  0.13504359015E+03  0.19042540776E+03  0.12509000000E+03 0.  0.
         25    1    4    4    0    0 -0.69159585565E+01 -0.80969692395E+02  0.20159742892E+03  0.25078467461E+03  0.12509000000E+03 0.  0.
<mgrwt>
<rscale>  2 0.46843158E+03</rscale>
<asrwt>0</asrwt>
<pdfrwt beam="1">  1       21 0.76339078E-01 0.46843158E+03</pdfrwt>
<pdfrwt beam="2">  1       21 0.15540594E-01 0.46843158E+03</pdfrwt>
<totfact> 0.51495578E+04</totfact>
</mgrwt>
</event>
<event>
 7    0  0.4737014E-002  0.4717057E+03  0.7546771E-02  0.1021440E+00
         21   -1    0    0  502  501  0.00000000000E+00  0.00000000000E+00  0.15207332579E+03  0.15207332579E+03  0.00000000000E+00 0.  1.
         21   -1    0    0  501  502 -0.00000000000E+00 -0.00000000000E+00 -0.36578778168E+03  0.36578778168E+03  0.00000000000E+00 0.  1.
      99926    2    1    2    0    0 -0.14210854715E-13  0.00000000000E+00 -0.21371445589E+03  0.51786110748E+03  0.47170569000E+03 0.  0.
      99925    2    3    3    0    0 -0.11845127844E+03  0.41454659605E+02 -0.10392961725E+03  0.30941587951E+03  0.26303541013E+03 0.  0.
         25    1    3    3    0    0  0.11845127844E+03 -0.41454659605E+02 -0.10978483864E+03  0.20844522797E+03  0.12509000000E+03 0.  0.
         25    1    4    4    0    0 -0.87254036000E+02  0.58484644799E+01 -0.83927262319E+02  0.17418026523E+03  0.12509000000E+03 0.  0.
         25    1    4    4    0    0 -0.31197242439E+02  0.35606195125E+02 -0.20002354930E+02  0.13523561428E+03  0.12509000000E+03 0.  0.
<mgrwt>
<rscale>  2 0.47170569E+03</rscale>
<asrwt>0</asrwt>
<pdfrwt beam="1">  1       21 0.22363725E-01 0.47170569E+03</pdfrwt>
<pdfrwt beam="2">  1       21 0.53792320E-01 0.47170569E+03</pdfrwt>
<totfact> 0.56203532E+04</totfact>
</mgrwt>
</event>
<event>
 7    0  0.4737014E-002  0.4462136E+03  0.7546771E-02  0.1028857E+00
         21   -1    0    0  502  501  0.00000000000E+00  0.00000000000E+00  0.50147553279E+03  0.50147553279E+03  0.00000000000E+00 0. -1.
         21   -1    0    0  501  502 -0.00000000000E+00 -0.00000000000E+00 -0.99260352954E+02  0.99260352954E+02  0.00000000000E+00 0. -1.
      99926    2    1    2    0    0  0.00000000000E+00  0.00000000000E+00  0.40221517984E+03  0.60073588574E+03  0.44621357390E+03 0.  0.
      99925    2    3    3    0    0 -0.70557165044E+02 -0.66849873394E+02  0.30802361096E+03  0.41643510208E+03  0.26285438978E+03 0.  0.
         25    1    4    4    0    0 -0.67079008760E+02 -0.61865644015E+02  0.16295587163E+03  0.22478673343E+03  0.12509000000E+03 0.  0.
         25    1    3    3    0    0  0.70557165044E+02  0.66849873394E+02  0.94191568879E+02  0.18430078367E+03  0.12509000000E+03 0.  0.
         25    1    4    4    0    0 -0.34781562841E+01 -0.49842293788E+01  0.14506773933E+03  0.19164836865E+03  0.12509000000E+03 0.  0.
<mgrwt>
<rscale>  2 0.44621357E+03</rscale>
<asrwt>0</asrwt>
<pdfrwt beam="1">  1       21 0.73746401E-01 0.44621357E+03</pdfrwt>
<pdfrwt beam="2">  1       21 0.14597111E-01 0.44621357E+03</pdfrwt>
<totfact> 0.62886128E+04</totfact>
</mgrwt>
</event>
<event>
 7    0  0.4737014E-002  0.4543199E+03  0.7546771E-02  0.1026442E+00
         21   -1    0    0  502  501  0.00000000000E+00  0.00000000000E+00  0.12721999986E+04  0.12721999986E+04  0.00000000000E+00 0.  1.
         21   -1    0    0  501  502 -0.00000000000E+00 -0.00000000000E+00 -0.40560947196E+02  0.40560947196E+02  0.00000000000E+00 0.  1.
      99926    2    1    2    0    0  0.00000000000E+00  0.00000000000E+00  0.12316390514E+04  0.13127609458E+04  0.45431987395E+03 0.  0.
      99925    2    3    3    0    0  0.63710727284E+02  0.74291859674E+02  0.61499107208E+03  0.67598737875E+03  0.26299539978E+03 0.  0.
         25    1    4    4    0    0 -0.80332534247E+01  0.28042754985E+02  0.25807948827E+03  0.28827670671E+03  0.12509000000E+03 0.  0.
         25    1    4    4    0    0  0.71743980709E+02  0.46249104688E+02  0.35691158381E+03  0.38771067203E+03  0.12509000000E+03 0.  0.
         25    1    3    3    0    0 -0.63710727284E+02 -0.74291859674E+02  0.61664797932E+03  0.63677356704E+03  0.12509000000E+03 0.  0.
<mgrwt>
<rscale>  2 0.45431987E+03</rscale>
<asrwt>0</asrwt>
<pdfrwt beam="1">  1       21 0.18708821E+00 0.45431987E+03</pdfrwt>
<pdfrwt beam="2">  1       21 0.59648460E-02 0.45431987E+03</pdfrwt>
<totfact> 0.28898871E+04</totfact>
</mgrwt>
</event>
<event>
 7    0  0.4737014E-002  0.4462132E+03  0.7546771E-02  0.1028857E+00
         21   -1    0    0  502  501  0.00000000000E+00  0.00000000000E+00  0.98596418871E+03  0.98596418871E+03  0.00000000000E+00 0. -1.
         21   -1    0    0  501  502 -0.00000000000E+00 -0.00000000000E+00 -0.50485152853E+02  0.50485152853E+02  0.00000000000E+00 0. -1.
      99926    2    1    2    0    0  0.00000000000E+00  0.00000000000E+00  0.93547903586E+03  0.10364493416E+04  0.44621319019E+03 0.  0.
      99925    2    3    3    0    0  0.49577653914E+02  0.86515459760E+02  0.66852410665E+03  0.72523348259E+03  0.26286166430E+03 0.  0.
         25    1    3    3    0    0 -0.49577653914E+02 -0.86515459760E+02  0.26695492921E+03  0.31121585897E+03  0.12509000000E+03 0.  0.
         25    1    4    4    0    0  0.57998643718E+02  0.51060090135E+02  0.41333944007E+03  0.43871172345E+03  0.12509000000E+03 0.  0.
         25    1    4    4    0    0 -0.84209898041E+01  0.35455369626E+02  0.25518466658E+03  0.28652175914E+03  0.12509000000E+03 0.  0.
<mgrwt>
<rscale>  2 0.44621319E+03</rscale>
<asrwt>0</asrwt>
<pdfrwt beam="1">  1       21 0.14499472E+00 0.44621319E+03</pdfrwt>
<pdfrwt beam="2">  1       21 0.74242878E-02 0.44621319E+03</pdfrwt>
<totfact> 0.40485074E+04</totfact>
</mgrwt>
</event>
<event>
 6    0  0.4737014E-002  0.4740493E+03  0.7546771E-02  0.1020784E+00
         21   -1    0    0  502  501  0.00000000000E+00  0.00000000000E+00  0.45380488530E+03  0.45380488530E+03  0.00000000000E+00 0. -1.
         21   -1    0    0  501  502 -0.00000000000E+00 -0.00000000000E+00 -0.12379921858E+03  0.12379921858E+03  0.00000000000E+00 0. -1.
      99926    2    1    2    0    0  0.35527136788E-14  0.35527136788E-14  0.33000566672E+03  0.57760410388E+03  0.47404932312E+03 0.  0.
         25    1    3    3    0    0  0.46202933757E+02 -0.38676926366E+02  0.14910967909E+03  0.20374449740E+03  0.12509000000E+03 0.  0.
         25    1    3    3    0    0 -0.31086743485E+02  0.80486261361E+01 -0.24022117723E+02  0.13136109105E+03  0.12509000000E+03 0.  0.
         25    1    3    3    0    0 -0.15116190273E+02  0.30628300230E+02  0.20491810535E+03  0.24249851543E+03  0.12509000000E+03 0.  0.
<mgrwt>
<rscale>  2 0.47404932E+03</rscale>
<asrwt>0</asrwt>
<pdfrwt beam="1">  1       21 0.66736012E-01 0.47404932E+03</pdfrwt>
<pdfrwt beam="2">  1       21 0.18205768E-01 0.47404932E+03</pdfrwt>
<totfact> 0.51820879E+04</totfact>
</mgrwt>
</event>
<event>
 7    0  0.4737014E-002  0.4436261E+03  0.7546771E-02  0.1029640E+00
         21   -1    0    0  502  501  0.00000000000E+00  0.00000000000E+00  0.41001907089E+03  0.41001907089E+03  0.00000000000E+00 0.  1.
         21   -1    0    0  501  502 -0.00000000000E+00 -0.00000000000E+00 -0.11999692774E+03  0.11999692774E+03  0.00000000000E+00 0.  1.
      99926    2    1    2    0    0  0.00000000000E+00  0.00000000000E+00  0.29002214315E+03  0.53001599863E+03  0.44362609851E+03 0.  0.
      99925    2    3    3    0    0 -0.16003787174E+02  0.22726374279E+02  0.30168083255E+03  0.40134571290E+03  0.26323838481E+03 0.  0.
         25    1    4    4    0    0 -0.42818203179E+01 -0.29150406741E+02  0.13769756699E+03  0.18835128949E+03  0.12509000000E+03 0.  0.
         25    1    4    4    0    0 -0.11721966856E+02  0.51876781019E+02  0.16398326556E+03  0.21299442340E+03  0.12509000000E+03 0.  0.
         25    1    3    3    0    0  0.16003787174E+02 -0.22726374279E+02 -0.11658689403E+02  0.12867028573E+03  0.12509000000E+03 0.  0.
<mgrwt>
<rscale>  2 0.44362610E+03</rscale>
<asrwt>0</asrwt>
<pdfrwt beam="1">  1       21 0.60296922E-01 0.44362610E+03</pdfrwt>
<pdfrwt beam="2">  1       21 0.17646607E-01 0.44362610E+03</pdfrwt>
<totfact> 0.69232566E+04</totfact>
</mgrwt>
</event>
<event>
 7    0  0.4737014E-002  0.4534666E+03  0.7546771E-02  0.1026693E+00
         21   -1    0    0  502  501  0.00000000000E+00  0.00000000000E+00  0.21633397945E+03  0.21633397945E+03  0.00000000000E+00 0. -1.
         21   -1    0    0  501  502 -0.00000000000E+00 -0.00000000000E+00 -0.23763250041E+03  0.23763250041E+03  0.00000000000E+00 0. -1.
      99926    2    1    2    0    0  0.00000000000E+00  0.00000000000E+00 -0.21298520958E+02  0.45396647985E+03  0.45346657852E+03 0.  0.
      99925    2    3    3    0    0  0.39472210914E+02 -0.10443627921E+03 -0.19114148323E+02  0.28628442525E+03  0.26292285870E+03 0.  0.
         25    1    4    4    0    0  0.92406136222E+01 -0.98143181163E+01 -0.12144540000E+02  0.12639900210E+03  0.12509000000E+03 0.  0.
         25    1    4    4    0    0  0.30231597292E+02 -0.94621961098E+02 -0.69696083235E+01  0.15988542315E+03  0.12509000000E+03 0.  0.
         25    1    3    3    0    0 -0.39472210914E+02  0.10443627921E+03 -0.21843726348E+01  0.16768205460E+03  0.12509000000E+03 0.  0.
<mgrwt>
<rscale>  2 0.45346658E+03</rscale>
<asrwt>0</asrwt>
<pdfrwt beam="1">  1       21 0.31813821E-01 0.45346658E+03</pdfrwt>
<pdfrwt beam="2">  1       21 0.34945956E-01 0.45346658E+03</pdfrwt>
<totfact> 0.69467651E+04</totfact>
</mgrwt>
</event>
<event>
 7    0  0.4737014E-002  0.4510010E+03  0.7546771E-02  0.1027424E+00
         21   -1    0    0  502  501  0.00000000000E+00  0.00000000000E+00  0.34686296430E+02  0.34686296430E+02  0.00000000000E+00 0.  1.
         21   -1    0    0  501  502 -0.00000000000E+00 -0.00000000000E+00 -0.14660102594E+04  0.14660102594E+04  0.00000000000E+00 0.  1.
      99926    2    1    2    0    0  0.00000000000E+00  0.00000000000E+00 -0.14313239630E+04  0.15006965558E+04  0.45100095976E+03 0.  0.
      99925    2    3    3    0    0  0.50634346362E+02 -0.58762846530E+02 -0.11609249481E+04  0.11928328774E+04  0.26284335465E+03 0.  0.
         25    1    4    4    0    0 -0.77448776219E+01 -0.45841777617E+02 -0.64062675665E+03  0.65437879026E+03  0.12509000000E+03 0.  0.
         25    1    3    3    0    0 -0.50634346362E+02  0.58762846530E+02 -0.27039901486E+03  0.30786367844E+03  0.12509000000E+03 0.  0.
         25    1    4    4    0    0  0.58379223984E+02 -0.12921068913E+02 -0.52029819145E+03  0.53845408712E+03  0.12509000000E+03 0.  0.
<mgrwt>
<rscale>  2 0.45100096E+03</rscale>
<asrwt>0</asrwt>
<pdfrwt beam="1">  1       21 0.51009259E-02 0.45100096E+03</pdfrwt>
<pdfrwt beam="2">  1       21 0.21558975E+00 0.45100096E+03</pdfrwt>
<totfact> 0.24514734E+04</totfact>
</mgrwt>
</event>
<event>
 7    0  0.4737014E-002  0.4652736E+03  0.7546771E-02  0.1023263E+00
         21   -1    0    0  502  501  0.00000000000E+00  0.00000000000E+00  0.18323310454E+03  0.18323310454E+03  0.00000000000E+00 0.  1.
         21   -1    0    0  501  502 -0.00000000000E+00 -0.00000000000E+00 -0.29536082955E+03  0.29536082955E+03  0.00000000000E+00 0.  1.
      99926    2    1    2    0    0  0.00000000000E+00  0.00000000000E+00 -0.11212772501E+03  0.47859393408E+03  0.46527360448E+03 0.  0.
      99925    2    3    3    0    0 -0.58677318581E+02  0.92835897051E+02 -0.12578247440E+03  0.31157449875E+03  0.26305114695E+03 0.  0.
         25    1    4    4    0    0  0.78482294995E+01  0.26054209708E+02 -0.64913624704E+02  0.14353293462E+03  0.12509000000E+03 0.  0.
         25    1    4    4    0    0 -0.66525548081E+02  0.66781687343E+02 -0.60868849692E+02  0.16804156413E+03  0.12509000000E+03 0.  0.
         25    1    3    3    0    0  0.58677318581E+02 -0.92835897051E+02  0.13654749387E+02  0.16701943533E+03  0.12509000000E+03 0.  0.
<mgrwt>
<rscale>  2 0.46527360E+03</rscale>
<asrwt>0</asrwt>
<pdfrwt beam="1">  1       21 0.26946045E-01 0.46527360E+03</pdfrwt>
<pdfrwt beam="2">  1       21 0.43435416E-01 0.46527360E+03</pdfrwt>
<totfact> 0.61623980E+04</totfact>
</mgrwt>
</event>
<event>
 7    0  0.4737014E-002  0.4508348E+03  0.7546771E-02  0.1027473E+00
         21   -1    0    0  502  501  0.00000000000E+00  0.00000000000E+00  0.15866957997E+03  0.15866957997E+03  0.00000000000E+00 0.  1.
         21   -1    0    0  501  502 -0.00000000000E+00 -0.00000000000E+00 -0.32024419172E+03  0.32024419172E+03  0.00000000000E+00 0.  1.
      99926    2    1    2    0    0  0.14210854715E-13 -0.17763568394E-14 -0.16157461175E+03  0.47891377170E+03  0.45083483179E+03 0.  0.
      99925    2    3    3    0    0  0.83040724704E+02  0.97785161062E+01 -0.26337161525E+02  0.27660693202E+03  0.26234779860E+03 0.  0.
         25    1    3    3    0    0 -0.83040724704E+02 -0.97785161062E+01 -0.13523745022E+03  0.20230683968E+03  0.12509000000E+03 0.  0.
         25    1    4    4    0    0  0.37967685501E+02  0.44116666758E+02 -0.16000643110E+02  0.13889331916E+03  0.12509000000E+03 0.  0.
         25    1    4    4    0    0  0.45073039204E+02 -0.34338150652E+02 -0.10336518414E+02  0.13771361286E+03  0.12509000000E+03 0.  0.
<mgrwt>
<rscale>  2 0.45083483E+03</rscale>
<asrwt>0</asrwt>
<pdfrwt beam="1">  1       21 0.23333762E-01 0.45083483E+03</pdfrwt>
<pdfrwt beam="2">  1       21 0.47094734E-01 0.45083483E+03</pdfrwt>
<totfact> 0.69033564E+04</totfact>
</mgrwt>
</event>
<event>
 7    0  0.4737014E-002  0.4590040E+03  0.7546771E-02  0.1025070E+00
         21   -1    0    0  502  501  0.00000000000E+00  0.00000000000E+00  0.13364382750E+03  0.13364382750E+03  0.00000000000E+00 0.  1.
         21   -1    0    0  501  502 -0.00000000000E+00 -0.00000000000E+00 -0.39411601278E+03  0.39411601278E+03  0.00000000000E+00 0.  1.
      99926    2    1    2    0    0  0.00000000000E+00  0.00000000000E+00 -0.26047218529E+03  0.52775984028E+03  0.45900401927E+03 0.  0.
      99925    2    3    3    0    0 -0.25475932479E+02 -0.60717272870E+02 -0.27429655356E+03  0.38572381802E+03  0.26307537728E+03 0.  0.
         25    1    4    4    0    0 -0.29228165107E+02 -0.86411447901E+01 -0.90607296631E+02  0.15743616269E+03  0.12509000000E+03 0.  0.
         25    1    3    3    0    0  0.25475932479E+02  0.60717272870E+02  0.13824368276E+02  0.14203602226E+03  0.12509000000E+03 0.  0.
         25    1    4    4    0    0  0.37522326288E+01 -0.52076128080E+02 -0.18368925693E+03  0.22828765533E+03  0.12509000000E+03 0.  0.
<mgrwt>
<rscale>  2 0.45900402E+03</rscale>
<asrwt>0</asrwt>
<pdfrwt beam="1">  1       21 0.19653504E-01 0.45900402E+03</pdfrwt>
<pdfrwt beam="2">  1       21 0.57958238E-01 0.45900402E+03</pdfrwt>
<totfact> 0.61386723E+04</totfact>
</mgrwt>
</event>
<event>
 7    0  0.4737014E-002  0.4584604E+03  0.7546771E-02  0.1025229E+00
         21   -1    0    0  502  501  0.00000000000E+00  0.00000000000E+00  0.34166566942E+03  0.34166566942E+03  0.00000000000E+00 0.  1.
         21   -1    0    0  501  502 -0.00000000000E+00 -0.00000000000E+00 -0.15379501238E+03  0.15379501238E+03  0.00000000000E+00 0.  1.
      99926    2    1    2    0    0  0.00000000000E+00  0.00000000000E+00  0.18787065704E+03  0.49546068180E+03  0.45846036190E+03 0.  0.
      99925    2    3    3    0    0 -0.11520212551E+03 -0.11446948226E+02  0.10510584302E+03  0.30598750458E+03  0.26301815979E+03 0.  0.
         25    1    3    3    0    0  0.11520212551E+03  0.11446948226E+02  0.82764814016E+02  0.18947317722E+03  0.12509000000E+03 0.  0.
         25    1    4    4    0    0 -0.24336036268E+02 -0.15168839015E+02  0.74310991185E+02  0.14829689090E+03  0.12509000000E+03 0.  0.
         25    1    4    4    0    0 -0.90866089247E+02  0.37218907888E+01  0.30794851839E+02  0.15769061369E+03  0.12509000000E+03 0.  0.
<mgrwt>
<rscale>  2 0.45846036E+03</rscale>
<asrwt>0</asrwt>
<pdfrwt beam="1">  1       21 0.50244951E-01 0.45846036E+03</pdfrwt>
<pdfrwt beam="2">  1       21 0.22616914E-01 0.45846036E+03</pdfrwt>
<totfact> 0.63819497E+04</totfact>
</mgrwt>
</event>
<event>
 7    0  0.4737014E-002  0.4578174E+03  0.7546771E-02  0.1025416E+00
         21   -1    0    0  502  501  0.00000000000E+00  0.00000000000E+00  0.19063345513E+03  0.19063345513E+03  0.00000000000E+00 0. -1.
         21   -1    0    0  501  502 -0.00000000000E+00 -0.00000000000E+00 -0.27486878880E+03  0.27486878880E+03  0.00000000000E+00 0. -1.
      99926    2    1    2    0    0  0.00000000000E+00  0.00000000000E+00 -0.84235333678E+02  0.46550224393E+03  0.45781737370E+03 0.  0.
      99925    2    3    3    0    0 -0.40247435249E+02  0.22272173136E+02 -0.16092785429E+03  0.31173242713E+03  0.26298940301E+03 0.  0.
         25    1    4    4    0    0 -0.27674693392E+01 -0.24646034893E+01 -0.11816203209E+03  0.17211480786E+03  0.12509000000E+03 0.  0.
         25    1    4    4    0    0 -0.37479965910E+02  0.24736776626E+02 -0.42765822200E+02  0.13961761927E+03  0.12509000000E+03 0.  0.
         25    1    3    3    0    0  0.40247435249E+02 -0.22272173136E+02  0.76692520613E+02  0.15376981680E+03  0.12509000000E+03 0.  0.
<mgrwt>
<rscale>  2 0.45781737E+03</rscale>
<asrwt>0</asrwt>
<pdfrwt beam="1">  1       21 0.28034332E-01 0.45781737E+03</pdfrwt>
<pdfrwt beam="2">  1       21 0.40421880E-01 0.45781737E+03</pdfrwt>
<totfact> 0.66276068E+04</totfact>
</mgrwt>
</event>
<event>
 7    0  0.4737014E-002  0.4488124E+03  0.7546771E-02  0.1028077E+00
         21   -1    0    0  502  501  0.00000000000E+00  0.00000000000E+00  0.13330064801E+03  0.13330064801E+03  0.00000000000E+00 0. -1.
         21   -1    0    0  501  502 -0.00000000000E+00 -0.00000000000E+00 -0.37777870595E+03  0.37777870595E+03  0.00000000000E+00 0. -1.
      99926    2    1    2    0    0  0.14210854715E-13  0.35527136788E-14 -0.24447805794E+03  0.51107935397E+03  0.44881241654E+03 0.  0.
      99925    2    3    3    0    0  0.72296493000E+02 -0.18263707244E+02 -0.24258953691E+03  0.36543794325E+03  0.26293508904E+03 0.  0.
         25    1    4    4    0    0  0.28308616527E+01  0.64959957694E+01 -0.86510577650E+02  0.15225570559E+03  0.12509000000E+03 0.  0.
         25    1    3    3    0    0 -0.72296493000E+02  0.18263707244E+02 -0.18885210273E+01  0.14564141071E+03  0.12509000000E+03 0.  0.
         25    1    4    4    0    0  0.69465631348E+02 -0.24759703013E+02 -0.15607895926E+03  0.21318223767E+03  0.12509000000E+03 0.  0.
<mgrwt>
<rscale>  2 0.44881242E+03</rscale>
<asrwt>0</asrwt>
<pdfrwt beam="1">  1       21 0.19603037E-01 0.44881242E+03</pdfrwt>
<pdfrwt beam="2">  1       21 0.55555692E-01 0.44881242E+03</pdfrwt>
<totfact> 0.67765739E+04</totfact>
</mgrwt>
</event>
<event>
 7    0  0.4737014E-002  0.4516883E+03  0.7546771E-02  0.1027220E+00
         21   -1    0    0  502  501  0.00000000000E+00  0.00000000000E+00  0.20669763086E+03  0.20669763086E+03  0.00000000000E+00 0. -1.
         21   -1    0    0  501  502 -0.00000000000E+00 -0.00000000000E+00 -0.24676427360E+03  0.24676427360E+03  0.00000000000E+00 0. -1.
      99926    2    1    2    0    0  0.35527136788E-14  0.00000000000E+00 -0.40066642740E+02  0.45346190446E+03  0.45168834713E+03 0.  0.
      99925    2    3    3    0    0 -0.30928402637E+02 -0.26848939924E+02 -0.12823707867E+03  0.29503537405E+03  0.26253322063E+03 0.  0.
         25    1    4    4    0    0 -0.26692201148E+02  0.20411336461E+02 -0.82867127392E+02  0.15376464210E+03  0.12509000000E+03 0.  0.
         25    1    3    3    0    0  0.30928402637E+02  0.26848939924E+02  0.88170435927E+02  0.15842653041E+03  0.12509000000E+03 0.  0.
         25    1    4    4    0    0 -0.42362014892E+01 -0.47260276385E+02 -0.45369951274E+02  0.14127073195E+03  0.12509000000E+03 0.  0.
<mgrwt>
<rscale>  2 0.45168835E+03</rscale>
<asrwt>0</asrwt>
<pdfrwt beam="1">  1       21 0.30396711E-01 0.45168835E+03</pdfrwt>
<pdfrwt beam="2">  1       21 0.36288863E-01 0.45168835E+03</pdfrwt>
<totfact> 0.70503175E+04</totfact>
</mgrwt>
</event>
<event>
 6    0  0.4737014E-002  0.4470865E+03  0.7546771E-02  0.1028594E+00
         21   -1    0    0  502  501  0.00000000000E+00  0.00000000000E+00  0.19838811705E+02  0.19838811705E+02  0.00000000000E+00 0. -1.
         21   -1    0    0  501  502 -0.00000000000E+00 -0.00000000000E+00 -0.25188795070E+04  0.25188795070E+04  0.00000000000E+00 0. -1.
      99926    2    1    2    0    0  0.00000000000E+00  0.00000000000E+00 -0.24990406953E+04  0.25387183187E+04  0.44708646254E+03 0.  0.
         25    1    3    3    0    0  0.80968523328E+02 -0.15728316070E+02 -0.55508378498E+03  0.57495112674E+03  0.12509000000E+03 0.  0.
         25    1    3    3    0    0 -0.43328766293E+02  0.14350080707E+02 -0.12924938742E+04  0.12993349183E+04  0.12509000000E+03 0.  0.
         25    1    3    3    0    0 -0.37639757036E+02  0.13782353639E+01 -0.65146303613E+03  0.66443227374E+03  0.12509000000E+03 0.  0.
<mgrwt>
<rscale>  2 0.44708646E+03</rscale>
<asrwt>0</asrwt>
<pdfrwt beam="1">  1       21 0.29174710E-02 0.44708646E+03</pdfrwt>
<pdfrwt beam="2">  1       21 0.37042363E+00 0.44708646E+03</pdfrwt>
<totfact> 0.71751392E+03</totfact>
</mgrwt>
</event>
<event>
 7    0  0.4737014E-002  0.4519050E+03  0.7546771E-02  0.1027155E+00
         21   -1    0    0  502  501  0.00000000000E+00  0.00000000000E+00  0.51724242731E+03  0.51724242731E+03  0.00000000000E+00 0.  1.
         21   -1    0    0  501  502 -0.00000000000E+00 -0.00000000000E+00 -0.98705225610E+02  0.98705225610E+02  0.00000000000E+00 0.  1.
      99926    2    1    2    0    0  0.00000000000E+00 -0.35527136788E-14  0.41853720170E+03  0.61594765292E+03  0.45190499215E+03 0.  0.
      99925    2    3    3    0    0 -0.76049393975E+02 -0.30590325871E+02  0.16383123531E+03  0.32058022788E+03  0.26308122412E+03 0.  0.
         25    1    3    3    0    0  0.76049393975E+02  0.30590325871E+02  0.25470596639E+03  0.29536742504E+03  0.12509000000E+03 0.  0.
         25    1    4    4    0    0 -0.13957528449E+02 -0.47869867241E+02  0.85844530488E+02  0.15969698903E+03  0.12509000000E+03 0.  0.
         25    1    4    4    0    0 -0.62091865526E+02  0.17279541371E+02  0.77986704825E+02  0.16088323885E+03  0.12509000000E+03 0.  0.
<mgrwt>
<rscale>  2 0.45190499E+03</rscale>
<asrwt>0</asrwt>
<pdfrwt beam="1">  1       21 0.76065062E-01 0.45190499E+03</pdfrwt>
<pdfrwt beam="2">  1       21 0.14515475E-01 0.45190499E+03</pdfrwt>
<totfact> 0.59139544E+04</totfact>
</mgrwt>
</event>
<event>
 7    0  0.4737014E-002  0.4551221E+03  0.7546771E-02  0.1026205E+00
         21   -1    0    0  502  501  0.00000000000E+00  0.00000000000E+00  0.24052656672E+03  0.24052656672E+03  0.00000000000E+00 0. -1.
         21   -1    0    0  501  502 -0.00000000000E+00 -0.00000000000E+00 -0.21529447702E+03  0.21529447702E+03  0.00000000000E+00 0. -1.
      99926    2    1    2    0    0  0.00000000000E+00  0.00000000000E+00  0.25232089699E+02  0.45582104374E+03  0.45512214356E+03 0.  0.
      99925    2    3    3    0    0 -0.90702756320E+02  0.66401692080E+02  0.30738125983E+02  0.28755340201E+03  0.26288010938E+03 0.  0.
         25    1    4    4    0    0 -0.49291422744E+02  0.46123790290E+02 -0.22663548080E+02  0.14393815651E+03  0.12509000000E+03 0.  0.
         25    1    3    3    0    0  0.90702756320E+02 -0.66401692080E+02 -0.55060362841E+01  0.16826764172E+03  0.12509000000E+03 0.  0.
         25    1    4    4    0    0 -0.41411333576E+02  0.20277901791E+02  0.53401674062E+02  0.14361524551E+03  0.12509000000E+03 0.  0.
<mgrwt>
<rscale>  2 0.45512214E+03</rscale>
<asrwt>0</asrwt>
<pdfrwt beam="1">  1       21 0.35371554E-01 0.45512214E+03</pdfrwt>
<pdfrwt beam="2">  1       21 0.31660952E-01 0.45512214E+03</pdfrwt>
<totfact> 0.68419014E+04</totfact>
</mgrwt>
</event>
<event>
 7    0  0.4737014E-002  0.4470911E+03  0.7546771E-02  0.1028593E+00
         21   -1    0    0  502  501  0.00000000000E+00  0.00000000000E+00  0.26455723107E+03  0.26455723107E+03  0.00000000000E+00 0.  1.
         21   -1    0    0  501  502 -0.00000000000E+00 -0.00000000000E+00 -0.18889149003E+03  0.18889149003E+03  0.00000000000E+00 0.  1.
      99926    2    1    2    0    0  0.00000000000E+00  0.00000000000E+00  0.75665741049E+02  0.45344872110E+03  0.44709108501E+03 0.  0.
      99925    2    3    3    0    0 -0.38622085269E+02 -0.21847863983E+02  0.14517330410E+03  0.30362280861E+03  0.26294966639E+03 0.  0.
         25    1    4    4    0    0 -0.37383500739E+02 -0.38351244979E+00  0.11304036510E+03  0.17269425425E+03  0.12509000000E+03 0.  0.
         25    1    4    4    0    0 -0.12385845296E+01 -0.21464351533E+02  0.32132938998E+02  0.13092855436E+03  0.12509000000E+03 0.  0.
         25    1    3    3    0    0  0.38622085269E+02  0.21847863983E+02 -0.69507563051E+02  0.14982591249E+03  0.12509000000E+03 0.  0.
<mgrwt>
<rscale>  2 0.44709109E+03</rscale>
<asrwt>0</asrwt>
<pdfrwt beam="1">  1       21 0.38905475E-01 0.44709109E+03</pdfrwt>
<pdfrwt beam="2">  1       21 0.27778160E-01 0.44709109E+03</pdfrwt>
<totfact> 0.73167407E+04</totfact>
</mgrwt>
</event>
<event>
 7    0  0.4737014E-002  0.4509031E+03  0.7546771E-02  0.1027453E+00
         21   -1    0    0  502  501  0.00000000000E+00  0.00000000000E+00  0.11993573143E+04  0.11993573143E+04  0.00000000000E+00 0. -1.
         21   -1    0    0  501  502 -0.00000000000E+00 -0.00000000000E+00 -0.42379697071E+02  0.42379697071E+02  0.00000000000E+00 0. -1.
      99926    2    1    2    0    0  0.00000000000E+00 -0.17763568394E-14  0.11569776173E+04  0.12417370114E+04  0.45090309230E+03 0.  0.
      99925    2    3    3    0    0 -0.53084330619E+02  0.97832397495E+01  0.46930575626E+03  0.54069938442E+03  0.26304804412E+03 0.  0.
         25    1    4    4    0    0 -0.17506583073E+02  0.20833456538E+02  0.15948067014E+03  0.20450453689E+03  0.12509000000E+03 0.  0.
         25    1    4    4    0    0 -0.35577747546E+02 -0.11050216789E+02  0.30982508613E+03  0.33619484753E+03  0.12509000000E+03 0.  0.
         25    1    3    3    0    0  0.53084330619E+02 -0.97832397495E+01  0.68767186099E+03  0.70103762697E+03  0.12509000000E+03 0.  0.
<mgrwt>
<rscale>  2 0.45090309E+03</rscale>
<asrwt>0</asrwt>
<pdfrwt beam="1">  1       21 0.17637605E+00 0.45090309E+03</pdfrwt>
<pdfrwt beam="2">  1       21 0.62323092E-02 0.45090309E+03</pdfrwt>
<totfact> 0.31858875E+04</totfact>
</mgrwt>
</event>
<event>
 7    0  0.4737014E-002  0.4394497E+03  0.7546771E-02  0.1030916E+00
         21   -1    0    0  502  501  0.00000000000E+00  0.00000000000E+00  0.13639333970E+04  0.13639333970E+04  0.00000000000E+00 0. -1.
         21   -1    0    0  501  502 -0.00000000000E+00 -0.00000000000E+00 -0.35396897744E+02  0.35396897744E+02  0.00000000000E+00 0. -1.
      99926    2    1    2    0    0  0.00000000000E+00 -0.71054273576E-14  0.13285364992E+04  0.13993302947E+04  0.43944970580E+03 0.  0.
      99925    2    3    3    0    0  0.52992529158E+02  0.58065140304E+02  0.66292673170E+03  0.71752120164E+03  0.26303052017E+03 0.  0.
         25    1    4    4    0    0  0.33509448409E+02 -0.98472079710E+01  0.34525671020E+03  0.36887606953E+03  0.12509000000E+03 0.  0.
         25    1    3    3    0    0 -0.52992529158E+02 -0.58065140304E+02  0.66560976751E+03  0.68180909305E+03  0.12509000000E+03 0.  0.
         25    1    4    4    0    0  0.19483080749E+02  0.67912348275E+02  0.31767002150E+03  0.34864513211E+03  0.12509000000E+03 0.  0.
<mgrwt>
<rscale>  2 0.43944971E+03</rscale>
<asrwt>0</asrwt>
<pdfrwt beam="1">  1       21 0.20057841E+00 0.43944971E+03</pdfrwt>
<pdfrwt beam="2">  1       21 0.52054270E-02 0.43944971E+03</pdfrwt>
<totfact> 0.29790614E+04</totfact>
</mgrwt>
</event>
<event>
 7    0  0.4737014E-002  0.4566470E+03  0.7546771E-02  0.1025758E+00
         21   -1    0    0  502  501  0.00000000000E+00  0.00000000000E+00  0.48918428935E+03  0.48918428935E+03  0.00000000000E+00 0.  1.
         21   -1    0    0  501  502 -0.00000000000E+00 -0.00000000000E+00 -0.10656847514E+03  0.10656847514E+03  0.00000000000E+00 0.  1.
      99926    2    1    2    0    0  0.00000000000E+00  0.35527136788E-14  0.38261581421E+03  0.59575276449E+03  0.45664701369E+03 0.  0.
      99925    2    3    3    0    0  0.11146424836E+03  0.19150130299E+02  0.26554746211E+03  0.39046391112E+03  0.26297453318E+03 0.  0.
         25    1    4    4    0    0  0.81543244835E+02 -0.22395121848E+02  0.14551373736E+03  0.20969644280E+03  0.12509000000E+03 0.  0.
         25    1    4    4    0    0  0.29921003528E+02  0.41545252147E+02  0.12003372475E+03  0.18076746833E+03  0.12509000000E+03 0.  0.
         25    1    3    3    0    0 -0.11146424836E+03 -0.19150130299E+02  0.11706835210E+03  0.20528885337E+03  0.12509000000E+03 0.  0.
<mgrwt>
<rscale>  2 0.45664701E+03</rscale>
<asrwt>0</asrwt>
<pdfrwt beam="1">  1       21 0.71938865E-01 0.45664701E+03</pdfrwt>
<pdfrwt beam="2">  1       21 0.15671835E-01 0.45664701E+03</pdfrwt>
<totfact> 0.58179537E+04</totfact>
</mgrwt>
</event>
<event>
 7    0  0.4737014E-002  0.4557846E+03  0.7546771E-02  0.1026011E+00
         21   -1    0    0  502  501  0.00000000000E+00  0.00000000000E+00  0.60155258285E+03  0.60155258285E+03  0.00000000000E+00 0.  1.
         21   -1    0    0  501  502 -0.00000000000E+00 -0.00000000000E+00 -0.86334753995E+02  0.86334753995E+02  0.00000000000E+00 0.  1.
      99926    2    1    2    0    0  0.28421709430E-13 -0.17763568394E-14  0.51521782886E+03  0.68788733685E+03  0.45578457304E+03 0.  0.
      99925    2    3    3    0    0  0.11330058083E+03 -0.10722251873E+02  0.32530961934E+03  0.43359493734E+03  0.26310878540E+03 0.  0.
         25    1    4    4    0    0  0.92460446354E+02 -0.20336178933E+02  0.20840326678E+03  0.26084846945E+03  0.12509000000E+03 0.  0.
         25    1    3    3    0    0 -0.11330058083E+03  0.10722251873E+02  0.18990820952E+03  0.25429239950E+03  0.12509000000E+03 0.  0.
         25    1    4    4    0    0  0.20840134480E+02  0.96139270595E+01  0.11690635256E+03  0.17274646789E+03  0.12509000000E+03 0.  0.
<mgrwt>
<rscale>  2 0.45578457E+03</rscale>
<asrwt>0</asrwt>
<pdfrwt beam="1">  1       21 0.88463613E-01 0.45578457E+03</pdfrwt>
<pdfrwt beam="2">  1       21 0.12696288E-01 0.45578457E+03</pdfrwt>
<totfact> 0.53236118E+04</totfact>
</mgrwt>
</event>
<event>
 7    0  0.4737014E-002  0.4525604E+03  0.7546771E-02  0.1026961E+00
         21   -1    0    0  502  501  0.00000000000E+00  0.00000000000E+00  0.98217371475E+03  0.98217371475E+03  0.00000000000E+00 0.  1.
         21   -1    0    0  501  502 -0.00000000000E+00 -0.00000000000E+00 -0.52132048980E+02  0.52132048980E+02  0.00000000000E+00 0.  1.
      99926    2    1    2    0    0  0.00000000000E+00 -0.35527136788E-14  0.93004166577E+03  0.10343057637E+04  0.45256039687E+03 0.  0.
      99925    2    3    3    0    0  0.25938100317E+02 -0.31496058642E+02  0.35055623820E+03  0.44007041000E+03  0.26288305928E+03 0.  0.
         25    1    4    4    0    0  0.70889115576E+01 -0.32529137501E+02  0.23713133228E+03  0.27016138566E+03  0.12509000000E+03 0.  0.
         25    1    3    3    0    0 -0.25938100317E+02  0.31496058642E+02  0.57948542756E+03  0.59423535372E+03  0.12509000000E+03 0.  0.
         25    1    4    4    0    0  0.18849188759E+02  0.10330788589E+01  0.11342490592E+03  0.16990902434E+03  0.12509000000E+03 0.  0.
<mgrwt>
<rscale>  2 0.45256040E+03</rscale>
<asrwt>0</asrwt>
<pdfrwt beam="1">  1       21 0.14443730E+00 0.45256040E+03</pdfrwt>
<pdfrwt beam="2">  1       21 0.76664784E-02 0.45256040E+03</pdfrwt>
<totfact> 0.38588276E+04</totfact>
</mgrwt>
</event>
<event>
 7    0  0.4737014E-002  0.4674001E+03  0.7546771E-02  0.1022657E+00
         21   -1    0    0  502  501  0.00000000000E+00  0.00000000000E+00  0.10202712626E+04  0.10202712626E+04  0.00000000000E+00 0. -1.
         21   -1    0    0  501  502 -0.00000000000E+00 -0.00000000000E+00 -0.53530579875E+02  0.53530579875E+02  0.00000000000E+00 0. -1.
      99926    2    1    2    0    0  0.17763568394E-14  0.14210854715E-13  0.96674068275E+03  0.10738018425E+04  0.46740009550E+03 0.  0.
      99925    2    3    3    0    0 -0.49277116581E+01  0.98024055897E+02  0.42626722289E+03  0.51042624240E+03  0.26305551836E+03 0.  0.
         25    1    4    4    0    0  0.28482290691E+02  0.64895017480E+02  0.26001969840E+03  0.29712010338E+03  0.12509000000E+03 0.  0.
         25    1    3    3    0    0  0.49277116581E+01 -0.98024055897E+02  0.54047345986E+03  0.56337560010E+03  0.12509000000E+03 0.  0.
         25    1    4    4    0    0 -0.33410002349E+02  0.33129038417E+02  0.16624752449E+03  0.21330613902E+03  0.12509000000E+03 0.  0.
<mgrwt>
<rscale>  2 0.46740010E+03</rscale>
<asrwt>0</asrwt>
<pdfrwt beam="1">  1       21 0.15003988E+00 0.46740010E+03</pdfrwt>
<pdfrwt beam="2">  1       21 0.78721448E-02 0.46740010E+03</pdfrwt>
<totfact> 0.33095657E+04</totfact>
</mgrwt>
</event>
<event>
 7    0  0.4737014E-002  0.4405359E+03  0.7546771E-02  0.1030583E+00
         21   -1    0    0  502  501  0.00000000000E+00  0.00000000000E+00  0.34692294099E+02  0.34692294099E+02  0.00000000000E+00 0. -1.
         21   -1    0    0  501  502 -0.00000000000E+00 -0.00000000000E+00 -0.13985227463E+04  0.13985227463E+04  0.00000000000E+00 0. -1.
      99926    2    1    2    0    0 -0.14210854715E-13  0.00000000000E+00 -0.13638304522E+04  0.14332150404E+04  0.44053586650E+03 0.  0.
      99925    2    3    3    0    0 -0.65447265755E+02 -0.67094802315E+02 -0.75244536041E+03  0.80216488735E+03  0.26174305914E+03 0.  0.
         25    1    4    4    0    0 -0.35141521229E+02 -0.14851953705E+02 -0.26813239566E+03  0.29832532033E+03  0.12509000000E+03 0.  0.
         25    1    4    4    0    0 -0.30305744527E+02 -0.52242848611E+02 -0.48431296475E+03  0.50383956703E+03  0.12509000000E+03 0.  0.
         25    1    3    3    0    0  0.65447265755E+02  0.67094802315E+02 -0.61138509178E+03  0.63105015304E+03  0.12509000000E+03 0.  0.
<mgrwt>
<rscale>  2 0.44053587E+03</rscale>
<asrwt>0</asrwt>
<pdfrwt beam="1">  1       21 0.51018086E-02 0.44053587E+03</pdfrwt>
<pdfrwt beam="2">  1       21 0.20566508E+00 0.44053587E+03</pdfrwt>
<totfact> 0.28535036E+04</totfact>
</mgrwt>
</event>
<event>
 7    0  0.4737014E-002  0.4561021E+03  0.7546771E-02  0.1025918E+00
         21   -1    0    0  502  501  0.00000000000E+00  0.00000000000E+00  0.12716598775E+03  0.12716598775E+03  0.00000000000E+00 0.  1.
         21   -1    0    0  501  502 -0.00000000000E+00 -0.00000000000E+00 -0.40897163942E+03  0.40897163942E+03  0.00000000000E+00 0.  1.
      99926    2    1    2    0    0  0.88817841970E-15  0.00000000000E+00 -0.28180565167E+03  0.53613762718E+03  0.45610210475E+03 0.  0.
      99925    2    3    3    0    0 -0.79653133591E+01 -0.76393605654E+02 -0.77696765735E+02  0.28472685847E+03  0.26293186823E+03 0.  0.
         25    1    3    3    0    0  0.79653133591E+01  0.76393605654E+02 -0.20410888593E+03  0.25141076870E+03  0.12509000000E+03 0.  0.
         25    1    4    4    0    0  0.65635540044E+01 -0.44911191597E+02  0.72194796969E+00  0.13307187787E+03  0.12509000000E+03 0.  0.
         25    1    4    4    0    0 -0.14528867363E+02 -0.31482414057E+02 -0.78418713705E+02  0.15165498060E+03  0.12509000000E+03 0.  0.
<mgrwt>
<rscale>  2 0.45610210E+03</rscale>
<asrwt>0</asrwt>
<pdfrwt beam="1">  1       21 0.18700880E-01 0.45610210E+03</pdfrwt>
<pdfrwt beam="2">  1       21 0.60142889E-01 0.45610210E+03</pdfrwt>
<totfact> 0.62247193E+04</totfact>
</mgrwt>
</event>
<event>
 7    0  0.4737014E-002  0.4576947E+03  0.7546771E-02  0.1025452E+00
         21   -1    0    0  502  501  0.00000000000E+00  0.00000000000E+00  0.48374783626E+03  0.48374783626E+03  0.00000000000E+00 0.  1.
         21   -1    0    0  501  502 -0.00000000000E+00 -0.00000000000E+00 -0.10826118194E+03  0.10826118194E+03  0.00000000000E+00 0.  1.
      99926    2    1    2    0    0  0.71054273576E-14 -0.71054273576E-14  0.37548665431E+03  0.59200901820E+03  0.45769471273E+03 0.  0.
      99925    2    3    3    0    0  0.55913202556E+02 -0.41279073354E+02  0.35525886745E+03  0.44748594191E+03  0.26306759054E+03 0.  0.
         25    1    4    4    0    0  0.62654755106E+02 -0.40656583712E+01  0.20669705680E+03  0.24962637943E+03  0.12509000000E+03 0.  0.
         25    1    4    4    0    0 -0.67415525494E+01 -0.37213414983E+02  0.14856181064E+03  0.19785956249E+03  0.12509000000E+03 0.  0.
         25    1    3    3    0    0 -0.55913202556E+02  0.41279073354E+02  0.20227786868E+02  0.14452307628E+03  0.12509000000E+03 0.  0.
<mgrwt>
<rscale>  2 0.45769471E+03</rscale>
<asrwt>0</asrwt>
<pdfrwt beam="1">  1       21 0.71139387E-01 0.45769471E+03</pdfrwt>
<pdfrwt beam="2">  1       21 0.15920762E-01 0.45769471E+03</pdfrwt>
<totfact> 0.57929250E+04</totfact>
</mgrwt>
</event>
<event>
 7    0  0.4737014E-002  0.4186199E+03  0.7546771E-02  0.1037516E+00
         21   -1    0    0  502  501  0.00000000000E+00  0.00000000000E+00  0.33405391553E+03  0.33405391553E+03  0.00000000000E+00 0. -1.
         21   -1    0    0  501  502 -0.00000000000E+00 -0.00000000000E+00 -0.13114847835E+03  0.13114847835E+03  0.00000000000E+00 0. -1.
      99926    2    1    2    0    0  0.00000000000E+00 -0.14210854715E-13  0.20290543718E+03  0.46520239387E+03  0.41861993601E+03 0.  0.
      99925    2    3    3    0    0  0.61085330981E+01 -0.73845019893E+02  0.13394346354E+03  0.30428731364E+03  0.26298197025E+03 0.  0.
         25    1    4    4    0    0  0.30565443016E+02 -0.28174483657E+02  0.97850544058E+02  0.16416541934E+03  0.12509000000E+03 0.  0.
         25    1    4    4    0    0 -0.24456909918E+02 -0.45670536236E+02  0.36092919483E+02  0.14012189429E+03  0.12509000000E+03 0.  0.
         25    1    3    3    0    0 -0.61085330981E+01  0.73845019893E+02  0.68961973639E+02  0.16091508024E+03  0.12509000000E+03 0.  0.
<mgrwt>
<rscale>  2 0.41861994E+03</rscale>
<asrwt>0</asrwt>
<pdfrwt beam="1">  1       21 0.49125576E-01 0.41861994E+03</pdfrwt>
<pdfrwt beam="2">  1       21 0.19286541E-01 0.41861994E+03</pdfrwt>
<totfact> 0.91495294E+04</totfact>
</mgrwt>
</event>
<event>
 7    0  0.4737014E-002  0.4448829E+03  0.7546771E-02  0.1029259E+00
         21   -1    0    0  502  501  0.00000000000E+00  0.00000000000E+00  0.72086512856E+03  0.72086512856E+03  0.00000000000E+00 0. -1.
         21   -1    0    0  501  502 -0.00000000000E+00 -0.00000000000E+00 -0.68640019862E+02  0.68640019862E+02  0.00000000000E+00 0. -1.
      99926    2    1    2    0    0  0.00000000000E+00  0.00000000000E+00  0.65222510869E+03  0.78950514842E+03  0.44488289130E+03 0.  0.
      99925    2    3    3    0    0 -0.10778540264E+02 -0.81079605189E+02  0.52624879396E+03  0.59403745471E+03  0.26315893516E+03 0.  0.
         25    1    4    4    0    0  0.97678689283E+01 -0.23557526556E+02  0.32645946813E+03  0.35053339463E+03  0.12509000000E+03 0.  0.
         25    1    3    3    0    0  0.10778540264E+02  0.81079605189E+02  0.12597631473E+03  0.19546769370E+03  0.12509000000E+03 0.  0.
         25    1    4    4    0    0 -0.20546409193E+02 -0.57522078633E+02  0.19978932583E+03  0.24350406008E+03  0.12509000000E+03 0.  0.
<mgrwt>
<rscale>  2 0.44488289E+03</rscale>
<asrwt>0</asrwt>
<pdfrwt beam="1">  1       21 0.10600957E+00 0.44488289E+03</pdfrwt>
<pdfrwt beam="2">  1       21 0.10094121E-01 0.44488289E+03</pdfrwt>
<totfact> 0.52308134E+04</totfact>
</mgrwt>
</event>
<event>
 7    0  0.4737014E-002  0.4526363E+03  0.7546771E-02  0.1026939E+00
         21   -1    0    0  502  501  0.00000000000E+00  0.00000000000E+00  0.48235370226E+03  0.48235370226E+03  0.00000000000E+00 0.  1.
         21   -1    0    0  501  502 -0.00000000000E+00 -0.00000000000E+00 -0.10618746117E+03  0.10618746117E+03  0.00000000000E+00 0.  1.
      99926    2    1    2    0    0  0.35527136788E-14  0.00000000000E+00  0.37616624109E+03  0.58854116343E+03  0.45263634423E+03 0.  0.
      99925    2    3    3    0    0 -0.85255990037E+01  0.82643529958E+02  0.33276488322E+03  0.43222793671E+03  0.26303209478E+03 0.  0.
         25    1    4    4    0    0 -0.37952968527E+02  0.63680347792E+02  0.16224611197E+03  0.21786905119E+03  0.12509000000E+03 0.  0.
         25    1    4    4    0    0  0.29427369523E+02  0.18963182166E+02  0.17051877125E+03  0.21435888552E+03  0.12509000000E+03 0.  0.
         25    1    3    3    0    0  0.85255990037E+01 -0.82643529958E+02  0.43401357865E+02  0.15631322672E+03  0.12509000000E+03 0.  0.
<mgrwt>
<rscale>  2 0.45263634E+03</rscale>
<asrwt>0</asrwt>
<pdfrwt beam="1">  1       21 0.70934367E-01 0.45263634E+03</pdfrwt>
<pdfrwt beam="2">  1       21 0.15615803E-01 0.45263634E+03</pdfrwt>
<totfact> 0.60511758E+04</totfact>
</mgrwt>
</event>
<event>
 7    0  0.4737014E-002  0.4528603E+03  0.7546771E-02  0.1026873E+00
         21   -1    0    0  502  501  0.00000000000E+00  0.00000000000E+00  0.15582512115E+03  0.15582512115E+03  0.00000000000E+00 0. -1.
         21   -1    0    0  501  502 -0.00000000000E+00 -0.00000000000E+00 -0.32902655644E+03  0.32902655644E+03  0.00000000000E+00 0. -1.
      99926    2    1    2    0    0  0.00000000000E+00  0.00000000000E+00 -0.17320143529E+03  0.48485167759E+03  0.45286025667E+03 0.  0.
      99925    2    3    3    0    0  0.55709596742E+02 -0.16518470795E+02 -0.21077600955E+03  0.34189792361E+03  0.26285213508E+03 0.  0.
         25    1    4    4    0    0 -0.75038028532E+01 -0.60588649170E+01 -0.12575960444E+03  0.17764009432E+03  0.12509000000E+03 0.  0.
         25    1    3    3    0    0 -0.55709596742E+02  0.16518470795E+02  0.37574574261E+02  0.14295375398E+03  0.12509000000E+03 0.  0.
         25    1    4    4    0    0  0.63213399595E+02 -0.10459605878E+02 -0.85016405113E+02  0.16425782929E+03  0.12509000000E+03 0.  0.
<mgrwt>
<rscale>  2 0.45286026E+03</rscale>
<asrwt>0</asrwt>
<pdfrwt beam="1">  1       21 0.22915459E-01 0.45286026E+03</pdfrwt>
<pdfrwt beam="2">  1       21 0.48386258E-01 0.45286026E+03</pdfrwt>
<totfact> 0.67487699E+04</totfact>
</mgrwt>
</event>
<event>
 7    0  0.4737014E-002  0.4509387E+03  0.7546771E-02  0.1027442E+00
         21   -1    0    0  502  501  0.00000000000E+00  0.00000000000E+00  0.17086010063E+03  0.17086010063E+03  0.00000000000E+00 0. -1.
         21   -1    0    0  501  502 -0.00000000000E+00 -0.00000000000E+00 -0.29753240751E+03  0.29753240751E+03  0.00000000000E+00 0. -1.
      99926    2    1    2    0    0  0.00000000000E+00  0.53290705182E-14 -0.12667230688E+03  0.46839250814E+03  0.45093865254E+03 0.  0.
      99925    2    3    3    0    0 -0.70037940925E+02  0.11989999710E+02 -0.16650010287E+03  0.31911814767E+03  0.26280227292E+03 0.  0.
         25    1    4    4    0    0 -0.23145319664E+02 -0.32662299403E+02 -0.83214593456E+02  0.15548217997E+03  0.12509000000E+03 0.  0.
         25    1    4    4    0    0 -0.46892621261E+02  0.44652299113E+02 -0.83285509416E+02  0.16363596770E+03  0.12509000000E+03 0.  0.
         25    1    3    3    0    0  0.70037940925E+02 -0.11989999710E+02  0.39827795991E+02  0.14927436048E+03  0.12509000000E+03 0.  0.
<mgrwt>
<rscale>  2 0.45093865E+03</rscale>
<asrwt>0</asrwt>
<pdfrwt beam="1">  1       21 0.25126486E-01 0.45093865E+03</pdfrwt>
<pdfrwt beam="2">  1       21 0.43754765E-01 0.45093865E+03</pdfrwt>
<totfact> 0.69776759E+04</totfact>
</mgrwt>
</event>
<event>
 6    0  0.4737014E-002  0.4549973E+03  0.7546771E-02  0.1026242E+00
         21   -1    0    0  502  501  0.00000000000E+00  0.00000000000E+00  0.11778745677E+03  0.11778745677E+03  0.00000000000E+00 0. -1.
         21   -1    0    0  501  502 -0.00000000000E+00 -0.00000000000E+00 -0.43939854980E+03  0.43939854980E+03  0.00000000000E+00 0. -1.
      99926    2    1    2    0    0  0.00000000000E+00  0.00000000000E+00 -0.32161109303E+03  0.55718600657E+03  0.45499730852E+03 0.  0.
         25    1    3    3    0    0  0.55481039655E+02  0.34403820402E+02 -0.82671823364E+02  0.16353564473E+03  0.12509000000E+03 0.  0.
         25    1    3    3    0    0  0.51342168438E+02 -0.53740673447E+02 -0.91335469760E+02  0.17179567625E+03  0.12509000000E+03 0.  0.
         25    1    3    3    0    0 -0.10682320809E+03  0.19336853045E+02 -0.14760379990E+03  0.22185468559E+03  0.12509000000E+03 0.  0.
<mgrwt>
<rscale>  2 0.45499731E+03</rscale>
<asrwt>0</asrwt>
<pdfrwt beam="1">  1       21 0.17321684E-01 0.45499731E+03</pdfrwt>
<pdfrwt beam="2">  1       21 0.64617436E-01 0.45499731E+03</pdfrwt>
<totfact> 0.61395445E+04</totfact>
</mgrwt>
</event>
<event>
 7    0  0.4737014E-002  0.4554328E+03  0.7546771E-02  0.1026114E+00
         21   -1    0    0  502  501  0.00000000000E+00  0.00000000000E+00  0.80528595753E+03  0.80528595753E+03  0.00000000000E+00 0.  1.
         21   -1    0    0  501  502 -0.00000000000E+00 -0.00000000000E+00 -0.64392971991E+02  0.64392971991E+02  0.00000000000E+00 0.  1.
      99926    2    1    2    0    0 -0.14210854715E-13  0.55511151231E-16  0.74089298554E+03  0.86967892952E+03  0.45543278805E+03 0.  0.
      99925    2    3    3    0    0  0.11227349317E+03  0.32039157482E+00  0.49965151409E+03  0.57565444829E+03  0.26290866927E+03 0.  0.
         25    1    4    4    0    0  0.95841617063E+02  0.11353557565E+02  0.25050081957E+03  0.29616327850E+03  0.12509000000E+03 0.  0.
         25    1    3    3    0    0 -0.11227349317E+03 -0.32039157482E+00  0.24124147145E+03  0.29402448124E+03  0.12509000000E+03 0.  0.
         25    1    4    4    0    0  0.16431876106E+02 -0.11033165990E+02  0.24915069453E+03  0.27949116978E+03  0.12509000000E+03 0.  0.
<mgrwt>
<rscale>  2 0.45543279E+03</rscale>
<asrwt>0</asrwt>
<pdfrwt beam="1">  1       21 0.11842440E+00 0.45543279E+03</pdfrwt>
<pdfrwt beam="2">  1       21 0.94695552E-02 0.45543279E+03</pdfrwt>
<totfact> 0.44419857E+04</totfact>
</mgrwt>
</event>
<event>
 7    0  0.4737014E-002  0.4390263E+03  0.7546771E-02  0.1031046E+00
         21   -1    0    0  502  501  0.00000000000E+00  0.00000000000E+00  0.92647564911E+03  0.92647564911E+03  0.00000000000E+00 0. -1.
         21   -1    0    0  501  502 -0.00000000000E+00 -0.00000000000E+00 -0.52010018714E+02  0.52010018714E+02  0.00000000000E+00 0. -1.
      99926    2    1    2    0    0  0.00000000000E+00  0.00000000000E+00  0.87446563040E+03  0.97848566783E+03  0.43902626732E+03 0.  0.
      99925    2    3    3    0    0 -0.35492245092E+02  0.28432521235E+02  0.36798971384E+03  0.45481261155E+03  0.26338180347E+03 0.  0.
         25    1    4    4    0    0 -0.54638304561E+01  0.51638673865E+02  0.16644403493E+03  0.21458688437E+03  0.12509000000E+03 0.  0.
         25    1    4    4    0    0 -0.30028414635E+02 -0.23206152630E+02  0.20154567892E+03  0.24022572717E+03  0.12509000000E+03 0.  0.
         25    1    3    3    0    0  0.35492245092E+02 -0.28432521235E+02  0.50647591656E+03  0.52367305628E+03  0.12509000000E+03 0.  0.
<mgrwt>
<rscale>  2 0.43902627E+03</rscale>
<asrwt>0</asrwt>
<pdfrwt beam="1">  1       21 0.13624641E+00 0.43902627E+03</pdfrwt>
<pdfrwt beam="2">  1       21 0.76485327E-02 0.43902627E+03</pdfrwt>
<totfact> 0.45419943E+04</totfact>
</mgrwt>
</event>
<event>
 7    0  0.4737014E-002  0.4571140E+03  0.7546771E-02  0.1025622E+00
         21   -1    0    0  502  501  0.00000000000E+00  0.00000000000E+00  0.13514718252E+04  0.13514718252E+04  0.00000000000E+00 0. -1.
         21   -1    0    0  501  502 -0.00000000000E+00 -0.00000000000E+00 -0.38652889413E+02  0.38652889413E+02  0.00000000000E+00 0. -1.
      99926    2    1    2    0    0  0.00000000000E+00  0.88817841970E-15  0.13128189358E+04  0.13901247146E+04  0.45711395080E+03 0.  0.
      99925    2    3    3    0    0 -0.10741856026E+03 -0.55202569599E+01  0.69970302173E+03  0.75520121332E+03  0.26301204090E+03 0.  0.
         25    1    4    4    0    0 -0.69977652947E+02  0.12936795146E+02  0.45512945045E+03  0.47734113309E+03  0.12509000000E+03 0.  0.
         25    1    3    3    0    0  0.10741856026E+03  0.55202569599E+01  0.61311591405E+03  0.63492350129E+03  0.12509000000E+03 0.  0.
         25    1    4    4    0    0 -0.37440907309E+02 -0.18457052106E+02  0.24457357128E+03  0.27786008022E+03  0.12509000000E+03 0.  0.
<mgrwt>
<rscale>  2 0.45711395E+03</rscale>
<asrwt>0</asrwt>
<pdfrwt beam="1">  1       21 0.19874583E+00 0.45711395E+03</pdfrwt>
<pdfrwt beam="2">  1       21 0.56842493E-02 0.45711395E+03</pdfrwt>
<totfact> 0.26163872E+04</totfact>
</mgrwt>
</event>
<event>
 7    0  0.4737014E-002  0.4371074E+03  0.7546771E-02  0.1031638E+00
         21   -1    0    0  502  501  0.00000000000E+00  0.00000000000E+00  0.18628814655E+04  0.18628814655E+04  0.00000000000E+00 0.  1.
         21   -1    0    0  501  502 -0.00000000000E+00 -0.00000000000E+00 -0.25640770040E+02  0.25640770040E+02  0.00000000000E+00 0.  1.
      99926    2    1    2    0    0  0.00000000000E+00  0.00000000000E+00  0.18372406954E+04  0.18885222355E+04  0.43710737934E+03 0.  0.
      99925    2    3    3    0    0  0.47163540708E+02 -0.82325537182E+02  0.11939729262E+04  0.12263720829E+04  0.26346772751E+03 0.  0.
         25    1    3    3    0    0 -0.47163540708E+02  0.82325537182E+02  0.64326776923E+03  0.66215015266E+03  0.12509000000E+03 0.  0.
         25    1    4    4    0    0  0.38517881594E+02 -0.10811020346E+02  0.67721193978E+03  0.68982898231E+03  0.12509000000E+03 0.  0.
         25    1    4    4    0    0  0.86456591132E+01 -0.71514516836E+02  0.51676098644E+03  0.53654310055E+03  0.12509000000E+03 0.  0.
<mgrwt>
<rscale>  2 0.43710738E+03</rscale>
<asrwt>0</asrwt>
<pdfrwt beam="1">  1       21 0.27395306E+00 0.43710738E+03</pdfrwt>
<pdfrwt beam="2">  1       21 0.37707027E-02 0.43710738E+03</pdfrwt>
<totfact> 0.17987589E+04</totfact>
</mgrwt>
</event>
<event>
 7    0  0.4737014E-002  0.4530606E+03  0.7546771E-02  0.1026813E+00
         21   -1    0    0  502  501  0.00000000000E+00  0.00000000000E+00  0.85297075663E+02  0.85297075663E+02  0.00000000000E+00 0.  1.
         21   -1    0    0  501  502 -0.00000000000E+00 -0.00000000000E+00 -0.60161481430E+03  0.60161481430E+03  0.00000000000E+00 0.  1.
      99926    2    1    2    0    0  0.53290705182E-14  0.00000000000E+00 -0.51631773864E+03  0.68691188997E+03  0.45306063319E+03 0.  0.
      99925    2    3    3    0    0  0.12051467241E+02 -0.41618087027E+02 -0.17001760853E+03  0.31617129164E+03  0.26302280399E+03 0.  0.
         25    1    4    4    0    0  0.44757255400E+02 -0.28413857256E+02 -0.75116694863E+02  0.15524363157E+03  0.12509000000E+03 0.  0.
         25    1    3    3    0    0 -0.12051467241E+02  0.41618087027E+02 -0.34630013011E+03  0.37074059832E+03  0.12509000000E+03 0.  0.
         25    1    4    4    0    0 -0.32705788159E+02 -0.13204229771E+02 -0.94900913667E+02  0.16092766008E+03  0.12509000000E+03 0.  0.
<mgrwt>
<rscale>  2 0.45306063E+03</rscale>
<asrwt>0</asrwt>
<pdfrwt beam="1">  1       21 0.12543688E-01 0.45306063E+03</pdfrwt>
<pdfrwt beam="2">  1       21 0.88472763E-01 0.45306063E+03</pdfrwt>
<totfact> 0.54446034E+04</totfact>
</mgrwt>
</event>
<event>
 7    0  0.4737014E-002  0.4900486E+03  0.7546771E-02  0.1016409E+00
         21   -1    0    0  502  501  0.00000000000E+00  0.00000000000E+00  0.10890213190E+04  0.10890213190E+04  0.00000000000E+00 0. -1.
         21   -1    0    0  501  502 -0.00000000000E+00 -0.00000000000E+00 -0.55129238314E+02  0.55129238314E+02  0.00000000000E+00 0. -1.
      99926    2    1    2    0    0  0.00000000000E+00  0.00000000000E+00  0.10338920807E+04  0.11441505573E+04  0.49004863361E+03 0.  0.
      99925    2    3    3    0    0 -0.43314905444E+02 -0.22299941721E+02  0.94752118760E+03  0.98452315457E+03  0.26289916794E+03 0.  0.
         25    1    4    4    0    0 -0.21271570621E+02  0.29123634207E+02  0.44472997649E+03  0.46339284185E+03  0.12509000000E+03 0.  0.
         25    1    3    3    0    0  0.43314905444E+02  0.22299941721E+02  0.86370893089E+02  0.15962740275E+03  0.12509000000E+03 0.  0.
         25    1    4    4    0    0 -0.22043334823E+02 -0.51423575928E+02  0.50279121111E+03  0.52113031272E+03  0.12509000000E+03 0.  0.
<mgrwt>
<rscale>  2 0.49004863E+03</rscale>
<asrwt>0</asrwt>
<pdfrwt beam="1">  1       21 0.16015018E+00 0.49004863E+03</pdfrwt>
<pdfrwt beam="2">  1       21 0.81072416E-02 0.49004863E+03</pdfrwt>
<totfact> 0.26088641E+04</totfact>
</mgrwt>
</event>
<event>
 7    0  0.4737014E-002  0.4396070E+03  0.7546771E-02  0.1030867E+00
         21   -1    0    0  502  501  0.00000000000E+00  0.00000000000E+00  0.46935985606E+02  0.46935985606E+02  0.00000000000E+00 0.  1.
         21   -1    0    0  501  502 -0.00000000000E+00 -0.00000000000E+00 -0.10293506183E+04  0.10293506183E+04  0.00000000000E+00 0.  1.
      99926    2    1    2    0    0  0.14210854715E-13 -0.17763568394E-14 -0.98241463267E+03  0.10762866039E+04  0.43960703272E+03 0.  0.
      99925    2    3    3    0    0  0.90423375119E+02  0.48349675759E+01 -0.53546968231E+03  0.60341552163E+03  0.26302613442E+03 0.  0.
         25    1    4    4    0    0  0.46877472797E+02 -0.20957887014E+02 -0.33990630278E+03  0.36581488933E+03  0.12509000000E+03 0.  0.
         25    1    3    3    0    0 -0.90423375119E+02 -0.48349675759E+01 -0.44694495037E+03  0.47287108226E+03  0.12509000000E+03 0.  0.
         25    1    4    4    0    0  0.43545902322E+02  0.25792854590E+02 -0.19556337953E+03  0.23760063230E+03  0.12509000000E+03 0.  0.
<mgrwt>
<rscale>  2 0.43960703E+03</rscale>
<asrwt>0</asrwt>
<pdfrwt beam="1">  1       21 0.69023519E-02 0.43960703E+03</pdfrwt>
<pdfrwt beam="2">  1       21 0.15137507E+00 0.43960703E+03</pdfrwt>
<totfact> 0.41039522E+04</totfact>
</mgrwt>
</event>
<event>
 7    0  0.4737014E-002  0.4496792E+03  0.7546771E-02  0.1027818E+00
         21   -1    0    0  502  501  0.00000000000E+00  0.00000000000E+00  0.77250075073E+02  0.77250075073E+02  0.00000000000E+00 0. -1.
         21   -1    0    0  501  502 -0.00000000000E+00 -0.00000000000E+00 -0.65440513625E+03  0.65440513625E+03  0.00000000000E+00 0. -1.
      99926    2    1    2    0    0  0.00000000000E+00  0.71054273576E-14 -0.57715506118E+03  0.73165521133E+03  0.44967920078E+03 0.  0.
      99925    2    3    3    0    0 -0.87662292046E+02 -0.32850203996E+02 -0.45290981126E+03  0.53203506310E+03  0.26300227734E+03 0.  0.
         25    1    4    4    0    0 -0.12045773613E+01 -0.15201985245E+02 -0.19861220999E+03  0.23521664359E+03  0.12509000000E+03 0.  0.
         25    1    3    3    0    0  0.87662292046E+02  0.32850203996E+02 -0.12424524992E+03  0.19962014823E+03  0.12509000000E+03 0.  0.
         25    1    4    4    0    0 -0.86457714684E+02 -0.17648218751E+02 -0.25429760127E+03  0.29681841951E+03  0.12509000000E+03 0.  0.
<mgrwt>
<rscale>  2 0.44967920E+03</rscale>
<asrwt>0</asrwt>
<pdfrwt beam="1">  1       21 0.11360305E-01 0.44967920E+03</pdfrwt>
<pdfrwt beam="2">  1       21 0.96236047E-01 0.44967920E+03</pdfrwt>
<totfact> 0.53417852E+04</totfact>
</mgrwt>
</event>
<event>
 7    0  0.4737014E-002  0.4554387E+03  0.7546771E-02  0.1026112E+00
         21   -1    0    0  502  501  0.00000000000E+00  0.00000000000E+00  0.44377017452E+03  0.44377017452E+03  0.00000000000E+00 0.  1.
         21   -1    0    0  501  502 -0.00000000000E+00 -0.00000000000E+00 -0.11685352834E+03  0.11685352834E+03  0.00000000000E+00 0.  1.
      99926    2    1    2    0    0  0.00000000000E+00  0.00000000000E+00  0.32691664618E+03  0.56062370286E+03  0.45543873645E+03 0.  0.
      99925    2    3    3    0    0  0.20130141487E+02 -0.99016815039E+02  0.26952386404E+03  0.38988708758E+03  0.26298151173E+03 0.  0.
         25    1    4    4    0    0  0.21368657757E+01 -0.84179560102E+01  0.13532695577E+03  0.18448935264E+03  0.12509000000E+03 0.  0.
         25    1    3    3    0    0 -0.20130141487E+02  0.99016815039E+02  0.57392782140E+02  0.17073661528E+03  0.12509000000E+03 0.  0.
         25    1    4    4    0    0  0.17993275711E+02 -0.90598859029E+02  0.13419690827E+03  0.20539773494E+03  0.12509000000E+03 0.  0.
<mgrwt>
<rscale>  2 0.45543874E+03</rscale>
<asrwt>0</asrwt>
<pdfrwt beam="1">  1       21 0.65260319E-01 0.45543874E+03</pdfrwt>
<pdfrwt beam="2">  1       21 0.17184343E-01 0.45543874E+03</pdfrwt>
<totfact> 0.60958082E+04</totfact>
</mgrwt>
</event>
<event>
 7    0  0.4737014E-002  0.4529403E+03  0.7546771E-02  0.1026849E+00
         21   -1    0    0  502  501  0.00000000000E+00  0.00000000000E+00  0.64152831486E+03  0.64152831486E+03  0.00000000000E+00 0.  1.
         21   -1    0    0  501  502 -0.00000000000E+00 -0.00000000000E+00 -0.79947721778E+02  0.79947721778E+02  0.00000000000E+00 0.  1.
      99926    2    1    2    0    0  0.00000000000E+00  0.00000000000E+00  0.56158059308E+03  0.72147603663E+03  0.45294029288E+03 0.  0.
      99925    2    3    3    0    0 -0.60578503825E+02 -0.93588954703E+02  0.33849878898E+03  0.44247487716E+03  0.26224785835E+03 0.  0.
         25    1    4    4    0    0 -0.30570003575E+01 -0.75346282456E+02  0.17573446103E+03  0.22850933553E+03  0.12509000000E+03 0.  0.
         25    1    4    4    0    0 -0.57521503467E+02 -0.18242672247E+02  0.16276432796E+03  0.21396554163E+03  0.12509000000E+03 0.  0.
         25    1    3    3    0    0  0.60578503825E+02  0.93588954703E+02  0.22308180409E+03  0.27900115947E+03  0.12509000000E+03 0.  0.
<mgrwt>
<rscale>  2 0.45294029E+03</rscale>
<asrwt>0</asrwt>
<pdfrwt beam="1">  1       21 0.94342397E-01 0.45294029E+03</pdfrwt>
<pdfrwt beam="2">  1       21 0.11757018E-01 0.45294029E+03</pdfrwt>
<totfact> 0.52599403E+04</totfact>
</mgrwt>
</event>
<event>
 7    0  0.4737014E-002  0.4537751E+03  0.7546771E-02  0.1026602E+00
         21   -1    0    0  502  501  0.00000000000E+00  0.00000000000E+00  0.60037563765E+03  0.60037563765E+03  0.00000000000E+00 0. -1.
         21   -1    0    0  501  502 -0.00000000000E+00 -0.00000000000E+00 -0.85742933461E+02  0.85742933461E+02  0.00000000000E+00 0. -1.
      99926    2    1    2    0    0 -0.14210854715E-13  0.35527136788E-14  0.51463270419E+03  0.68611857111E+03  0.45377513529E+03 0.  0.
      99925    2    3    3    0    0 -0.10759709534E+03  0.30268728175E+02  0.30886693848E+03  0.42063714188E+03  0.26276127684E+03 0.  0.
         25    1    3    3    0    0  0.10759709534E+03 -0.30268728175E+02  0.20576576571E+03  0.26548142924E+03  0.12509000000E+03 0.  0.
         25    1    4    4    0    0 -0.23221912283E+02 -0.14684414837E+02  0.13530794353E+03  0.18630790893E+03  0.12509000000E+03 0.  0.
         25    1    4    4    0    0 -0.84375183059E+02  0.44953143012E+02  0.17355899495E+03  0.23432923294E+03  0.12509000000E+03 0.  0.
<mgrwt>
<rscale>  2 0.45377514E+03</rscale>
<asrwt>0</asrwt>
<pdfrwt beam="1">  1       21 0.88290532E-01 0.45377514E+03</pdfrwt>
<pdfrwt beam="2">  1       21 0.12609255E-01 0.45377514E+03</pdfrwt>
<totfact> 0.54183940E+04</totfact>
</mgrwt>
</event>
<event>
 7    0  0.4737014E-002  0.4530278E+03  0.7546771E-02  0.1026823E+00
         21   -1    0    0  502  501  0.00000000000E+00  0.00000000000E+00  0.14702816277E+03  0.14702816277E+03  0.00000000000E+00 0. -1.
         21   -1    0    0  501  502 -0.00000000000E+00 -0.00000000000E+00 -0.34897082339E+03  0.34897082339E+03  0.00000000000E+00 0. -1.
      99926    2    1    2    0    0  0.00000000000E+00  0.00000000000E+00 -0.20194266062E+03  0.49599898616E+03  0.45302776526E+03 0.  0.
      99925    2    3    3    0    0  0.10189730322E+02 -0.54826805044E+02 -0.23274919630E+03  0.35561964332E+03  0.26302724799E+03 0.  0.
         25    1    4    4    0    0 -0.10390328017E+02 -0.94555854752E+01 -0.68748476119E+02  0.14342673419E+03  0.12509000000E+03 0.  0.
         25    1    4    4    0    0  0.20580058339E+02 -0.45371219569E+02 -0.16400072018E+03  0.21219290913E+03  0.12509000000E+03 0.  0.
         25    1    3    3    0    0 -0.10189730322E+02  0.54826805044E+02  0.30806535674E+02  0.14037934284E+03  0.12509000000E+03 0.  0.
<mgrwt>
<rscale>  2 0.45302777E+03</rscale>
<asrwt>0</asrwt>
<pdfrwt beam="1">  1       21 0.21621789E-01 0.45302777E+03</pdfrwt>
<pdfrwt beam="2">  1       21 0.51319238E-01 0.45302777E+03</pdfrwt>
<totfact> 0.66589114E+04</totfact>
</mgrwt>
</event>
<event>
 7    0  0.4737014E-002  0.4495864E+03  0.7546771E-02  0.1027845E+00
         21   -1    0    0  502  501  0.00000000000E+00  0.00000000000E+00  0.39418157525E+03  0.39418157525E+03  0.00000000000E+00 0. -1.
         21   -1    0    0  501  502 -0.00000000000E+00 -0.00000000000E+00 -0.12819469347E+03  0.12819469347E+03  0.00000000000E+00 0. -1.
      99926    2    1    2    0    0  0.00000000000E+00  0.00000000000E+00  0.26598688178E+03  0.52237626872E+03  0.44958641532E+03 0.  0.
      99925    2    3    3    0    0 -0.50829077858E+02  0.63771539102E+02  0.86646576321E+02  0.28900776695E+03  0.26337702218E+03 0.  0.
         25    1    3    3    0    0  0.50829077858E+02 -0.63771539102E+02  0.17934030546E+03  0.23336850177E+03  0.12509000000E+03 0.  0.
         25    1    4    4    0    0 -0.12064584092E+02 -0.85438189853E+01  0.34794476869E+02  0.13067790461E+03  0.12509000000E+03 0.  0.
         25    1    4    4    0    0 -0.38764493765E+02  0.72315358087E+02  0.51852099453E+02  0.15832986234E+03  0.12509000000E+03 0.  0.
<mgrwt>
<rscale>  2 0.44958642E+03</rscale>
<asrwt>0</asrwt>
<pdfrwt beam="1">  1       21 0.57967878E-01 0.44958642E+03</pdfrwt>
<pdfrwt beam="2">  1       21 0.18852161E-01 0.44958642E+03</pdfrwt>
<totfact> 0.66535334E+04</totfact>
</mgrwt>
</event>
<event>
 7    0  0.4737014E-002  0.4519571E+03  0.7546771E-02  0.1027140E+00
         21   -1    0    0  502  501  0.00000000000E+00  0.00000000000E+00  0.19255047285E+03  0.19255047285E+03  0.00000000000E+00 0. -1.
         21   -1    0    0  501  502 -0.00000000000E+00 -0.00000000000E+00 -0.26520997969E+03  0.26520997969E+03  0.00000000000E+00 0. -1.
      99926    2    1    2    0    0  0.14210854715E-13  0.35527136788E-14 -0.72659506848E+02  0.45776045254E+03  0.45195710855E+03 0.  0.
      99925    2    3    3    0    0  0.82311537084E+02 -0.22622390821E+02 -0.11664110202E+03  0.30006184596E+03  0.26295437440E+03 0.  0.
         25    1    4    4    0    0  0.78846467291E+02 -0.31100619789E+01 -0.80346999371E+02  0.16831395158E+03  0.12509000000E+03 0.  0.
         25    1    3    3    0    0 -0.82311537084E+02  0.22622390821E+02  0.43981595169E+02  0.15769860658E+03  0.12509000000E+03 0.  0.
         25    1    4    4    0    0  0.34650697930E+01 -0.19512328842E+02 -0.36294102646E+02  0.13174789438E+03  0.12509000000E+03 0.  0.
<mgrwt>
<rscale>  2 0.45195711E+03</rscale>
<asrwt>0</asrwt>
<pdfrwt beam="1">  1       21 0.28316246E-01 0.45195711E+03</pdfrwt>
<pdfrwt beam="2">  1       21 0.39001467E-01 0.45195711E+03</pdfrwt>
<totfact> 0.70027955E+04</totfact>
</mgrwt>
</event>
<event>
 7    0  0.4737014E-002  0.4477801E+03  0.7546771E-02  0.1028386E+00
         21   -1    0    0  502  501  0.00000000000E+00  0.00000000000E+00  0.10303590902E+04  0.10303590902E+04  0.00000000000E+00 0. -1.
         21   -1    0    0  501  502 -0.00000000000E+00 -0.00000000000E+00 -0.48649798871E+02  0.48649798871E+02  0.00000000000E+00 0. -1.
      99926    2    1    2    0    0  0.00000000000E+00  0.00000000000E+00  0.98170929136E+03  0.10790088891E+04  0.44778013580E+03 0.  0.
      99925    2    3    3    0    0 -0.72630030566E+02 -0.73985414809E+02  0.56556839848E+03  0.63227662726E+03  0.26297748397E+03 0.  0.
         25    1    4    4    0    0 -0.27451011532E+02 -0.73208758624E+02  0.33615738756E+03  0.36709995599E+03  0.12509000000E+03 0.  0.
         25    1    4    4    0    0 -0.45179019034E+02 -0.77665618445E+00  0.22941101092E+03  0.26517667127E+03  0.12509000000E+03 0.  0.
         25    1    3    3    0    0  0.72630030566E+02  0.73985414809E+02  0.41614089288E+03  0.44673226184E+03  0.12509000000E+03 0.  0.
<mgrwt>
<rscale>  2 0.44778014E+03</rscale>
<asrwt>0</asrwt>
<pdfrwt beam="1">  1       21 0.15152338E+00 0.44778014E+03</pdfrwt>
<pdfrwt beam="2">  1       21 0.71543828E-02 0.44778014E+03</pdfrwt>
<totfact> 0.38345727E+04</totfact>
</mgrwt>
</event>
<event>
 7    0  0.4737014E-002  0.4504925E+03  0.7546771E-02  0.1027575E+00
         21   -1    0    0  502  501  0.00000000000E+00  0.00000000000E+00  0.33084780255E+03  0.33084780255E+03  0.00000000000E+00 0.  1.
         21   -1    0    0  501  502 -0.00000000000E+00 -0.00000000000E+00 -0.15335107105E+03  0.15335107105E+03  0.00000000000E+00 0.  1.
      99926    2    1    2    0    0  0.00000000000E+00  0.00000000000E+00  0.17749673150E+03  0.48419887360E+03  0.45049246331E+03 0.  0.
      99925    2    3    3    0    0 -0.68407189257E+02 -0.52604155030E+02  0.42964279311E+02  0.28123772101E+03  0.26420065434E+03 0.  0.
         25    1    3    3    0    0  0.68407189257E+02  0.52604155030E+02  0.13453245219E+03  0.20296115259E+03  0.12509000000E+03 0.  0.
         25    1    4    4    0    0 -0.78359993482E+01 -0.46060023605E+02 -0.61872285254E+01  0.13367392624E+03  0.12509000000E+03 0.  0.
         25    1    4    4    0    0 -0.60571189908E+02 -0.65441314259E+01  0.49151507837E+02  0.14756379477E+03  0.12509000000E+03 0.  0.
<mgrwt>
<rscale>  2 0.45049246E+03</rscale>
<asrwt>0</asrwt>
<pdfrwt beam="1">  1       21 0.48654089E-01 0.45049246E+03</pdfrwt>
<pdfrwt beam="2">  1       21 0.22551628E-01 0.45049246E+03</pdfrwt>
<totfact> 0.68825734E+04</totfact>
</mgrwt>
</event>
<event>
 7    0  0.4737014E-002  0.4588781E+03  0.7546771E-02  0.1025107E+00
         21   -1    0    0  502  501  0.00000000000E+00  0.00000000000E+00  0.23161642536E+03  0.23161642536E+03  0.00000000000E+00 0. -1.
         21   -1    0    0  501  502 -0.00000000000E+00 -0.00000000000E+00 -0.22728212497E+03  0.22728212497E+03  0.00000000000E+00 0. -1.
      99926    2    1    2    0    0  0.66613381478E-15  0.00000000000E+00  0.43343003917E+01  0.45889855034E+03  0.45887808113E+03 0.  0.
      99925    2    3    3    0    0  0.15949021295E+01  0.48578919891E+02  0.10892056330E+03  0.28875669875E+03  0.26297202664E+03 0.  0.
         25    1    3    3    0    0 -0.15949021295E+01 -0.48578919891E+02 -0.10458626291E+03  0.17014185158E+03  0.12509000000E+03 0.  0.
         25    1    4    4    0    0 -0.21887011073E+02  0.19240020676E+02  0.18185922511E+02  0.12972068273E+03  0.12509000000E+03 0.  0.
         25    1    4    4    0    0  0.23481913202E+02  0.29338899216E+02  0.90734640791E+02  0.15903601603E+03  0.12509000000E+03 0.  0.
<mgrwt>
<rscale>  2 0.45887808E+03</rscale>
<asrwt>0</asrwt>
<pdfrwt beam="1">  1       21 0.34061239E-01 0.45887808E+03</pdfrwt>
<pdfrwt beam="2">  1       21 0.33423842E-01 0.45887808E+03</pdfrwt>
<totfact> 0.66189197E+04</totfact>
</mgrwt>
</event>
<event>
 7    0  0.4737014E-002  0.4643813E+03  0.7546771E-02  0.1023518E+00
         21   -1    0    0  502  501  0.00000000000E+00  0.00000000000E+00  0.19333824616E+03  0.19333824616E+03  0.00000000000E+00 0. -1.
         21   -1    0    0  501  502 -0.00000000000E+00 -0.00000000000E+00 -0.27885064794E+03  0.27885064794E+03  0.00000000000E+00 0. -1.
      99926    2    1    2    0    0 -0.35527136788E-14  0.00000000000E+00 -0.85512401771E+02  0.47218889410E+03  0.46438128823E+03 0.  0.
      99925    2    3    3    0    0  0.22575262377E+02  0.10381708078E+03  0.67840785668E+01  0.28389716004E+03  0.26318044194E+03 0.  0.
         25    1    3    3    0    0 -0.22575262377E+02 -0.10381708078E+03 -0.92296480338E+02  0.18829173406E+03  0.12509000000E+03 0.  0.
         25    1    4    4    0    0  0.38554020648E+02  0.52668826228E+02  0.33962217472E+02  0.14512531854E+03  0.12509000000E+03 0.  0.
         25    1    4    4    0    0 -0.15978758271E+02  0.51148254553E+02 -0.27178138905E+02  0.13877184150E+03  0.12509000000E+03 0.  0.
<mgrwt>
<rscale>  2 0.46438129E+03</rscale>
<asrwt>0</asrwt>
<pdfrwt beam="1">  1       21 0.28432095E-01 0.46438129E+03</pdfrwt>
<pdfrwt beam="2">  1       21 0.41007448E-01 0.46438129E+03</pdfrwt>
<totfact> 0.62488164E+04</totfact>
</mgrwt>
</event>
<event>
 7    0  0.4737014E-002  0.4553572E+03  0.7546771E-02  0.1026136E+00
         21   -1    0    0  502  501  0.00000000000E+00  0.00000000000E+00  0.23369471158E+02  0.23369471158E+02  0.00000000000E+00 0.  1.
         21   -1    0    0  501  502 -0.00000000000E+00 -0.00000000000E+00 -0.22181736136E+04  0.22181736136E+04  0.00000000000E+00 0.  1.
      99926    2    1    2    0    0  0.00000000000E+00  0.00000000000E+00 -0.21948041424E+04  0.22415430848E+04  0.45535719731E+03 0.  0.
      99925    2    3    3    0    0 -0.55999173856E+02 -0.30186135409E+02 -0.91771043438E+03  0.95676179695E+03  0.26297069129E+03 0.  0.
         25    1    4    4    0    0 -0.38180409316E+01 -0.47620482284E+02 -0.45431897684E+03  0.47364071678E+03  0.12509000000E+03 0.  0.
         25    1    4    4    0    0 -0.52181132924E+02  0.17434346874E+02 -0.46339145754E+03  0.48312108017E+03  0.12509000000E+03 0.  0.
         25    1    3    3    0    0  0.55999173856E+02  0.30186135409E+02 -0.12770937081E+04  0.12847812878E+04  0.12509000000E+03 0.  0.
<mgrwt>
<rscale>  2 0.45535720E+03</rscale>
<asrwt>0</asrwt>
<pdfrwt beam="1">  1       21 0.34366852E-02 0.45535720E+03</pdfrwt>
<pdfrwt beam="2">  1       21 0.32620217E+00 0.45535720E+03</pdfrwt>
<totfact> 0.10123679E+04</totfact>
</mgrwt>
</event>
<event>
 7    0  0.4737014E-002  0.4584959E+03  0.7546771E-02  0.1025218E+00
         21   -1    0    0  502  501  0.00000000000E+00  0.00000000000E+00  0.70574422954E+02  0.70574422954E+02  0.00000000000E+00 0. -1.
         21   -1    0    0  501  502 -0.00000000000E+00 -0.00000000000E+00 -0.74466949936E+03  0.74466949936E+03  0.00000000000E+00 0. -1.
      99926    2    1    2    0    0 -0.71054273576E-14  0.00000000000E+00 -0.67409507641E+03  0.81524392231E+03  0.45849588966E+03 0.  0.
      99925    2    3    3    0    0 -0.28468246546E+02  0.10337773349E+03 -0.34213162918E+03  0.44464355097E+03  0.26297611849E+03 0.  0.
         25    1    4    4    0    0 -0.32730985931E+02  0.86254414724E+02 -0.21616132331E+03  0.26624118256E+03  0.12509000000E+03 0.  0.
         25    1    4    4    0    0  0.42627393844E+01  0.17123318762E+02 -0.12597030587E+03  0.17840236841E+03  0.12509000000E+03 0.  0.
         25    1    3    3    0    0  0.28468246546E+02 -0.10337773349E+03 -0.33196344723E+03  0.37060037134E+03  0.12509000000E+03 0.  0.
<mgrwt>
<rscale>  2 0.45849589E+03</rscale>
<asrwt>0</asrwt>
<pdfrwt beam="1">  1       21 0.10378591E-01 0.45849589E+03</pdfrwt>
<pdfrwt beam="2">  1       21 0.10951022E+00 0.45849589E+03</pdfrwt>
<totfact> 0.45767825E+04</totfact>
</mgrwt>
</event>
<event>
 7    0  0.4737014E-002  0.4538556E+03  0.7546771E-02  0.1026578E+00
         21   -1    0    0  502  501  0.00000000000E+00  0.00000000000E+00  0.19220149853E+03  0.19220149853E+03  0.00000000000E+00 0. -1.
         21   -1    0    0  501  502 -0.00000000000E+00 -0.00000000000E+00 -0.26792837565E+03  0.26792837565E+03  0.00000000000E+00 0. -1.
      99926    2    1    2    0    0 -0.17763568394E-14  0.14210854715E-13 -0.75726877113E+02  0.46012987418E+03  0.45385563916E+03 0.  0.
      99925    2    3    3    0    0  0.10014961612E+02 -0.11095354817E+03 -0.36470804262E+02  0.28808471539E+03  0.26315716667E+03 0.  0.
         25    1    3    3    0    0 -0.10014961612E+02  0.11095354817E+03 -0.39256072851E+02  0.17204515879E+03  0.12509000000E+03 0.  0.
         25    1    4    4    0    0  0.67095706596E+01 -0.62501488494E+02  0.21996350722E+02  0.14171380295E+03  0.12509000000E+03 0.  0.
         25    1    4    4    0    0  0.33053909522E+01 -0.48452059672E+02 -0.58467154984E+02  0.14637091244E+03  0.12509000000E+03 0.  0.
<mgrwt>
<rscale>  2 0.45385564E+03</rscale>
<asrwt>0</asrwt>
<pdfrwt beam="1">  1       21 0.28264926E-01 0.45385564E+03</pdfrwt>
<pdfrwt beam="2">  1       21 0.39401232E-01 0.45385564E+03</pdfrwt>
<totfact> 0.68796695E+04</totfact>
</mgrwt>
</event>
<event>
 7    0  0.4737014E-002  0.4615867E+03  0.7546771E-02  0.1024322E+00
         21   -1    0    0  502  501  0.00000000000E+00  0.00000000000E+00  0.54617684705E+03  0.54617684705E+03  0.00000000000E+00 0.  1.
         21   -1    0    0  501  502 -0.00000000000E+00 -0.00000000000E+00 -0.97524386268E+02  0.97524386268E+02  0.00000000000E+00 0.  1.
      99926    2    1    2    0    0 -0.35527136788E-14  0.00000000000E+00  0.44865246078E+03  0.64370123332E+03  0.46158666273E+03 0.  0.
      99925    2    3    3    0    0 -0.20910160728E+02 -0.39323587472E+02  0.43489128329E+03  0.51020794712E+03  0.26305539658E+03 0.  0.
         25    1    3    3    0    0  0.20910160728E+02  0.39323587472E+02  0.13761177488E+02  0.13349328620E+03  0.12509000000E+03 0.  0.
         25    1    4    4    0    0 -0.39738894205E+02 -0.46908808099E+02  0.24606680489E+03  0.28280027680E+03  0.12509000000E+03 0.  0.
         25    1    4    4    0    0  0.18828733477E+02  0.75852206272E+01  0.18882447840E+03  0.22740767032E+03  0.12509000000E+03 0.  0.
<mgrwt>
<rscale>  2 0.46158666E+03</rscale>
<asrwt>0</asrwt>
<pdfrwt beam="1">  1       21 0.80320123E-01 0.46158666E+03</pdfrwt>
<pdfrwt beam="2">  1       21 0.14341822E-01 0.46158666E+03</pdfrwt>
<totfact> 0.53244008E+04</totfact>
</mgrwt>
</event>
<event>
 7    0  0.4737014E-002  0.4561120E+03  0.7546771E-02  0.1025915E+00
         21   -1    0    0  502  501  0.00000000000E+00  0.00000000000E+00  0.10756520855E+03  0.10756520855E+03  0.00000000000E+00 0.  1.
         21   -1    0    0  501  502 -0.00000000000E+00 -0.00000000000E+00 -0.48351646962E+03  0.48351646962E+03  0.00000000000E+00 0.  1.
      99926    2    1    2    0    0  0.00000000000E+00  0.00000000000E+00 -0.37595126107E+03  0.59108167818E+03  0.45611204717E+03 0.  0.
      99925    2    3    3    0    0  0.89023899982E+02 -0.68126314799E+02 -0.20790643661E+03  0.35348323402E+03  0.26298072328E+03 0.  0.
         25    1    4    4    0    0  0.71117508792E+01 -0.27067773876E+02 -0.11811128396E+03  0.17430153436E+03  0.12509000000E+03 0.  0.
         25    1    4    4    0    0  0.81912149103E+02 -0.41058540922E+02 -0.89795152649E+02  0.17918169966E+03  0.12509000000E+03 0.  0.
         25    1    3    3    0    0 -0.89023899982E+02  0.68126314799E+02 -0.16804482446E+03  0.23759844415E+03  0.12509000000E+03 0.  0.
<mgrwt>
<rscale>  2 0.45611205E+03</rscale>
<asrwt>0</asrwt>
<pdfrwt beam="1">  1       21 0.15818413E-01 0.45611205E+03</pdfrwt>
<pdfrwt beam="2">  1       21 0.71105363E-01 0.45611205E+03</pdfrwt>
<totfact> 0.58712874E+04</totfact>
</mgrwt>
</event>
<event>
 7    0  0.4737014E-002  0.4396473E+03  0.7546771E-02  0.1030855E+00
         21   -1    0    0  502  501  0.00000000000E+00  0.00000000000E+00  0.12405439725E+04  0.12405439725E+04  0.00000000000E+00 0.  1.
         21   -1    0    0  501  502 -0.00000000000E+00 -0.00000000000E+00 -0.38952620191E+02  0.38952620191E+02  0.00000000000E+00 0.  1.
      99926    2    1    2    0    0  0.71054273576E-14 -0.71054273576E-14  0.12015913523E+04  0.12794965926E+04  0.43964730496E+03 0.  0.
      99925    2    3    3    0    0 -0.62781766138E+02  0.38943098355E+02  0.95483891566E+03  0.99315346258E+03  0.26301773761E+03 0.  0.
         25    1    4    4    0    0 -0.60269856698E+02  0.46561742710E+02  0.56414248599E+03  0.58284192034E+03  0.12509000000E+03 0.  0.
         25    1    4    4    0    0 -0.25119094394E+01 -0.76186443556E+01  0.39069642968E+03  0.41031154224E+03  0.12509000000E+03 0.  0.
         25    1    3    3    0    0  0.62781766138E+02 -0.38943098355E+02  0.24675243660E+03  0.28634313007E+03  0.12509000000E+03 0.  0.
<mgrwt>
<rscale>  2 0.43964730E+03</rscale>
<asrwt>0</asrwt>
<pdfrwt beam="1">  1       21 0.18243291E+00 0.43964730E+03</pdfrwt>
<pdfrwt beam="2">  1       21 0.57283273E-02 0.43964730E+03</pdfrwt>
<totfact> 0.33546901E+04</totfact>
</mgrwt>
</event>
<event>
 7    0  0.4737014E-002  0.4547521E+03  0.7546771E-02  0.1026314E+00
         21   -1    0    0  502  501  0.00000000000E+00  0.00000000000E+00  0.98871340021E+02  0.98871340021E+02  0.00000000000E+00 0. -1.
         21   -1    0    0  501  502 -0.00000000000E+00 -0.00000000000E+00 -0.52290039796E+03  0.52290039796E+03  0.00000000000E+00 0. -1.
      99926    2    1    2    0    0  0.35527136788E-14  0.00000000000E+00 -0.42402905794E+03  0.62177173799E+03  0.45475207770E+03 0.  0.
      99925    2    3    3    0    0 -0.18837333707E+02  0.25919319178E+02 -0.41483491615E+03  0.49231635343E+03  0.26317432995E+03 0.  0.
         25    1    4    4    0    0  0.10131350336E+02 -0.28889306246E+01 -0.26278930357E+03  0.29123309625E+03  0.12509000000E+03 0.  0.
         25    1    4    4    0    0 -0.28968684043E+02  0.28808249803E+02 -0.15204561258E+03  0.20108325718E+03  0.12509000000E+03 0.  0.
         25    1    3    3    0    0  0.18837333707E+02 -0.25919319178E+02 -0.91941417916E+01  0.12945538456E+03  0.12509000000E+03 0.  0.
<mgrwt>
<rscale>  2 0.45475208E+03</rscale>
<asrwt>0</asrwt>
<pdfrwt beam="1">  1       21 0.14539903E-01 0.45475208E+03</pdfrwt>
<pdfrwt beam="2">  1       21 0.76897118E-01 0.45475208E+03</pdfrwt>
<totfact> 0.57470203E+04</totfact>
</mgrwt>
</event>
<event>
 7    0  0.4737014E-002  0.4599142E+03  0.7546771E-02  0.1024806E+00
         21   -1    0    0  502  501  0.00000000000E+00  0.00000000000E+00  0.37272201196E+03  0.37272201196E+03  0.00000000000E+00 0.  1.
         21   -1    0    0  501  502 -0.00000000000E+00 -0.00000000000E+00 -0.14187588838E+03  0.14187588838E+03  0.00000000000E+00 0.  1.
      99926    2    1    2    0    0  0.00000000000E+00  0.00000000000E+00  0.23084612358E+03  0.51459790035E+03  0.45991419446E+03 0.  0.
      99925    2    3    3    0    0 -0.59941022901E+02  0.41287205244E+02  0.41289571750E+02  0.27610942267E+03  0.26312359264E+03 0.  0.
         25    1    3    3    0    0  0.59941022901E+02 -0.41287205244E+02  0.18955655183E+03  0.23848847768E+03  0.12509000000E+03 0.  0.
         25    1    4    4    0    0 -0.63112947031E+01 -0.89425462413E+01  0.37257136905E+02  0.13097863919E+03  0.12509000000E+03 0.  0.
         25    1    4    4    0    0 -0.53629728198E+02  0.50229751486E+02  0.40324348449E+01  0.14513078347E+03  0.12509000000E+03 0.  0.
<mgrwt>
<rscale>  2 0.45991419E+03</rscale>
<asrwt>0</asrwt>
<pdfrwt beam="1">  1       21 0.54812061E-01 0.45991419E+03</pdfrwt>
<pdfrwt beam="2">  1       21 0.20864101E-01 0.45991419E+03</pdfrwt>
<totfact> 0.61810878E+04</totfact>
</mgrwt>
</event>
<event>
 7    0  0.4737014E-002  0.4567368E+03  0.7546771E-02  0.1025732E+00
         21   -1    0    0  502  501  0.00000000000E+00  0.00000000000E+00  0.22987635878E+03  0.22987635878E+03  0.00000000000E+00 0. -1.
         21   -1    0    0  501  502 -0.00000000000E+00 -0.00000000000E+00 -0.22687037888E+03  0.22687037888E+03  0.00000000000E+00 0. -1.
      99926    2    1    2    0    0  0.00000000000E+00  0.00000000000E+00  0.30059798966E+01  0.45674673767E+03  0.45673684596E+03 0.  0.
      99925    2    3    3    0    0  0.69226841827E+02  0.90195983669E+02  0.17259074736E+02  0.28710496831E+03  0.26306599185E+03 0.  0.
         25    1    3    3    0    0 -0.69226841827E+02 -0.90195983669E+02 -0.14253094839E+02  0.16964176936E+03  0.12509000000E+03 0.  0.
         25    1    4    4    0    0  0.76492695423E+01  0.25816160492E+02  0.34619818621E+02  0.13255574453E+03  0.12509000000E+03 0.  0.
         25    1    4    4    0    0  0.61577572284E+02  0.64379823178E+02 -0.17360743885E+02  0.15454922377E+03  0.12509000000E+03 0.  0.
<mgrwt>
<rscale>  2 0.45673685E+03</rscale>
<asrwt>0</asrwt>
<pdfrwt beam="1">  1       21 0.33805347E-01 0.45673685E+03</pdfrwt>
<pdfrwt beam="2">  1       21 0.33363291E-01 0.45673685E+03</pdfrwt>
<totfact> 0.67478029E+04</totfact>
</mgrwt>
</event>
<event>
 7    0  0.4737014E-002  0.4830986E+03  0.7546771E-02  0.1018287E+00
         21   -1    0    0  502  501  0.00000000000E+00  0.00000000000E+00  0.12282640136E+03  0.12282640136E+03  0.00000000000E+00 0.  1.
         21   -1    0    0  501  502 -0.00000000000E+00 -0.00000000000E+00 -0.47502875047E+03  0.47502875047E+03  0.00000000000E+00 0.  1.
      99926    2    1    2    0    0  0.00000000000E+00  0.00000000000E+00 -0.35220234911E+03  0.59785515183E+03  0.48309863160E+03 0.  0.
      99925    2    3    3    0    0  0.77209771531E+02 -0.11162522734E+03 -0.24635635280E+03  0.38508197863E+03  0.26301166800E+03 0.  0.
         25    1    4    4    0    0  0.29358306619E+02 -0.77322114267E+02 -0.17167168073E+03  0.22794581283E+03  0.12509000000E+03 0.  0.
         25    1    3    3    0    0 -0.77209771531E+02  0.11162522734E+03 -0.10584599631E+03  0.21277317320E+03  0.12509000000E+03 0.  0.
         25    1    4    4    0    0  0.47851464912E+02 -0.34303113073E+02 -0.74684672074E+02  0.15713616580E+03  0.12509000000E+03 0.  0.
<mgrwt>
<rscale>  2 0.48309863E+03</rscale>
<asrwt>0</asrwt>
<pdfrwt beam="1">  1       21 0.18062706E-01 0.48309863E+03</pdfrwt>
<pdfrwt beam="2">  1       21 0.69857169E-01 0.48309863E+03</pdfrwt>
<totfact> 0.47379660E+04</totfact>
</mgrwt>
</event>
<event>
 7    0  0.4737014E-002  0.4535650E+03  0.7546771E-02  0.1026664E+00
         21   -1    0    0  502  501  0.00000000000E+00  0.00000000000E+00  0.10979610177E+03  0.10979610177E+03  0.00000000000E+00 0. -1.
         21   -1    0    0  501  502 -0.00000000000E+00 -0.00000000000E+00 -0.46841656230E+03  0.46841656230E+03  0.00000000000E+00 0. -1.
      99926    2    1    2    0    0  0.00000000000E+00  0.14210854715E-13 -0.35862046053E+03  0.57821266408E+03  0.45356504516E+03 0.  0.
      99925    2    3    3    0    0  0.32137801334E+02  0.65604572456E+02 -0.33392240353E+03  0.43126267149E+03  0.26295726276E+03 0.  0.
         25    1    3    3    0    0 -0.32137801334E+02 -0.65604572456E+02 -0.24698056998E+02  0.14694999259E+03  0.12509000000E+03 0.  0.
         25    1    4    4    0    0  0.34468028854E+02 -0.32707397744E+01 -0.16919967692E+03  0.21324816886E+03  0.12509000000E+03 0.  0.
         25    1    4    4    0    0 -0.23302275192E+01  0.68875312230E+02 -0.16472272661E+03  0.21801450263E+03  0.12509000000E+03 0.  0.
<mgrwt>
<rscale>  2 0.45356505E+03</rscale>
<asrwt>0</asrwt>
<pdfrwt beam="1">  1       21 0.16146486E-01 0.45356505E+03</pdfrwt>
<pdfrwt beam="2">  1       21 0.68884787E-01 0.45356505E+03</pdfrwt>
<totfact> 0.60725781E+04</totfact>
</mgrwt>
</event>
<event>
 7    0  0.4737014E-002  0.4541471E+03  0.7546771E-02  0.1026492E+00
         21   -1    0    0  502  501  0.00000000000E+00  0.00000000000E+00  0.18017197709E+03  0.18017197709E+03  0.00000000000E+00 0. -1.
         21   -1    0    0  501  502 -0.00000000000E+00 -0.00000000000E+00 -0.28618438072E+03  0.28618438072E+03  0.00000000000E+00 0. -1.
      99926    2    1    2    0    0  0.00000000000E+00 -0.14210854715E-13 -0.10601240363E+03  0.46635635781E+03  0.45414713778E+03 0.  0.
      99925    2    3    3    0    0 -0.33686812710E+02  0.68504485129E+02  0.18028819472E+02  0.27436313147E+03  0.26291143708E+03 0.  0.
         25    1    4    4    0    0 -0.40158051131E+02  0.69193686859E+02  0.11643550857E+02  0.14894131646E+03  0.12509000000E+03 0.  0.
         25    1    3    3    0    0  0.33686812710E+02 -0.68504485129E+02 -0.12404122310E+03  0.19199322634E+03  0.12509000000E+03 0.  0.
         25    1    4    4    0    0  0.64712384210E+01 -0.68920173045E+00  0.63852686149E+01  0.12542181501E+03  0.12509000000E+03 0.  0.
<mgrwt>
<rscale>  2 0.45414714E+03</rscale>
<asrwt>0</asrwt>
<pdfrwt beam="1">  1       21 0.26495879E-01 0.45414714E+03</pdfrwt>
<pdfrwt beam="2">  1       21 0.42085938E-01 0.45414714E+03</pdfrwt>
<totfact> 0.68167902E+04</totfact>
</mgrwt>
</event>
<event>
 7    0  0.4737014E-002  0.4544504E+03  0.7546771E-02  0.1026403E+00
         21   -1    0    0  502  501  0.00000000000E+00  0.00000000000E+00  0.52098685832E+03  0.52098685832E+03  0.00000000000E+00 0. -1.
         21   -1    0    0  501  502 -0.00000000000E+00 -0.00000000000E+00 -0.99102860607E+02  0.99102860607E+02  0.00000000000E+00 0. -1.
      99926    2    1    2    0    0  0.00000000000E+00  0.00000000000E+00  0.42188399771E+03  0.62008971893E+03  0.45445038452E+03 0.  0.
      99925    2    3    3    0    0 -0.89711995675E+02  0.40427507924E+02  0.34045966012E+03  0.44131596129E+03  0.26299120130E+03 0.  0.
         25    1    3    3    0    0  0.89711995675E+02 -0.40427507924E+02  0.81424337595E+02  0.17877375763E+03  0.12509000000E+03 0.  0.
         25    1    4    4    0    0 -0.78814954591E+02  0.22373014159E+02  0.14493609433E+03  0.20824583638E+03  0.12509000000E+03 0.  0.
         25    1    4    4    0    0 -0.10897041084E+02  0.18054493766E+02  0.19552356579E+03  0.23307012491E+03  0.12509000000E+03 0.  0.
<mgrwt>
<rscale>  2 0.45445038E+03</rscale>
<asrwt>0</asrwt>
<pdfrwt beam="1">  1       21 0.76615713E-01 0.45445038E+03</pdfrwt>
<pdfrwt beam="2">  1       21 0.14573950E-01 0.45445038E+03</pdfrwt>
<totfact> 0.57708475E+04</totfact>
</mgrwt>
</event>
<event>
 7    0  0.4737014E-002  0.4555189E+03  0.7546771E-02  0.1026089E+00
         21   -1    0    0  502  501  0.00000000000E+00  0.00000000000E+00  0.13685324492E+04  0.13685324492E+04  0.00000000000E+00 0.  1.
         21   -1    0    0  501  502 -0.00000000000E+00 -0.00000000000E+00 -0.37905111426E+02  0.37905111426E+02  0.00000000000E+00 0.  1.
      99926    2    1    2    0    0 -0.35527136788E-14  0.71054273576E-14  0.13306273378E+04  0.14064375607E+04  0.45551893474E+03 0.  0.
      99925    2    3    3    0    0 -0.23007057897E+02 -0.37241990256E+02  0.51317170177E+03  0.57830863619E+03  0.26301975714E+03 0.  0.
         25    1    3    3    0    0  0.23007057897E+02  0.37241990256E+02  0.81745563603E+03  0.82812892446E+03  0.12509000000E+03 0.  0.
         25    1    4    4    0    0  0.26438360427E+02 -0.26306781322E+02  0.27922460853E+03  0.30822868743E+03  0.12509000000E+03 0.  0.
         25    1    4    4    0    0 -0.49445418325E+02 -0.10935208934E+02  0.23394709325E+03  0.27007994877E+03  0.12509000000E+03 0.  0.
<mgrwt>
<rscale>  2 0.45551893E+03</rscale>
<asrwt>0</asrwt>
<pdfrwt beam="1">  1       21 0.20125474E+00 0.45551893E+03</pdfrwt>
<pdfrwt beam="2">  1       21 0.55742820E-02 0.45551893E+03</pdfrwt>
<totfact> 0.26055731E+04</totfact>
</mgrwt>
</event>
<event>
 7    0  0.4737014E-002  0.4501213E+03  0.7546771E-02  0.1027686E+00
         21   -1    0    0  502  501  0.00000000000E+00  0.00000000000E+00  0.44365045163E+03  0.44365045163E+03  0.00000000000E+00 0.  1.
         21   -1    0    0  501  502 -0.00000000000E+00 -0.00000000000E+00 -0.11417162285E+03  0.11417162285E+03  0.00000000000E+00 0.  1.
      99926    2    1    2    0    0  0.00000000000E+00  0.00000000000E+00  0.32947882878E+03  0.55782207449E+03  0.45012128163E+03 0.  0.
      99925    2    3    3    0    0 -0.21747401596E+02  0.78914722204E+02  0.12010818139E+03  0.30055944808E+03  0.26307703005E+03 0.  0.
         25    1    4    4    0    0 -0.19967520037E+02  0.24354167763E+01  0.36872063191E+02  0.13195336394E+03  0.12509000000E+03 0.  0.
         25    1    4    4    0    0 -0.17798815590E+01  0.76479305428E+02  0.83236118200E+02  0.16860608414E+03  0.12509000000E+03 0.  0.
         25    1    3    3    0    0  0.21747401596E+02 -0.78914722204E+02  0.20937064739E+03  0.25726262641E+03  0.12509000000E+03 0.  0.
<mgrwt>
<rscale>  2 0.45012128E+03</rscale>
<asrwt>0</asrwt>
<pdfrwt beam="1">  1       21 0.65242713E-01 0.45012128E+03</pdfrwt>
<pdfrwt beam="2">  1       21 0.16789945E-01 0.45012128E+03</pdfrwt>
<totfact> 0.63778489E+04</totfact>
</mgrwt>
</event>
<event>
 7    0  0.4737014E-002  0.4831377E+03  0.7546771E-02  0.1018276E+00
         21   -1    0    0  502  501  0.00000000000E+00  0.00000000000E+00  0.68644803811E+03  0.68644803811E+03  0.00000000000E+00 0. -1.
         21   -1    0    0  501  502 -0.00000000000E+00 -0.00000000000E+00 -0.85010826287E+02  0.85010826287E+02  0.00000000000E+00 0. -1.
      99926    2    1    2    0    0  0.00000000000E+00 -0.71054273576E-14  0.60143721182E+03  0.77145886440E+03  0.48313772332E+03 0.  0.
      99925    2    3    3    0    0 -0.11599975888E+03 -0.56117408761E+02  0.44817952057E+03  0.53536452805E+03  0.26295472540E+03 0.  0.
         25    1    3    3    0    0  0.11599975888E+03  0.56117408761E+02  0.15325769125E+03  0.23609433634E+03  0.12509000000E+03 0.  0.
         25    1    4    4    0    0 -0.44260346348E+02 -0.66103446805E+02  0.23140669678E+03  0.27481850620E+03  0.12509000000E+03 0.  0.
         25    1    4    4    0    0 -0.71739412530E+02  0.99860380442E+01  0.21677282379E+03  0.26054602185E+03  0.12509000000E+03 0.  0.
<mgrwt>
<rscale>  2 0.48313772E+03</rscale>
<asrwt>0</asrwt>
<pdfrwt beam="1">  1       21 0.10094824E+00 0.48313772E+03</pdfrwt>
<pdfrwt beam="2">  1       21 0.12501592E-01 0.48313772E+03</pdfrwt>
<totfact> 0.39662708E+04</totfact>
</mgrwt>
</event>
<event>
 7    0  0.4737014E-002  0.4547120E+03  0.7546771E-02  0.1026326E+00
         21   -1    0    0  502  501  0.00000000000E+00  0.00000000000E+00  0.40986121164E+02  0.40986121164E+02  0.00000000000E+00 0. -1.
         21   -1    0    0  501  502 -0.00000000000E+00 -0.00000000000E+00 -0.12611767041E+04  0.12611767041E+04  0.00000000000E+00 0. -1.
      99926    2    1    2    0    0  0.00000000000E+00  0.00000000000E+00 -0.12201905830E+04  0.13021628253E+04  0.45471195808E+03 0.  0.
      99925    2    3    3    0    0 -0.11027534922E+03 -0.17174524722E+02 -0.81813061633E+03  0.86655366352E+03  0.26291049703E+03 0.  0.
         25    1    4    4    0    0 -0.48097348474E+02 -0.44738715682E+02 -0.35703106534E+03  0.38397082875E+03  0.12509000000E+03 0.  0.
         25    1    4    4    0    0 -0.62178000749E+02  0.27564190960E+02 -0.46109955098E+03  0.48258283477E+03  0.12509000000E+03 0.  0.
         25    1    3    3    0    0  0.11027534922E+03  0.17174524722E+02 -0.40205996666E+03  0.43560916179E+03  0.12509000000E+03 0.  0.
<mgrwt>
<rscale>  2 0.45471196E+03</rscale>
<asrwt>0</asrwt>
<pdfrwt beam="1">  1       21 0.60273714E-02 0.45471196E+03</pdfrwt>
<pdfrwt beam="2">  1       21 0.18546714E+00 0.45471196E+03</pdfrwt>
<totfact> 0.29117108E+04</totfact>
</mgrwt>
</event>
<event>
 7    0  0.4737014E-002  0.4172531E+03  0.7546771E-02  0.1037964E+00
         21   -1    0    0  502  501  0.00000000000E+00  0.00000000000E+00  0.90512135273E+02  0.90512135273E+02  0.00000000000E+00 0.  1.
         21   -1    0    0  501  502 -0.00000000000E+00 -0.00000000000E+00 -0.48087505056E+03  0.48087505056E+03  0.00000000000E+00 0.  1.
      99926    2    1    2    0    0  0.17763568394E-14  0.00000000000E+00 -0.39036291529E+03  0.57138718583E+03  0.41725305332E+03 0.  0.
      99925    2    3    3    0    0  0.59607320674E+01  0.46487137446E+02 -0.33048579504E+03  0.42499947493E+03  0.26307244001E+03 0.  0.
         25    1    4    4    0    0 -0.29163709623E+02  0.19353450339E+01 -0.13804755520E+03  0.18857068467E+03  0.12509000000E+03 0.  0.
         25    1    4    4    0    0  0.35124441691E+02  0.44551792412E+02 -0.19243823984E+03  0.23642879026E+03  0.12509000000E+03 0.  0.
         25    1    3    3    0    0 -0.59607320674E+01 -0.46487137446E+02 -0.59877120246E+02  0.14638771090E+03  0.12509000000E+03 0.  0.
<mgrwt>
<rscale>  2 0.41725305E+03</rscale>
<asrwt>0</asrwt>
<pdfrwt beam="1">  1       21 0.13310608E-01 0.41725305E+03</pdfrwt>
<pdfrwt beam="2">  1       21 0.70716918E-01 0.41725305E+03</pdfrwt>
<totfact> 0.82467144E+04</totfact>
</mgrwt>
</event>
<event>
 7    0  0.4737014E-002  0.4523734E+03  0.7546771E-02  0.1027017E+00
         21   -1    0    0  502  501  0.00000000000E+00  0.00000000000E+00  0.11908964046E+03  0.11908964046E+03  0.00000000000E+00 0. -1.
         21   -1    0    0  501  502 -0.00000000000E+00 -0.00000000000E+00 -0.42959588979E+03  0.42959588979E+03  0.00000000000E+00 0. -1.
      99926    2    1    2    0    0  0.00000000000E+00 -0.14210854715E-13 -0.31050624933E+03  0.54868553025E+03  0.45237338586E+03 0.  0.
      99925    2    3    3    0    0 -0.77602912537E+02  0.49678369100E+02 -0.12121454710E+03  0.30379982421E+03  0.26289011843E+03 0.  0.
         25    1    4    4    0    0 -0.46099534167E+02  0.64653562582E+02 -0.55120122856E+02  0.15808537645E+03  0.12509000000E+03 0.  0.
         25    1    3    3    0    0  0.77602912537E+02 -0.49678369100E+02 -0.18929170223E+03  0.24488570604E+03  0.12509000000E+03 0.  0.
         25    1    4    4    0    0 -0.31503378370E+02 -0.14975193482E+02 -0.66094424247E+02  0.14571444776E+03  0.12509000000E+03 0.  0.
<mgrwt>
<rscale>  2 0.45237339E+03</rscale>
<asrwt>0</asrwt>
<pdfrwt beam="1">  1       21 0.17513182E-01 0.45237339E+03</pdfrwt>
<pdfrwt beam="2">  1       21 0.63175866E-01 0.45237339E+03</pdfrwt>
<totfact> 0.63257874E+04</totfact>
</mgrwt>
</event>
<event>
 7    0  0.4737014E-002  0.4543173E+03  0.7546771E-02  0.1026442E+00
         21   -1    0    0  502  501  0.00000000000E+00  0.00000000000E+00  0.42541452578E+03  0.42541452578E+03  0.00000000000E+00 0.  1.
         21   -1    0    0  501  502 -0.00000000000E+00 -0.00000000000E+00 -0.12129595342E+03  0.12129595342E+03  0.00000000000E+00 0.  1.
      99926    2    1    2    0    0  0.00000000000E+00  0.00000000000E+00  0.30411857236E+03  0.54671047920E+03  0.45431733625E+03 0.  0.
      99925    2    3    3    0    0  0.65475263126E+02  0.58656168247E+02  0.10696936872E+03  0.29722526371E+03  0.26300732953E+03 0.  0.
         25    1    4    4    0    0  0.71595177357E+02  0.17250898145E+02  0.62266289434E+02  0.15794955463E+03  0.12509000000E+03 0.  0.
         25    1    3    3    0    0 -0.65475263126E+02 -0.58656168247E+02  0.19714920363E+03  0.24948521549E+03  0.12509000000E+03 0.  0.
         25    1    4    4    0    0 -0.61199142306E+01  0.41405270102E+02  0.44703079290E+02  0.13927570908E+03  0.12509000000E+03 0.  0.
<mgrwt>
<rscale>  2 0.45431734E+03</rscale>
<asrwt>0</asrwt>
<pdfrwt beam="1">  1       21 0.62560959E-01 0.45431734E+03</pdfrwt>
<pdfrwt beam="2">  1       21 0.17837640E-01 0.45431734E+03</pdfrwt>
<totfact> 0.62420902E+04</totfact>
</mgrwt>
</event>
<event>
 7    0  0.4737014E-002  0.4552180E+03  0.7546771E-02  0.1026177E+00
         21   -1    0    0  502  501  0.00000000000E+00  0.00000000000E+00  0.25722879236E+02  0.25722879236E+02  0.00000000000E+00 0.  1.
         21   -1    0    0  501  502 -0.00000000000E+00 -0.00000000000E+00 -0.20139991882E+04  0.20139991882E+04  0.00000000000E+00 0.  1.
      99926    2    1    2    0    0 -0.14210854715E-13  0.00000000000E+00 -0.19882763089E+04  0.20397220674E+04  0.45521800447E+03 0.  0.
      99925    2    3    3    0    0 -0.90897998940E+02 -0.29697253944E+02 -0.15239873532E+04  0.15494607946E+04  0.26295803499E+03 0.  0.
         25    1    4    4    0    0 -0.14427482250E+02 -0.73068270761E+01 -0.85321614664E+03  0.86248874946E+03  0.12509000000E+03 0.  0.
         25    1    4    4    0    0 -0.76470516690E+02 -0.22390426868E+02 -0.67077120655E+03  0.68697204511E+03  0.12509000000E+03 0.  0.
         25    1    3    3    0    0  0.90897998940E+02  0.29697253944E+02 -0.46428895575E+03  0.49026127282E+03  0.12509000000E+03 0.  0.
<mgrwt>
<rscale>  2 0.45521800E+03</rscale>
<asrwt>0</asrwt>
<pdfrwt beam="1">  1       21 0.37827769E-02 0.45521800E+03</pdfrwt>
<pdfrwt beam="2">  1       21 0.29617631E+00 0.45521800E+03</pdfrwt>
<totfact> 0.13049886E+04</totfact>
</mgrwt>
</event>
<event>
 7    0  0.4737014E-002  0.4590654E+03  0.7546771E-02  0.1025053E+00
         21   -1    0    0  502  501  0.00000000000E+00  0.00000000000E+00  0.57385816279E+02  0.57385816279E+02  0.00000000000E+00 0.  1.
         21   -1    0    0  501  502 -0.00000000000E+00 -0.00000000000E+00 -0.91808837739E+03  0.91808837739E+03  0.00000000000E+00 0.  1.
      99926    2    1    2    0    0  0.14210854715E-13  0.00000000000E+00 -0.86070256111E+03  0.97547419367E+03  0.45906535898E+03 0.  0.
      99925    2    3    3    0    0  0.80524974291E+02  0.78132798098E+02 -0.47017856014E+03  0.55033244194E+03  0.26307586856E+03 0.  0.
         25    1    4    4    0    0  0.30620966971E+01  0.17255323513E+02 -0.22360666952E+03  0.25681622492E+03  0.12509000000E+03 0.  0.
         25    1    4    4    0    0  0.77462877594E+02  0.60877474584E+02 -0.24657189061E+03  0.29351621702E+03  0.12509000000E+03 0.  0.
         25    1    3    3    0    0 -0.80524974291E+02 -0.78132798098E+02 -0.39052400098E+03  0.42514175173E+03  0.12509000000E+03 0.  0.
<mgrwt>
<rscale>  2 0.45906536E+03</rscale>
<asrwt>0</asrwt>
<pdfrwt beam="1">  1       21 0.84390917E-02 0.45906536E+03</pdfrwt>
<pdfrwt beam="2">  1       21 0.13501298E+00 0.45906536E+03</pdfrwt>
<totfact> 0.38875807E+04</totfact>
</mgrwt>
</event>
<event>
 7    0  0.4737014E-002  0.4564172E+03  0.7546771E-02  0.1025825E+00
         21   -1    0    0  502  501  0.00000000000E+00  0.00000000000E+00  0.45715055078E+03  0.45715055078E+03  0.00000000000E+00 0. -1.
         21   -1    0    0  501  502 -0.00000000000E+00 -0.00000000000E+00 -0.11392126025E+03  0.11392126025E+03  0.00000000000E+00 0. -1.
      99926    2    1    2    0    0 -0.35527136788E-14  0.71054273576E-14  0.34322929053E+03  0.57107181103E+03  0.45641720769E+03 0.  0.
      99925    2    3    3    0    0 -0.10509494171E+02 -0.58249270973E+02  0.33835438402E+03  0.43259907057E+03  0.26297307778E+03 0.  0.
         25    1    3    3    0    0  0.10509494171E+02  0.58249270973E+02  0.48749065081E+01  0.13847274046E+03  0.12509000000E+03 0.  0.
         25    1    4    4    0    0 -0.40572933699E+02 -0.49357782664E+02  0.18310810780E+03  0.23077790384E+03  0.12509000000E+03 0.  0.
         25    1    4    4    0    0  0.30063439528E+02 -0.88914883088E+01  0.15524627622E+03  0.20182116673E+03  0.12509000000E+03 0.  0.
<mgrwt>
<rscale>  2 0.45641721E+03</rscale>
<asrwt>0</asrwt>
<pdfrwt beam="1">  1       21 0.67228022E-01 0.45641721E+03</pdfrwt>
<pdfrwt beam="2">  1       21 0.16753127E-01 0.45641721E+03</pdfrwt>
<totfact> 0.59821936E+04</totfact>
</mgrwt>
</event>
<event>
 7    0  0.4737014E-002  0.4561774E+03  0.7546771E-02  0.1025896E+00
         21   -1    0    0  502  501  0.00000000000E+00  0.00000000000E+00  0.98457926123E+03  0.98457926123E+03  0.00000000000E+00 0. -1.
         21   -1    0    0  501  502 -0.00000000000E+00 -0.00000000000E+00 -0.52839269401E+02  0.52839269401E+02  0.00000000000E+00 0. -1.
      99926    2    1    2    0    0  0.00000000000E+00 -0.71054273576E-14  0.93173999183E+03  0.10374185306E+04  0.45617737266E+03 0.  0.
      99925    2    3    3    0    0 -0.34668199009E+02 -0.59414990388E+02  0.37762616156E+03  0.46521081476E+03  0.26284512393E+03 0.  0.
         25    1    3    3    0    0  0.34668199009E+02  0.59414990388E+02  0.55411383027E+03  0.57220771587E+03  0.12509000000E+03 0.  0.
         25    1    4    4    0    0 -0.33996924546E+01  0.81838590543E+01  0.19157939692E+03  0.22897315756E+03  0.12509000000E+03 0.  0.
         25    1    4    4    0    0 -0.31268506554E+02 -0.67598849442E+02  0.18604676464E+03  0.23623765720E+03  0.12509000000E+03 0.  0.
<mgrwt>
<rscale>  2 0.45617737E+03</rscale>
<asrwt>0</asrwt>
<pdfrwt beam="1">  1       21 0.14479106E+00 0.45617737E+03</pdfrwt>
<pdfrwt beam="2">  1       21 0.77704814E-02 0.45617737E+03</pdfrwt>
<totfact> 0.37397560E+04</totfact>
</mgrwt>
</event>
<event>
 7    0  0.4737014E-002  0.4524903E+03  0.7546771E-02  0.1026982E+00
         21   -1    0    0  502  501  0.00000000000E+00  0.00000000000E+00  0.22199190414E+03  0.22199190414E+03  0.00000000000E+00 0.  1.
         21   -1    0    0  501  502 -0.00000000000E+00 -0.00000000000E+00 -0.23057993415E+03  0.23057993415E+03  0.00000000000E+00 0.  1.
      99926    2    1    2    0    0  0.00000000000E+00  0.00000000000E+00 -0.85880300153E+01  0.45257183829E+03  0.45249034747E+03 0.  0.
      99925    2    3    3    0    0 -0.67473904270E+02  0.45983620541E+02  0.69493037914E+02  0.28401507520E+03  0.26299821198E+03 0.  0.
         25    1    4    4    0    0 -0.56381680857E+01  0.45312861347E+02  0.14199817181E+02  0.13391858441E+03  0.12509000000E+03 0.  0.
         25    1    4    4    0    0 -0.61835736184E+02  0.67075919381E+00  0.55293220733E+02  0.15009649079E+03  0.12509000000E+03 0.  0.
         25    1    3    3    0    0  0.67473904270E+02 -0.45983620541E+02 -0.78081067930E+02  0.16855676309E+03  0.12509000000E+03 0.  0.
<mgrwt>
<rscale>  2 0.45249035E+03</rscale>
<asrwt>0</asrwt>
<pdfrwt beam="1">  1       21 0.32645868E-01 0.45249035E+03</pdfrwt>
<pdfrwt beam="2">  1       21 0.33908814E-01 0.45249035E+03</pdfrwt>
<totfact> 0.70117626E+04</totfact>
</mgrwt>
</event>
<event>
 7    0  0.4737014E-002  0.4397062E+03  0.7546771E-02  0.1030837E+00
         21   -1    0    0  502  501  0.00000000000E+00  0.00000000000E+00  0.76917605159E+03  0.76917605159E+03  0.00000000000E+00 0. -1.
         21   -1    0    0  501  502 -0.00000000000E+00 -0.00000000000E+00 -0.62840458066E+02  0.62840458066E+02  0.00000000000E+00 0. -1.
      99926    2    1    2    0    0 -0.71054273576E-14  0.14210854715E-13  0.70633559352E+03  0.83201650966E+03  0.43970615377E+03 0.  0.
      99925    2    3    3    0    0 -0.62677341024E+02  0.69651769844E+02  0.50745291624E+03  0.57907057563E+03  0.26274407935E+03 0.  0.
         25    1    4    4    0    0 -0.33694235564E+02  0.60392936715E+02  0.20066809612E+03  0.24636923756E+03  0.12509000000E+03 0.  0.
         25    1    3    3    0    0  0.62677341024E+02 -0.69651769844E+02  0.19888267728E+03  0.25294593403E+03  0.12509000000E+03 0.  0.
         25    1    4    4    0    0 -0.28983105460E+02  0.92588331287E+01  0.30678482012E+03  0.33270133806E+03  0.12509000000E+03 0.  0.
<mgrwt>
<rscale>  2 0.43970615E+03</rscale>
<asrwt>0</asrwt>
<pdfrwt beam="1">  1       21 0.11311412E+00 0.43970615E+03</pdfrwt>
<pdfrwt beam="2">  1       21 0.92412443E-02 0.43970615E+03</pdfrwt>
<totfact> 0.52247707E+04</totfact>
</mgrwt>
</event>
<event>
 7    0  0.4737014E-002  0.4442712E+03  0.7546771E-02  0.1029444E+00
         21   -1    0    0  502  501  0.00000000000E+00  0.00000000000E+00  0.22051559443E+03  0.22051559443E+03  0.00000000000E+00 0.  1.
         21   -1    0    0  501  502 -0.00000000000E+00 -0.00000000000E+00 -0.22376750666E+03  0.22376750666E+03  0.00000000000E+00 0.  1.
      99926    2    1    2    0    0  0.00000000000E+00  0.35527136788E-14 -0.32519122254E+01  0.44428310109E+03  0.44427119981E+03 0.  0.
      99925    2    3    3    0    0 -0.55664883782E+02  0.30615035190E+02 -0.82792258408E+02  0.28300683365E+03  0.26306358580E+03 0.  0.
         25    1    4    4    0    0 -0.32127490996E+02  0.25612310482E+02 -0.10826702892E+01  0.13166945888E+03  0.12509000000E+03 0.  0.
         25    1    3    3    0    0  0.55664883782E+02 -0.30615035190E+02  0.79540346183E+02  0.16127626743E+03  0.12509000000E+03 0.  0.
         25    1    4    4    0    0 -0.23537392786E+02  0.50027247083E+01 -0.81709588119E+02  0.15133737478E+03  0.12509000000E+03 0.  0.
<mgrwt>
<rscale>  2 0.44427120E+03</rscale>
<asrwt>0</asrwt>
<pdfrwt beam="1">  1       21 0.32428764E-01 0.44427120E+03</pdfrwt>
<pdfrwt beam="2">  1       21 0.32906986E-01 0.44427120E+03</pdfrwt>
<totfact> 0.75606027E+04</totfact>
</mgrwt>
</event>
<event>
 7    0  0.4737014E-002  0.4558360E+03  0.7546771E-02  0.1025996E+00
         21   -1    0    0  502  501  0.00000000000E+00  0.00000000000E+00  0.29406681301E+03  0.29406681301E+03  0.00000000000E+00 0. -1.
         21   -1    0    0  501  502 -0.00000000000E+00 -0.00000000000E+00 -0.17664902698E+03  0.17664902698E+03  0.00000000000E+00 0. -1.
      99926    2    1    2    0    0 -0.71054273576E-14  0.71054273576E-14  0.11741778604E+03  0.47071583999E+03  0.45583600729E+03 0.  0.
      99925    2    3    3    0    0 -0.62801816117E+02  0.39910236784E+02  0.16272630872E+03  0.31827809717E+03  0.26321892121E+03 0.  0.
         25    1    3    3    0    0  0.62801816117E+02 -0.39910236784E+02 -0.45308522680E+02  0.15243774282E+03  0.12509000000E+03 0.  0.
         25    1    4    4    0    0 -0.57796284553E+02  0.32516089279E+02  0.12060231636E+03  0.18598422885E+03  0.12509000000E+03 0.  0.
         25    1    4    4    0    0 -0.50055315641E+01  0.73941475047E+01  0.42123992361E+02  0.13229386832E+03  0.12509000000E+03 0.  0.
<mgrwt>
<rscale>  2 0.45583601E+03</rscale>
<asrwt>0</asrwt>
<pdfrwt beam="1">  1       21 0.43245119E-01 0.45583601E+03</pdfrwt>
<pdfrwt beam="2">  1       21 0.25977798E-01 0.45583601E+03</pdfrwt>
<totfact> 0.66937473E+04</totfact>
</mgrwt>
</event>
<event>
 7    0  0.4737014E-002  0.4540675E+03  0.7546771E-02  0.1026516E+00
         21   -1    0    0  502  501  0.00000000000E+00  0.00000000000E+00  0.15566198311E+03  0.15566198311E+03  0.00000000000E+00 0. -1.
         21   -1    0    0  501  502 -0.00000000000E+00 -0.00000000000E+00 -0.33112988186E+03  0.33112988186E+03  0.00000000000E+00 0. -1.
      99926    2    1    2    0    0  0.16653345369E-15  0.71054273576E-14 -0.17546789875E+03  0.48679186497E+03  0.45406754597E+03 0.  0.
      99925    2    3    3    0    0  0.33454046782E+00 -0.59536446904E+02 -0.82930674423E+01  0.26967523099E+03  0.26289019535E+03 0.  0.
         25    1    4    4    0    0 -0.13256241178E+02  0.90035765866E+01  0.64570676232E+00  0.12611390629E+03  0.12509000000E+03 0.  0.
         25    1    3    3    0    0 -0.33454046782E+00  0.59536446904E+02 -0.16717483131E+03  0.21711663398E+03  0.12509000000E+03 0.  0.
         25    1    4    4    0    0  0.13590781646E+02 -0.68540023491E+02 -0.89387742046E+01  0.14356132470E+03  0.12509000000E+03 0.  0.
<mgrwt>
<rscale>  2 0.45406755E+03</rscale>
<asrwt>0</asrwt>
<pdfrwt beam="1">  1       21 0.22891468E-01 0.45406755E+03</pdfrwt>
<pdfrwt beam="2">  1       21 0.48695571E-01 0.45406755E+03</pdfrwt>
<totfact> 0.66701310E+04</totfact>
</mgrwt>
</event>
<event>
 7    0  0.4737014E-002  0.4679970E+03  0.7546771E-02  0.1022487E+00
         21   -1    0    0  502  501  0.00000000000E+00  0.00000000000E+00  0.68904054356E+03  0.68904054356E+03  0.00000000000E+00 0. -1.
         21   -1    0    0  501  502 -0.00000000000E+00 -0.00000000000E+00 -0.79466011966E+02  0.79466011966E+02  0.00000000000E+00 0. -1.
      99926    2    1    2    0    0  0.00000000000E+00  0.00000000000E+00  0.60957453159E+03  0.76850655553E+03  0.46799702597E+03 0.  0.
      99925    2    3    3    0    0 -0.55288451777E+02  0.87063489230E+02  0.49495685318E+03  0.56995786034E+03  0.26312128761E+03 0.  0.
         25    1    4    4    0    0 -0.79058362646E+01  0.59275870677E+02  0.31375206879E+03  0.34302186499E+03  0.12509000000E+03 0.  0.
         25    1    4    4    0    0 -0.47382615513E+02  0.27787618553E+02  0.18120478438E+03  0.22693599534E+03  0.12509000000E+03 0.  0.
         25    1    3    3    0    0  0.55288451777E+02 -0.87063489230E+02  0.11461767842E+03  0.19854869519E+03  0.12509000000E+03 0.  0.
<mgrwt>
<rscale>  2 0.46799703E+03</rscale>
<asrwt>0</asrwt>
<pdfrwt beam="1">  1       21 0.10132949E+00 0.46799703E+03</pdfrwt>
<pdfrwt beam="2">  1       21 0.11686179E-01 0.46799703E+03</pdfrwt>
<totfact> 0.44598317E+04</totfact>
</mgrwt>
</event>
<event>
 7    0  0.4737014E-002  0.4547048E+03  0.7546771E-02  0.1026328E+00
         21   -1    0    0  502  501  0.00000000000E+00  0.00000000000E+00  0.27797991318E+03  0.27797991318E+03  0.00000000000E+00 0. -1.
         21   -1    0    0  501  502 -0.00000000000E+00 -0.00000000000E+00 -0.18594553929E+03  0.18594553929E+03  0.00000000000E+00 0. -1.
      99926    2    1    2    0    0  0.00000000000E+00  0.00000000000E+00  0.92034373891E+02  0.46392545247E+03  0.45470484875E+03 0.  0.
      99925    2    3    3    0    0  0.82592127656E+02  0.97872675110E+01 -0.19565041133E+02  0.27679130890E+03  0.26327435822E+03 0.  0.
         25    1    4    4    0    0  0.78182874538E+02  0.23678629489E+02 -0.37717123007E+00  0.14940177283E+03  0.12509000000E+03 0.  0.
         25    1    4    4    0    0  0.44092531177E+01 -0.13891361978E+02 -0.19187869903E+02  0.12738953608E+03  0.12509000000E+03 0.  0.
         25    1    3    3    0    0 -0.82592127656E+02 -0.97872675110E+01  0.11159941502E+03  0.18713414357E+03  0.12509000000E+03 0.  0.
<mgrwt>
<rscale>  2 0.45470485E+03</rscale>
<asrwt>0</asrwt>
<pdfrwt beam="1">  1       21 0.40879399E-01 0.45470485E+03</pdfrwt>
<pdfrwt beam="2">  1       21 0.27344932E-01 0.45470485E+03</pdfrwt>
<totfact> 0.68049610E+04</totfact>
</mgrwt>
</event>
<event>
 7    0  0.4737014E-002  0.4555343E+03  0.7546771E-02  0.1026084E+00
         21   -1    0    0  502  501  0.00000000000E+00  0.00000000000E+00  0.24902792487E+03  0.24902792487E+03  0.00000000000E+00 0. -1.
         21   -1    0    0  501  502 -0.00000000000E+00 -0.00000000000E+00 -0.20832148921E+03  0.20832148921E+03  0.00000000000E+00 0. -1.
      99926    2    1    2    0    0  0.00000000000E+00  0.00000000000E+00  0.40706435662E+02  0.45734941409E+03  0.45553427166E+03 0.  0.
      99925    2    3    3    0    0  0.22389601528E+02  0.72122503155E+02  0.11094764687E+03  0.29522512359E+03  0.26295540217E+03 0.  0.
         25    1    4    4    0    0  0.24573779671E+02  0.64511860842E+02  0.29917402410E+02  0.14597331915E+03  0.12509000000E+03 0.  0.
         25    1    3    3    0    0 -0.22389601528E+02 -0.72122503155E+02 -0.70241211208E+02  0.16212429050E+03  0.12509000000E+03 0.  0.
         25    1    4    4    0    0 -0.21841781420E+01  0.76106423127E+01  0.81030244460E+02  0.14925180444E+03  0.12509000000E+03 0.  0.
<mgrwt>
<rscale>  2 0.45553427E+03</rscale>
<asrwt>0</asrwt>
<pdfrwt beam="1">  1       21 0.36621754E-01 0.45553427E+03</pdfrwt>
<pdfrwt beam="2">  1       21 0.30635513E-01 0.45553427E+03</pdfrwt>
<totfact> 0.68083351E+04</totfact>
</mgrwt>
</event>
<event>
 7    0  0.4737014E-002  0.4128461E+03  0.7546771E-02  0.1039420E+00
         21   -1    0    0  502  501  0.00000000000E+00  0.00000000000E+00  0.27937488816E+03  0.27937488816E+03  0.00000000000E+00 0. -1.
         21   -1    0    0  501  502 -0.00000000000E+00 -0.00000000000E+00 -0.15252080097E+03  0.15252080097E+03  0.00000000000E+00 0. -1.
      99926    2    1    2    0    0  0.71054273576E-14  0.00000000000E+00  0.12685408719E+03  0.43189568912E+03  0.41284612974E+03 0.  0.
      99925    2    3    3    0    0 -0.20211900418E+02  0.60515696515E+02  0.10202035276E+03  0.28929522310E+03  0.26308345309E+03 0.  0.
         25    1    3    3    0    0  0.20211900418E+02 -0.60515696515E+02  0.24833734429E+02  0.14260046602E+03  0.12509000000E+03 0.  0.
         25    1    4    4    0    0  0.20220250123E+02  0.19186038445E+02  0.76172797387E+02  0.14908643717E+03  0.12509000000E+03 0.  0.
         25    1    4    4    0    0 -0.40432150541E+02  0.41329658070E+02  0.25847555374E+02  0.14020878593E+03  0.12509000000E+03 0.  0.
<mgrwt>
<rscale>  2 0.41284613E+03</rscale>
<asrwt>0</asrwt>
<pdfrwt beam="1">  1       21 0.41084542E-01 0.41284613E+03</pdfrwt>
<pdfrwt beam="2">  1       21 0.22429530E-01 0.41284613E+03</pdfrwt>
<totfact> 0.99804145E+04</totfact>
</mgrwt>
</event>
<event>
 7    0  0.4737014E-002  0.4557087E+03  0.7546771E-02  0.1026033E+00
         21   -1    0    0  502  501  0.00000000000E+00  0.00000000000E+00  0.42105678126E+02  0.42105678126E+02  0.00000000000E+00 0. -1.
         21   -1    0    0  501  502 -0.00000000000E+00 -0.00000000000E+00 -0.12330307520E+04  0.12330307520E+04  0.00000000000E+00 0. -1.
      99926    2    1    2    0    0  0.00000000000E+00  0.00000000000E+00 -0.11909250738E+04  0.12751364301E+04  0.45570866115E+03 0.  0.
      99925    2    3    3    0    0  0.76828102263E+02 -0.69446386624E+02 -0.88141425399E+03  0.92560844321E+03  0.26293448819E+03 0.  0.
         25    1    4    4    0    0  0.26811347201E+02 -0.39267689219E+02 -0.56057146784E+03  0.57632341477E+03  0.12509000000E+03 0.  0.
         25    1    4    4    0    0  0.50016755063E+02 -0.30178697405E+02 -0.32084278615E+03  0.34928502844E+03  0.12509000000E+03 0.  0.
         25    1    3    3    0    0 -0.76828102263E+02  0.69446386624E+02 -0.30951081983E+03  0.34952798687E+03  0.12509000000E+03 0.  0.
<mgrwt>
<rscale>  2 0.45570866E+03</rscale>
<asrwt>0</asrwt>
<pdfrwt beam="1">  1       21 0.61920106E-02 0.45570866E+03</pdfrwt>
<pdfrwt beam="2">  1       21 0.18132808E+00 0.45570866E+03</pdfrwt>
<totfact> 0.29681426E+04</totfact>
</mgrwt>
</event>
<event>
 7    0  0.4737014E-002  0.4573789E+03  0.7546771E-02  0.1025544E+00
         21   -1    0    0  502  501  0.00000000000E+00  0.00000000000E+00  0.29295681684E+03  0.29295681684E+03  0.00000000000E+00 0.  1.
         21   -1    0    0  501  502 -0.00000000000E+00 -0.00000000000E+00 -0.17852070820E+03  0.17852070820E+03  0.00000000000E+00 0.  1.
      99926    2    1    2    0    0 -0.14210854715E-13  0.17763568394E-14  0.11443610864E+03  0.47147752503E+03  0.45737887320E+03 0.  0.
      99925    2    3    3    0    0  0.11367191952E+03  0.12100963511E+02  0.56231248770E+02  0.29230427810E+03  0.26308192460E+03 0.  0.
         25    1    4    4    0    0  0.21310122868E+02  0.29166792722E+02  0.31198663440E+02  0.13388684713E+03  0.12509000000E+03 0.  0.
         25    1    3    3    0    0 -0.11367191952E+03 -0.12100963511E+02  0.58204859873E+02  0.17917324693E+03  0.12509000000E+03 0.  0.
         25    1    4    4    0    0  0.92361796647E+02 -0.17065829210E+02  0.25032585330E+02  0.15841743097E+03  0.12509000000E+03 0.  0.
<mgrwt>
<rscale>  2 0.45737887E+03</rscale>
<asrwt>0</asrwt>
<pdfrwt beam="1">  1       21 0.43081885E-01 0.45737887E+03</pdfrwt>
<pdfrwt beam="2">  1       21 0.26253045E-01 0.45737887E+03</pdfrwt>
<totfact> 0.66070324E+04</totfact>
</mgrwt>
</event>
<event>
 7    0  0.4737014E-002  0.4556823E+03  0.7546771E-02  0.1026041E+00
         21   -1    0    0  502  501  0.00000000000E+00  0.00000000000E+00  0.64641770535E+03  0.64641770535E+03  0.00000000000E+00 0. -1.
         21   -1    0    0  501  502 -0.00000000000E+00 -0.00000000000E+00 -0.80306554003E+02  0.80306554003E+02  0.00000000000E+00 0. -1.
      99926    2    1    2    0    0  0.00000000000E+00  0.00000000000E+00  0.56611115135E+03  0.72672425936E+03  0.45568225054E+03 0.  0.
      99925    2    3    3    0    0  0.23042040617E+02 -0.48394316153E+02  0.51619090148E+03  0.58176742123E+03  0.26292078686E+03 0.  0.
         25    1    4    4    0    0  0.57087567836E+00  0.14527969402E+02  0.22375353128E+03  0.25675774312E+03  0.12509000000E+03 0.  0.
         25    1    4    4    0    0  0.22471164939E+02 -0.62922285554E+02  0.29243737021E+03  0.32500967811E+03  0.12509000000E+03 0.  0.
         25    1    3    3    0    0 -0.23042040617E+02  0.48394316153E+02  0.49920249867E+02  0.14495683812E+03  0.12509000000E+03 0.  0.
<mgrwt>
<rscale>  2 0.45568225E+03</rscale>
<asrwt>0</asrwt>
<pdfrwt beam="1">  1       21 0.95061425E-01 0.45568225E+03</pdfrwt>
<pdfrwt beam="2">  1       21 0.11809788E-01 0.45568225E+03</pdfrwt>
<totfact> 0.51200685E+04</totfact>
</mgrwt>
</event>
<event>
 7    0  0.4737014E-002  0.4510538E+03  0.7546771E-02  0.1027408E+00
         21   -1    0    0  502  501  0.00000000000E+00  0.00000000000E+00  0.22343701071E+03  0.22343701071E+03  0.00000000000E+00 0.  1.
         21   -1    0    0  501  502 -0.00000000000E+00 -0.00000000000E+00 -0.22763632887E+03  0.22763632887E+03  0.00000000000E+00 0.  1.
      99926    2    1    2    0    0  0.00000000000E+00  0.00000000000E+00 -0.41993181572E+01  0.45107333958E+03  0.45105379215E+03 0.  0.
      99925    2    3    3    0    0  0.26508954855E+02  0.93463874243E+02  0.47700446828E+02  0.28440206377E+03  0.26300376570E+03 0.  0.
         25    1    3    3    0    0 -0.26508954855E+02 -0.93463874243E+02 -0.51899764985E+02  0.16667127581E+03  0.12509000000E+03 0.  0.
         25    1    4    4    0    0  0.24094045225E+02  0.61203237226E+02 -0.12459930198E+02  0.14187712015E+03  0.12509000000E+03 0.  0.
         25    1    4    4    0    0  0.24149096304E+01  0.32260637017E+02  0.60160377026E+02  0.14252494362E+03  0.12509000000E+03 0.  0.
<mgrwt>
<rscale>  2 0.45105379E+03</rscale>
<asrwt>0</asrwt>
<pdfrwt beam="1">  1       21 0.32858384E-01 0.45105379E+03</pdfrwt>
<pdfrwt beam="2">  1       21 0.33475931E-01 0.45105379E+03</pdfrwt>
<totfact> 0.71045176E+04</totfact>
</mgrwt>
</event>
<event>
 7    0  0.4737014E-002  0.4640566E+03  0.7546771E-02  0.1023611E+00
         21   -1    0    0  502  501  0.00000000000E+00  0.00000000000E+00  0.10284402257E+03  0.10284402257E+03  0.00000000000E+00 0. -1.
         21   -1    0    0  501  502 -0.00000000000E+00 -0.00000000000E+00 -0.52348332048E+03  0.52348332048E+03  0.00000000000E+00 0. -1.
      99926    2    1    2    0    0  0.14210854715E-13  0.17763568394E-14 -0.42063929791E+03  0.62632734305E+03  0.46405659322E+03 0.  0.
      99925    2    3    3    0    0  0.12010556843E+03  0.15186025115E+02 -0.27802875879E+03  0.40129126395E+03  0.26282831827E+03 0.  0.
         25    1    4    4    0    0  0.46471709858E+02  0.41326702124E+02 -0.11069750334E+03  0.17823849604E+03  0.12509000000E+03 0.  0.
         25    1    4    4    0    0  0.73633858577E+02 -0.26140677009E+02 -0.16733125545E+03  0.22305276791E+03  0.12509000000E+03 0.  0.
         25    1    3    3    0    0 -0.12010556843E+03 -0.15186025115E+02 -0.14261053912E+03  0.22503607910E+03  0.12509000000E+03 0.  0.
<mgrwt>
<rscale>  2 0.46405659E+03</rscale>
<asrwt>0</asrwt>
<pdfrwt beam="1">  1       21 0.15124121E-01 0.46405659E+03</pdfrwt>
<pdfrwt beam="2">  1       21 0.76982841E-01 0.46405659E+03</pdfrwt>
<totfact> 0.53180359E+04</totfact>
</mgrwt>
</event>
<event>
 7    0  0.4737014E-002  0.4728295E+03  0.7546771E-02  0.1021125E+00
         21   -1    0    0  502  501  0.00000000000E+00  0.00000000000E+00  0.19213352980E+03  0.19213352980E+03  0.00000000000E+00 0. -1.
         21   -1    0    0  501  502 -0.00000000000E+00 -0.00000000000E+00 -0.29090155200E+03  0.29090155200E+03  0.00000000000E+00 0. -1.
      99926    2    1    2    0    0  0.00000000000E+00 -0.17763568394E-14 -0.98768022195E+02  0.48303508180E+03  0.47282953381E+03 0.  0.
      99925    2    3    3    0    0 -0.88241288811E+02 -0.13209596028E+02  0.34136712196E+02  0.27987948871E+03  0.26307070267E+03 0.  0.
         25    1    3    3    0    0  0.88241288811E+02  0.13209596028E+02 -0.13290473439E+03  0.20315559308E+03  0.12509000000E+03 0.  0.
         25    1    4    4    0    0 -0.45532750372E+02 -0.13049889957E+02  0.57601300816E+02  0.14563292533E+03  0.12509000000E+03 0.  0.
         25    1    4    4    0    0 -0.42708538438E+02 -0.15970607041E+00 -0.23464588620E+02  0.13424656339E+03  0.12509000000E+03 0.  0.
<mgrwt>
<rscale>  2 0.47282953E+03</rscale>
<asrwt>0</asrwt>
<pdfrwt beam="1">  1       21 0.28254931E-01 0.47282953E+03</pdfrwt>
<pdfrwt beam="2">  1       21 0.42779640E-01 0.47282953E+03</pdfrwt>
<totfact> 0.57848255E+04</totfact>
</mgrwt>
</event>
<event>
 6    0  0.4737014E-002  0.4490169E+03  0.7546771E-02  0.1028016E+00
         21   -1    0    0  502  501  0.00000000000E+00  0.00000000000E+00  0.25744504341E+04  0.25744504341E+04  0.00000000000E+00 0.  1.
         21   -1    0    0  501  502 -0.00000000000E+00 -0.00000000000E+00 -0.19578561700E+02  0.19578561700E+02  0.00000000000E+00 0.  1.
      99926    2    1    2    0    0  0.35527136788E-14  0.00000000000E+00  0.25548718724E+04  0.25940289958E+04  0.44901686679E+03 0.  0.
         25    1    3    3    0    0 -0.26222948495E+02  0.43609221901E+02  0.15024783198E+04  0.15085350565E+04  0.12509000000E+03 0.  0.
         25    1    3    3    0    0  0.41123541765E+02 -0.15315044693E+02  0.43528068908E+03  0.45501921132E+03  0.12509000000E+03 0.  0.
         25    1    3    3    0    0 -0.14900593270E+02 -0.28294177208E+02  0.61711286354E+03  0.63047472795E+03  0.12509000000E+03 0.  0.
<mgrwt>
<rscale>  2 0.44901687E+03</rscale>
<asrwt>0</asrwt>
<pdfrwt beam="1">  1       21 0.37859542E+00 0.44901687E+03</pdfrwt>
<pdfrwt beam="2">  1       21 0.28792020E-02 0.44901687E+03</pdfrwt>
<totfact> 0.65147000E+03</totfact>
</mgrwt>
</event>
<event>
 7    0  0.4737014E-002  0.4459226E+03  0.7546771E-02  0.1028945E+00
         21   -1    0    0  502  501  0.00000000000E+00  0.00000000000E+00  0.41436471012E+03  0.41436471012E+03  0.00000000000E+00 0.  1.
         21   -1    0    0  501  502 -0.00000000000E+00 -0.00000000000E+00 -0.11997099728E+03  0.11997099728E+03  0.00000000000E+00 0.  1.
      99926    2    1    2    0    0 -0.17763568394E-14  0.00000000000E+00  0.29439371284E+03  0.53433570740E+03  0.44592262787E+03 0.  0.
      99925    2    3    3    0    0 -0.11145521909E+02  0.10131557181E+03  0.21394488777E+03  0.35403432276E+03  0.26301866652E+03 0.  0.
         25    1    4    4    0    0 -0.23842671181E+02  0.86593593687E+02  0.99218021297E+02  0.18319019430E+03  0.12509000000E+03 0.  0.
         25    1    4    4    0    0  0.12697149272E+02  0.14721978125E+02  0.11472686647E+03  0.17084412846E+03  0.12509000000E+03 0.  0.
         25    1    3    3    0    0  0.11145521909E+02 -0.10131557181E+03  0.80448825071E+02  0.18030138465E+03  0.12509000000E+03 0.  0.
<mgrwt>
<rscale>  2 0.44592263E+03</rscale>
<asrwt>0</asrwt>
<pdfrwt beam="1">  1       21 0.60935986E-01 0.44592263E+03</pdfrwt>
<pdfrwt beam="2">  1       21 0.17642794E-01 0.44592263E+03</pdfrwt>
<totfact> 0.67644238E+04</totfact>
</mgrwt>
</event>
<event>
 7    0  0.4737014E-002  0.4540981E+03  0.7546771E-02  0.1026507E+00
         21   -1    0    0  502  501  0.00000000000E+00  0.00000000000E+00  0.46027907113E+03  0.46027907113E+03  0.00000000000E+00 0. -1.
         21   -1    0    0  501  502 -0.00000000000E+00 -0.00000000000E+00 -0.11200001018E+03  0.11200001018E+03  0.00000000000E+00 0. -1.
      99926    2    1    2    0    0  0.00000000000E+00  0.00000000000E+00  0.34827906095E+03  0.57227908131E+03  0.45409805396E+03 0.  0.
      99925    2    3    3    0    0  0.82566888610E+02  0.23732329765E+02  0.12803407302E+03  0.30481716369E+03  0.26294536477E+03 0.  0.
         25    1    3    3    0    0 -0.82566888610E+02 -0.23732329765E+02  0.22024498793E+03  0.26746191762E+03  0.12509000000E+03 0.  0.
         25    1    4    4    0    0  0.56405395525E+02 -0.14004523893E+02  0.35005233730E+02  0.14230449684E+03  0.12509000000E+03 0.  0.
         25    1    4    4    0    0  0.26161493085E+02  0.37736853658E+02  0.93028839292E+02  0.16251266684E+03  0.12509000000E+03 0.  0.
<mgrwt>
<rscale>  2 0.45409805E+03</rscale>
<asrwt>0</asrwt>
<pdfrwt beam="1">  1       21 0.67688098E-01 0.45409805E+03</pdfrwt>
<pdfrwt beam="2">  1       21 0.16470590E-01 0.45409805E+03</pdfrwt>
<totfact> 0.60850680E+04</totfact>
</mgrwt>
</event>
<event>
 7    0  0.4737014E-002  0.4603482E+03  0.7546771E-02  0.1024680E+00
         21   -1    0    0  502  501  0.00000000000E+00  0.00000000000E+00  0.27745922954E+02  0.27745922954E+02  0.00000000000E+00 0. -1.
         21   -1    0    0  501  502 -0.00000000000E+00 -0.00000000000E+00 -0.19094737662E+04  0.19094737662E+04  0.00000000000E+00 0. -1.
      99926    2    1    2    0    0 -0.22204460493E-15  0.00000000000E+00 -0.18817278433E+04  0.19372196892E+04  0.46034818127E+03 0.  0.
      99925    2    3    3    0    0  0.94755212990E+00 -0.36548896476E+02 -0.16513152233E+04  0.16725043643E+04  0.26285387991E+03 0.  0.
         25    1    4    4    0    0  0.62254231428E+01  0.11546278780E+02 -0.63113981092E+03  0.64355034106E+03  0.12509000000E+03 0.  0.
         25    1    3    3    0    0 -0.94755212990E+00  0.36548896476E+02 -0.23041261998E+03  0.26471532490E+03  0.12509000000E+03 0.  0.
         25    1    4    4    0    0 -0.52778710129E+01 -0.48095175257E+02 -0.10201754124E+04  0.10289540232E+04  0.12509000000E+03 0.  0.
<mgrwt>
<rscale>  2 0.46034818E+03</rscale>
<asrwt>0</asrwt>
<pdfrwt beam="1">  1       21 0.40802814E-02 0.46034818E+03</pdfrwt>
<pdfrwt beam="2">  1       21 0.28080506E+00 0.46034818E+03</pdfrwt>
<totfact> 0.14164913E+04</totfact>
</mgrwt>
</event>
<event>
 7    0  0.4737014E-002  0.4592836E+03  0.7546771E-02  0.1024989E+00
         21   -1    0    0  502  501  0.00000000000E+00  0.00000000000E+00  0.27344263470E+02  0.27344263470E+02  0.00000000000E+00 0. -1.
         21   -1    0    0  501  502 -0.00000000000E+00 -0.00000000000E+00 -0.19285712616E+04  0.19285712616E+04  0.00000000000E+00 0. -1.
      99926    2    1    2    0    0  0.14210854715E-13  0.14210854715E-13 -0.19012269981E+04  0.19559155250E+04  0.45928361912E+03 0.  0.
      99925    2    3    3    0    0  0.76970287617E+02  0.85392948466E+02 -0.10965194810E+04  0.11334691274E+04  0.26302264108E+03 0.  0.
         25    1    4    4    0    0  0.10619989861E+02  0.43102819808E+02 -0.64028209856E+03  0.65389548943E+03  0.12509000000E+03 0.  0.
         25    1    4    4    0    0  0.66350297757E+02  0.42290128659E+02 -0.45623738239E+03  0.47957363792E+03  0.12509000000E+03 0.  0.
         25    1    3    3    0    0 -0.76970287617E+02 -0.85392948466E+02 -0.80470751714E+03  0.82244639769E+03  0.12509000000E+03 0.  0.
<mgrwt>
<rscale>  2 0.45928362E+03</rscale>
<asrwt>0</asrwt>
<pdfrwt beam="1">  1       21 0.40212157E-02 0.45928362E+03</pdfrwt>
<pdfrwt beam="2">  1       21 0.28361339E+00 0.45928362E+03</pdfrwt>
<totfact> 0.13972893E+04</totfact>
</mgrwt>
</event>
<event>
 7    0  0.4737014E-002  0.4520253E+03  0.7546771E-02  0.1027120E+00
         21   -1    0    0  502  501  0.00000000000E+00  0.00000000000E+00  0.31657883594E+03  0.31657883594E+03  0.00000000000E+00 0. -1.
         21   -1    0    0  501  502 -0.00000000000E+00 -0.00000000000E+00 -0.16135545558E+03  0.16135545558E+03  0.00000000000E+00 0. -1.
      99926    2    1    2    0    0  0.00000000000E+00  0.00000000000E+00  0.15522338036E+03  0.47793429152E+03  0.45202531921E+03 0.  0.
      99925    2    3    3    0    0  0.95734316604E+02 -0.41467556433E+02  0.60891836873E+02  0.28970420411E+03  0.26331747467E+03 0.  0.
         25    1    3    3    0    0 -0.95734316604E+02  0.41467556433E+02  0.94331543483E+02  0.18823008741E+03  0.12509000000E+03 0.  0.
         25    1    4    4    0    0  0.86561318065E+02 -0.34315838925E+02  0.49259121515E+02  0.16353717540E+03  0.12509000000E+03 0.  0.
         25    1    4    4    0    0  0.91729985388E+01 -0.71517175083E+01  0.11632715358E+02  0.12616702870E+03  0.12509000000E+03 0.  0.
<mgrwt>
<rscale>  2 0.45202532E+03</rscale>
<asrwt>0</asrwt>
<pdfrwt beam="1">  1       21 0.46555711E-01 0.45202532E+03</pdfrwt>
<pdfrwt beam="2">  1       21 0.23728743E-01 0.45202532E+03</pdfrwt>
<totfact> 0.68452797E+04</totfact>
</mgrwt>
</event>
<event>
 7    0  0.4737014E-002  0.4520031E+03  0.7546771E-02  0.1027126E+00
         21   -1    0    0  502  501  0.00000000000E+00  0.00000000000E+00  0.33723214739E+04  0.33723214739E+04  0.00000000000E+00 0.  1.
         21   -1    0    0  501  502 -0.00000000000E+00 -0.00000000000E+00 -0.15145857373E+02  0.15145857373E+02  0.00000000000E+00 0.  1.
      99926    2    1    2    0    0  0.00000000000E+00  0.00000000000E+00  0.33571756165E+04  0.33874673313E+04  0.45200309760E+03 0.  0.
      99925    2    3    3    0    0 -0.10118658595E+03  0.37973449378E+02  0.19467296735E+04  0.19673666396E+04  0.26285807028E+03 0.  0.
         25    1    4    4    0    0 -0.92421156214E+02  0.31204580072E+02  0.10828190417E+04  0.10943765262E+04  0.12509000000E+03 0.  0.
         25    1    3    3    0    0  0.10118658595E+03 -0.37973449378E+02  0.14104459430E+04  0.14201006916E+04  0.12509000000E+03 0.  0.
         25    1    4    4    0    0 -0.87654297325E+01  0.67688693058E+01  0.86391063179E+03  0.87299011344E+03  0.12509000000E+03 0.  0.
<mgrwt>
<rscale>  2 0.45200310E+03</rscale>
<asrwt>0</asrwt>
<pdfrwt beam="1">  1       21 0.49592911E+00 0.45200310E+03</pdfrwt>
<pdfrwt beam="2">  1       21 0.22273343E-02 0.45200310E+03</pdfrwt>
<totfact> 0.16424527E+03</totfact>
</mgrwt>
</event>
<event>
 7    0  0.4737014E-002  0.4482129E+03  0.7546771E-02  0.1028256E+00
         21   -1    0    0  502  501  0.00000000000E+00  0.00000000000E+00  0.76316427255E+02  0.76316427255E+02  0.00000000000E+00 0. -1.
         21   -1    0    0  501  502 -0.00000000000E+00 -0.00000000000E+00 -0.65809816258E+03  0.65809816258E+03  0.00000000000E+00 0. -1.
      99926    2    1    2    0    0  0.00000000000E+00  0.00000000000E+00 -0.58178173533E+03  0.73441458984E+03  0.44821289830E+03 0.  0.
      99925    2    3    3    0    0 -0.54049729466E+02 -0.75589667458E+02 -0.28269564965E+03  0.39716814312E+03  0.26304093311E+03 0.  0.
         25    1    4    4    0    0 -0.51426475284E+02 -0.54132571056E+02 -0.19265498856E+03  0.24153358012E+03  0.12509000000E+03 0.  0.
         25    1    4    4    0    0 -0.26232541825E+01 -0.21457096402E+02 -0.90040661093E+02  0.15563456299E+03  0.12509000000E+03 0.  0.
         25    1    3    3    0    0  0.54049729466E+02  0.75589667458E+02 -0.29908608567E+03  0.33724644672E+03  0.12509000000E+03 0.  0.
<mgrwt>
<rscale>  2 0.44821290E+03</rscale>
<asrwt>0</asrwt>
<pdfrwt beam="1">  1       21 0.11223003E-01 0.44821290E+03</pdfrwt>
<pdfrwt beam="2">  1       21 0.96779147E-01 0.44821290E+03</pdfrwt>
<totfact> 0.53892868E+04</totfact>
</mgrwt>
</event>
<event>
 7    0  0.4737014E-002  0.4598441E+03  0.7546771E-02  0.1024826E+00
         21   -1    0    0  502  501  0.00000000000E+00  0.00000000000E+00  0.59136129957E+02  0.59136129957E+02  0.00000000000E+00 0. -1.
         21   -1    0    0  501  502 -0.00000000000E+00 -0.00000000000E+00 -0.89393990754E+03  0.89393990754E+03  0.00000000000E+00 0. -1.
      99926    2    1    2    0    0  0.71054273576E-14  0.00000000000E+00 -0.83480377759E+03  0.95307603750E+03  0.45984408900E+03 0.  0.
      99925    2    3    3    0    0 -0.59845509968E+02  0.93063452999E+02 -0.44023731886E+03  0.52462243465E+03  0.26301617948E+03 0.  0.
         25    1    4    4    0    0 -0.43588875145E-01  0.66330447361E+02 -0.25540147677E+03  0.29202252068E+03  0.12509000000E+03 0.  0.
         25    1    3    3    0    0  0.59845509968E+02 -0.93063452999E+02 -0.39456645872E+03  0.42845360285E+03  0.12509000000E+03 0.  0.
         25    1    4    4    0    0 -0.59801921093E+02  0.26733005638E+02 -0.18483584209E+03  0.23259991397E+03  0.12509000000E+03 0.  0.
<mgrwt>
<rscale>  2 0.45984409E+03</rscale>
<asrwt>0</asrwt>
<pdfrwt beam="1">  1       21 0.86964906E-02 0.45984409E+03</pdfrwt>
<pdfrwt beam="2">  1       21 0.13146174E+00 0.45984409E+03</pdfrwt>
<totfact> 0.39498975E+04</totfact>
</mgrwt>
</event>
<event>
 7    0  0.4737014E-002  0.4558802E+03  0.7546771E-02  0.1025983E+00
         21   -1    0    0  502  501  0.00000000000E+00  0.00000000000E+00  0.27665376598E+03  0.27665376598E+03  0.00000000000E+00 0. -1.
         21   -1    0    0  501  502 -0.00000000000E+00 -0.00000000000E+00 -0.18780399610E+03  0.18780399610E+03  0.00000000000E+00 0. -1.
      99926    2    1    2    0    0  0.00000000000E+00  0.71054273576E-14  0.88849769877E+02  0.46445776208E+03  0.45588017192E+03 0.  0.
      99925    2    3    3    0    0  0.10125406578E+03  0.52542061449E+02  0.55758548477E+02  0.29195967197E+03  0.26290374716E+03 0.  0.
         25    1    3    3    0    0 -0.10125406578E+03 -0.52542061449E+02  0.33091221400E+02  0.17249809011E+03  0.12509000000E+03 0.  0.
         25    1    4    4    0    0  0.41213694353E+02  0.47459965481E+02 -0.57204543031E+01  0.14011155778E+03  0.12509000000E+03 0.  0.
         25    1    4    4    0    0  0.60040371423E+02  0.50820959681E+01  0.61479002780E+02  0.15184811419E+03  0.12509000000E+03 0.  0.
<mgrwt>
<rscale>  2 0.45588017E+03</rscale>
<asrwt>0</asrwt>
<pdfrwt beam="1">  1       21 0.40684377E-01 0.45588017E+03</pdfrwt>
<pdfrwt beam="2">  1       21 0.27618235E-01 0.45588017E+03</pdfrwt>
<totfact> 0.67377815E+04</totfact>
</mgrwt>
</event>
<event>
 7    0  0.4737014E-002  0.4586106E+03  0.7546771E-02  0.1025185E+00
         21   -1    0    0  502  501  0.00000000000E+00  0.00000000000E+00  0.12763755277E+04  0.12763755277E+04  0.00000000000E+00 0.  1.
         21   -1    0    0  501  502 -0.00000000000E+00 -0.00000000000E+00 -0.41195489002E+02  0.41195489002E+02  0.00000000000E+00 0.  1.
      99926    2    1    2    0    0  0.00000000000E+00  0.00000000000E+00  0.12351800387E+04  0.13175710167E+04  0.45861057124E+03 0.  0.
      99925    2    3    3    0    0 -0.57605996769E+02 -0.20582145846E+02  0.49760466806E+03  0.56696658622E+03  0.26476145607E+03 0.  0.
         25    1    3    3    0    0  0.57605996769E+02  0.20582145846E+02  0.73757537063E+03  0.75060443048E+03  0.12509000000E+03 0.  0.
         25    1    4    4    0    0 -0.70807501047E+02 -0.21810746750E+02  0.28485497719E+03  0.31981131470E+03  0.12509000000E+03 0.  0.
         25    1    4    4    0    0  0.13201504277E+02  0.12286009041E+01  0.21274969087E+03  0.24715527152E+03  0.12509000000E+03 0.  0.
<mgrwt>
<rscale>  2 0.45861057E+03</rscale>
<asrwt>0</asrwt>
<pdfrwt beam="1">  1       21 0.18770226E+00 0.45861057E+03</pdfrwt>
<pdfrwt beam="2">  1       21 0.60581610E-02 0.45861057E+03</pdfrwt>
<totfact> 0.27819343E+04</totfact>
</mgrwt>
</event>
<event>
 7    0  0.4737014E-002  0.4458736E+03  0.7546771E-02  0.1028960E+00
         21   -1    0    0  502  501  0.00000000000E+00  0.00000000000E+00  0.10205282080E+03  0.10205282080E+03  0.00000000000E+00 0.  1.
         21   -1    0    0  501  502 -0.00000000000E+00 -0.00000000000E+00 -0.48701068715E+03  0.48701068715E+03  0.00000000000E+00 0.  1.
      99926    2    1    2    0    0 -0.14210854715E-13  0.71054273576E-14 -0.38495786635E+03  0.58906350794E+03  0.44587358917E+03 0.  0.
      99925    2    3    3    0    0  0.88273949055E+02 -0.35938340073E+02 -0.30031225089E+03  0.41046831572E+03  0.26308351488E+03 0.  0.
         25    1    3    3    0    0 -0.88273949055E+02  0.35938340073E+02 -0.84645615456E+02  0.17859519222E+03  0.12509000000E+03 0.  0.
         25    1    4    4    0    0  0.27140877024E+02  0.20322244335E+02 -0.14280528089E+03  0.19284832686E+03  0.12509000000E+03 0.  0.
         25    1    4    4    0    0  0.61133072031E+02 -0.56260584408E+02 -0.15750697000E+03  0.21761998886E+03  0.12509000000E+03 0.  0.
<mgrwt>
<rscale>  2 0.44587359E+03</rscale>
<asrwt>0</asrwt>
<pdfrwt beam="1">  1       21 0.15007768E-01 0.44587359E+03</pdfrwt>
<pdfrwt beam="2">  1       21 0.71619220E-01 0.44587359E+03</pdfrwt>
<totfact> 0.63838070E+04</totfact>
</mgrwt>
</event>
<event>
 7    0  0.4737014E-002  0.4666102E+03  0.7546771E-02  0.1022881E+00
         21   -1    0    0  502  501  0.00000000000E+00  0.00000000000E+00  0.36764596205E+03  0.36764596205E+03  0.00000000000E+00 0.  1.
         21   -1    0    0  501  502 -0.00000000000E+00 -0.00000000000E+00 -0.14805350385E+03  0.14805350385E+03  0.00000000000E+00 0.  1.
      99926    2    1    2    0    0  0.71054273576E-14  0.00000000000E+00  0.21959245820E+03  0.51569946590E+03  0.46661021360E+03 0.  0.
      99925    2    3    3    0    0 -0.57588679604E+02  0.26154238270E+01  0.15894672337E+02  0.26980600823E+03  0.26309569553E+03 0.  0.
         25    1    4    4    0    0 -0.33566411965E+02 -0.11900443360E+02  0.46288148631E+02  0.13805225593E+03  0.12509000000E+03 0.  0.
         25    1    4    4    0    0 -0.24022267639E+02  0.14515867187E+02 -0.30393476293E+02  0.13175375230E+03  0.12509000000E+03 0.  0.
         25    1    3    3    0    0  0.57588679604E+02 -0.26154238270E+01  0.20369778587E+03  0.24589345768E+03  0.12509000000E+03 0.  0.
<mgrwt>
<rscale>  2 0.46661021E+03</rscale>
<asrwt>0</asrwt>
<pdfrwt beam="1">  1       21 0.54065583E-01 0.46661021E+03</pdfrwt>
<pdfrwt beam="2">  1       21 0.21772574E-01 0.46661021E+03</pdfrwt>
<totfact> 0.58593194E+04</totfact>
</mgrwt>
</event>
<event>
 7    0  0.4737014E-002  0.4575794E+03  0.7546771E-02  0.1025486E+00
         21   -1    0    0  502  501  0.00000000000E+00  0.00000000000E+00  0.56483784292E+02  0.56483784292E+02  0.00000000000E+00 0.  1.
         21   -1    0    0  501  502 -0.00000000000E+00 -0.00000000000E+00 -0.92672136411E+03  0.92672136411E+03  0.00000000000E+00 0.  1.
      99926    2    1    2    0    0  0.00000000000E+00  0.00000000000E+00 -0.87023757981E+03  0.98320514840E+03  0.45757941225E+03 0.  0.
      99925    2    3    3    0    0  0.86221289556E+02  0.69431464730E+02 -0.61517402178E+03  0.67831210846E+03  0.26346422972E+03 0.  0.
         25    1    4    4    0    0  0.69805334675E+02  0.12696660759E+02 -0.36731053704E+03  0.39445979347E+03  0.12509000000E+03 0.  0.
         25    1    3    3    0    0 -0.86221289556E+02 -0.69431464730E+02 -0.25506355804E+03  0.30489303994E+03  0.12509000000E+03 0.  0.
         25    1    4    4    0    0  0.16415954881E+02  0.56734803971E+02 -0.24786348473E+03  0.28385231498E+03  0.12509000000E+03 0.  0.
<mgrwt>
<rscale>  2 0.45757941E+03</rscale>
<asrwt>0</asrwt>
<pdfrwt beam="1">  1       21 0.83064403E-02 0.45757941E+03</pdfrwt>
<pdfrwt beam="2">  1       21 0.13628253E+00 0.45757941E+03</pdfrwt>
<totfact> 0.39031532E+04</totfact>
</mgrwt>
</event>
<event>
 7    0  0.4737014E-002  0.4556563E+03  0.7546771E-02  0.1026049E+00
         21   -1    0    0  502  501  0.00000000000E+00  0.00000000000E+00  0.64051481224E+03  0.64051481224E+03  0.00000000000E+00 0.  1.
         21   -1    0    0  501  502 -0.00000000000E+00 -0.00000000000E+00 -0.81037425920E+02  0.81037425920E+02  0.00000000000E+00 0.  1.
      99926    2    1    2    0    0  0.00000000000E+00  0.00000000000E+00  0.55947738632E+03  0.72155223816E+03  0.45565632508E+03 0.  0.
      99925    2    3    3    0    0 -0.10870995600E+03 -0.33243225916E+02  0.36010213833E+03  0.46016944566E+03  0.26298175238E+03 0.  0.
         25    1    4    4    0    0 -0.45286651550E+02 -0.54320516904E+02  0.16223522624E+03  0.21672419361E+03  0.12509000000E+03 0.  0.
         25    1    3    3    0    0  0.10870995600E+03  0.33243225916E+02  0.19937524799E+03  0.26138279250E+03  0.12509000000E+03 0.  0.
         25    1    4    4    0    0 -0.63423304452E+02  0.21077290989E+02  0.19786691210E+03  0.24344525205E+03  0.12509000000E+03 0.  0.
<mgrwt>
<rscale>  2 0.45565633E+03</rscale>
<asrwt>0</asrwt>
<pdfrwt beam="1">  1       21 0.94193352E-01 0.45565633E+03</pdfrwt>
<pdfrwt beam="2">  1       21 0.11917269E-01 0.45565633E+03</pdfrwt>
<totfact> 0.51482151E+04</totfact>
</mgrwt>
</event>
<event>
 7    0  0.4737014E-002  0.4565689E+03  0.7546771E-02  0.1025781E+00
         21   -1    0    0  502  501  0.00000000000E+00  0.00000000000E+00  0.20407026712E+03  0.20407026712E+03  0.00000000000E+00 0.  1.
         21   -1    0    0  501  502 -0.00000000000E+00 -0.00000000000E+00 -0.25537183807E+03  0.25537183807E+03  0.00000000000E+00 0.  1.
      99926    2    1    2    0    0  0.00000000000E+00  0.00000000000E+00 -0.51301570956E+02  0.45944210519E+03  0.45656893985E+03 0.  0.
      99925    2    3    3    0    0 -0.10868673140E+03 -0.19701885603E+02 -0.15577603318E+01  0.28530731638E+03  0.26305297619E+03 0.  0.
         25    1    3    3    0    0  0.10868673140E+03  0.19701885603E+02 -0.49743810625E+02  0.17413478881E+03  0.12509000000E+03 0.  0.
         25    1    4    4    0    0 -0.20218014617E+02  0.16033517412E+02  0.52883513639E+01  0.12783315906E+03  0.12509000000E+03 0.  0.
         25    1    4    4    0    0 -0.88468716782E+02 -0.35735403015E+02 -0.68461116957E+01  0.15747415732E+03  0.12509000000E+03 0.  0.
<mgrwt>
<rscale>  2 0.45656894E+03</rscale>
<asrwt>0</asrwt>
<pdfrwt beam="1">  1       21 0.30010334E-01 0.45656894E+03</pdfrwt>
<pdfrwt beam="2">  1       21 0.37554682E-01 0.45656894E+03</pdfrwt>
<totfact> 0.67374188E+04</totfact>
</mgrwt>
</event>
<event>
 7    0  0.4737014E-002  0.4481393E+03  0.7546771E-02  0.1028278E+00
         21   -1    0    0  502  501  0.00000000000E+00  0.00000000000E+00  0.75361875943E+02  0.75361875943E+02  0.00000000000E+00 0. -1.
         21   -1    0    0  501  502 -0.00000000000E+00 -0.00000000000E+00 -0.66621482041E+03  0.66621482041E+03  0.00000000000E+00 0. -1.
      99926    2    1    2    0    0  0.00000000000E+00 -0.14210854715E-13 -0.59085294447E+03  0.74157669636E+03  0.44813925803E+03 0.  0.
      99925    2    3    3    0    0  0.48660278954E+02  0.65616455465E+02 -0.26105583638E+03  0.37951733302E+03  0.26307777249E+03 0.  0.
         25    1    4    4    0    0  0.23249460926E+02  0.44617365520E+02 -0.79278041929E+02  0.15640896001E+03  0.12509000000E+03 0.  0.
         25    1    4    4    0    0  0.25410818027E+02  0.20999089946E+02 -0.18177779445E+03  0.22310837301E+03  0.12509000000E+03 0.  0.
         25    1    3    3    0    0 -0.48660278954E+02 -0.65616455465E+02 -0.32979710809E+03  0.36205936334E+03  0.12509000000E+03 0.  0.
<mgrwt>
<rscale>  2 0.44813926E+03</rscale>
<asrwt>0</asrwt>
<pdfrwt beam="1">  1       21 0.11082629E-01 0.44813926E+03</pdfrwt>
<pdfrwt beam="2">  1       21 0.97972766E-01 0.44813926E+03</pdfrwt>
<totfact> 0.53532326E+04</totfact>
</mgrwt>
</event>
<event>
 7    0  0.4737014E-002  0.4517094E+03  0.7546771E-02  0.1027213E+00
         21   -1    0    0  502  501  0.00000000000E+00  0.00000000000E+00  0.18422512640E+03  0.18422512640E+03  0.00000000000E+00 0.  1.
         21   -1    0    0  501  502 -0.00000000000E+00 -0.00000000000E+00 -0.27689140829E+03  0.27689140829E+03  0.00000000000E+00 0.  1.
      99926    2    1    2    0    0  0.00000000000E+00  0.00000000000E+00 -0.92666281893E+02  0.46111653469E+03  0.45170944065E+03 0.  0.
      99925    2    3    3    0    0 -0.78758143624E+02 -0.71608753097E+02 -0.86987281875E+02  0.29676807000E+03  0.26300920413E+03 0.  0.
         25    1    4    4    0    0 -0.80054716683E+02 -0.44266967693E+02 -0.58074516052E+02  0.16549465129E+03  0.12509000000E+03 0.  0.
         25    1    4    4    0    0  0.12965730592E+01 -0.27341785404E+02 -0.28912765823E+02  0.13127341870E+03  0.12509000000E+03 0.  0.
         25    1    3    3    0    0  0.78758143624E+02  0.71608753097E+02 -0.56790000174E+01  0.16434846470E+03  0.12509000000E+03 0.  0.
<mgrwt>
<rscale>  2 0.45170944E+03</rscale>
<asrwt>0</asrwt>
<pdfrwt beam="1">  1       21 0.27091931E-01 0.45170944E+03</pdfrwt>
<pdfrwt beam="2">  1       21 0.40719324E-01 0.45170944E+03</pdfrwt>
<totfact> 0.69909945E+04</totfact>
</mgrwt>
</event>
<event>
 7    0  0.4737014E-002  0.4565436E+03  0.7546771E-02  0.1025788E+00
         21   -1    0    0  502  501  0.00000000000E+00  0.00000000000E+00  0.56637156445E+02  0.56637156445E+02  0.00000000000E+00 0.  1.
         21   -1    0    0  501  502 -0.00000000000E+00 -0.00000000000E+00 -0.92003228627E+03  0.92003228627E+03  0.00000000000E+00 0.  1.
      99926    2    1    2    0    0  0.00000000000E+00  0.00000000000E+00 -0.86339512982E+03  0.97666944271E+03  0.45654359061E+03 0.  0.
      99925    2    3    3    0    0 -0.77840689509E+02 -0.84036246970E+02 -0.53340319366E+03  0.60563918818E+03  0.26298021884E+03 0.  0.
         25    1    3    3    0    0  0.77840689509E+02  0.84036246970E+02 -0.32999193616E+03  0.37103025453E+03  0.12509000000E+03 0.  0.
         25    1    4    4    0    0 -0.63646602330E+02 -0.10505082851E+02 -0.27602338238E+03  0.30983489551E+03  0.12509000000E+03 0.  0.
         25    1    4    4    0    0 -0.14194087179E+02 -0.73531164119E+02 -0.25737981128E+03  0.29580429267E+03  0.12509000000E+03 0.  0.
<mgrwt>
<rscale>  2 0.45654359E+03</rscale>
<asrwt>0</asrwt>
<pdfrwt beam="1">  1       21 0.83289943E-02 0.45654359E+03</pdfrwt>
<pdfrwt beam="2">  1       21 0.13529885E+00 0.45654359E+03</pdfrwt>
<totfact> 0.39599280E+04</totfact>
</mgrwt>
</event>
<event>
 7    0  0.4737014E-002  0.4497582E+03  0.7546771E-02  0.1027794E+00
         21   -1    0    0  502  501  0.00000000000E+00  0.00000000000E+00  0.45683406625E+03  0.45683406625E+03  0.00000000000E+00 0. -1.
         21   -1    0    0  501  502 -0.00000000000E+00 -0.00000000000E+00 -0.11069796908E+03  0.11069796908E+03  0.00000000000E+00 0. -1.
      99926    2    1    2    0    0  0.00000000000E+00  0.00000000000E+00  0.34613609718E+03  0.56753203533E+03  0.44975817208E+03 0.  0.
      99925    2    3    3    0    0  0.12299223548E+02 -0.17431343367E+02  0.35267274017E+03  0.44046764837E+03  0.26301818373E+03 0.  0.
         25    1    4    4    0    0  0.72362436855E+01 -0.48608719064E+02  0.19303849811E+03  0.23521594471E+03  0.12509000000E+03 0.  0.
         25    1    4    4    0    0  0.50629798621E+01  0.31177375697E+02  0.15963424206E+03  0.20525170367E+03  0.12509000000E+03 0.  0.
         25    1    3    3    0    0 -0.12299223548E+02  0.17431343367E+02 -0.65366429891E+01  0.12706438696E+03  0.12509000000E+03 0.  0.
<mgrwt>
<rscale>  2 0.44975817E+03</rscale>
<asrwt>0</asrwt>
<pdfrwt beam="1">  1       21 0.67181480E-01 0.44975817E+03</pdfrwt>
<pdfrwt beam="2">  1       21 0.16279113E-01 0.44975817E+03</pdfrwt>
<totfact> 0.63306380E+04</totfact>
</mgrwt>
</event>
<event>
 7    0  0.4737014E-002  0.4538391E+03  0.7546771E-02  0.1026583E+00
         21   -1    0    0  502  501  0.00000000000E+00  0.00000000000E+00  0.52417565116E+02  0.52417565116E+02  0.00000000000E+00 0. -1.
         21   -1    0    0  501  502 -0.00000000000E+00 -0.00000000000E+00 -0.98235181248E+03  0.98235181248E+03  0.00000000000E+00 0. -1.
      99926    2    1    2    0    0  0.00000000000E+00  0.00000000000E+00 -0.92993424736E+03  0.10347693776E+04  0.45383913492E+03 0.  0.
      99925    2    3    3    0    0  0.31717502883E+02  0.48998474006E+02 -0.80383302064E+03  0.84780446665E+03  0.26309321191E+03 0.  0.
         25    1    3    3    0    0 -0.31717502883E+02 -0.48998474006E+02 -0.12610122673E+03  0.18696491095E+03  0.12509000000E+03 0.  0.
         25    1    4    4    0    0  0.15479484878E+01 -0.31111327075E+00 -0.29037687698E+03  0.31617832266E+03  0.12509000000E+03 0.  0.
         25    1    4    4    0    0  0.30169554395E+02  0.49309587277E+02 -0.51345614366E+03  0.53162614398E+03  0.12509000000E+03 0.  0.
<mgrwt>
<rscale>  2 0.45383913E+03</rscale>
<asrwt>0</asrwt>
<pdfrwt beam="1">  1       21 0.77084662E-02 0.45383913E+03</pdfrwt>
<pdfrwt beam="2">  1       21 0.14446349E+00 0.45383913E+03</pdfrwt>
<totfact> 0.38186150E+04</totfact>
</mgrwt>
</event>
<event>
 7    0  0.4737014E-002  0.4526677E+03  0.7546771E-02  0.1026929E+00
         21   -1    0    0  502  501  0.00000000000E+00  0.00000000000E+00  0.36531186884E+03  0.36531186884E+03  0.00000000000E+00 0.  1.
         21   -1    0    0  501  502 -0.00000000000E+00 -0.00000000000E+00 -0.14022813881E+03  0.14022813881E+03  0.00000000000E+00 0.  1.
      99926    2    1    2    0    0  0.00000000000E+00 -0.13322676296E-14  0.22508373003E+03  0.50554000765E+03  0.45266766375E+03 0.  0.
      99925    2    3    3    0    0  0.83107475110E+02  0.23365537709E+01  0.22523329995E+03  0.35534066553E+03  0.26196304562E+03 0.  0.
         25    1    4    4    0    0  0.56453248535E+02  0.20188713024E+02  0.76661590912E+02  0.15848993982E+03  0.12509000000E+03 0.  0.
         25    1    4    4    0    0  0.26654226576E+02 -0.17852159253E+02  0.14857170904E+03  0.19685072570E+03  0.12509000000E+03 0.  0.
         25    1    3    3    0    0 -0.83107475110E+02 -0.23365537709E+01 -0.14956991459E+00  0.15019934212E+03  0.12509000000E+03 0.  0.
<mgrwt>
<rscale>  2 0.45266766E+03</rscale>
<asrwt>0</asrwt>
<pdfrwt beam="1">  1       21 0.53722333E-01 0.45266766E+03</pdfrwt>
<pdfrwt beam="2">  1       21 0.20621785E-01 0.45266766E+03</pdfrwt>
<totfact> 0.66098324E+04</totfact>
</mgrwt>
</event>
<event>
 7    0  0.4737014E-002  0.4599756E+03  0.7546771E-02  0.1024788E+00
         21   -1    0    0  502  501  0.00000000000E+00  0.00000000000E+00  0.12711106624E+03  0.12711106624E+03  0.00000000000E+00 0. -1.
         21   -1    0    0  501  502 -0.00000000000E+00 -0.00000000000E+00 -0.41612734386E+03  0.41612734386E+03  0.00000000000E+00 0. -1.
      99926    2    1    2    0    0  0.00000000000E+00 -0.71054273576E-14 -0.28901627762E+03  0.54323841010E+03  0.45997560966E+03 0.  0.
      99925    2    3    3    0    0 -0.77515917124E+02  0.56824237320E+02 -0.98161484102E+02  0.29562828983E+03  0.26176840419E+03 0.  0.
         25    1    4    4    0    0 -0.75548349458E+02  0.31979325121E+02 -0.36619490485E+02  0.15400884885E+03  0.12509000000E+03 0.  0.
         25    1    4    4    0    0 -0.19675676664E+01  0.24844912199E+02 -0.61541993617E+02  0.14161944098E+03  0.12509000000E+03 0.  0.
         25    1    3    3    0    0  0.77515917124E+02 -0.56824237320E+02 -0.19085479352E+03  0.24761012028E+03  0.12509000000E+03 0.  0.
<mgrwt>
<rscale>  2 0.45997561E+03</rscale>
<asrwt>0</asrwt>
<pdfrwt beam="1">  1       21 0.18692804E-01 0.45997561E+03</pdfrwt>
<pdfrwt beam="2">  1       21 0.61195197E-01 0.45997561E+03</pdfrwt>
<totfact> 0.59921136E+04</totfact>
</mgrwt>
</event>
<event>
 7    0  0.4737014E-002  0.4539579E+03  0.7546771E-02  0.1026548E+00
         21   -1    0    0  502  501  0.00000000000E+00  0.00000000000E+00  0.59531740938E+02  0.59531740938E+02  0.00000000000E+00 0.  1.
         21   -1    0    0  501  502 -0.00000000000E+00 -0.00000000000E+00 -0.86541124087E+03  0.86541124087E+03  0.00000000000E+00 0.  1.
      99926    2    1    2    0    0 -0.17763568394E-14  0.00000000000E+00 -0.80587949993E+03  0.92494298181E+03  0.45395787380E+03 0.  0.
      99925    2    3    3    0    0 -0.11079514668E+02  0.10175074128E+03 -0.41461822045E+03  0.50161230028E+03  0.26311720216E+03 0.  0.
         25    1    3    3    0    0  0.11079514668E+02 -0.10175074128E+03 -0.39126127948E+03  0.42333068153E+03  0.12509000000E+03 0.  0.
         25    1    4    4    0    0 -0.39292971241E+02  0.41492762526E+02 -0.16714342693E+03  0.21644865487E+03  0.12509000000E+03 0.  0.
         25    1    4    4    0    0  0.28213456573E+02  0.60257978757E+02 -0.24747479352E+03  0.28516364541E+03  0.12509000000E+03 0.  0.
<mgrwt>
<rscale>  2 0.45395787E+03</rscale>
<asrwt>0</asrwt>
<pdfrwt beam="1">  1       21 0.87546684E-02 0.45395787E+03</pdfrwt>
<pdfrwt beam="2">  1       21 0.12726635E+00 0.45395787E+03</pdfrwt>
<totfact> 0.42518029E+04</totfact>
</mgrwt>
</event>
<event>
 7    0  0.4737014E-002  0.4575475E+03  0.7546771E-02  0.1025495E+00
         21   -1    0    0  502  501  0.00000000000E+00  0.00000000000E+00  0.16199477697E+03  0.16199477697E+03  0.00000000000E+00 0. -1.
         21   -1    0    0  501  502 -0.00000000000E+00 -0.00000000000E+00 -0.32308095009E+03  0.32308095009E+03  0.00000000000E+00 0. -1.
      99926    2    1    2    0    0  0.35527136788E-14  0.00000000000E+00 -0.16108617312E+03  0.48507572706E+03  0.45754749023E+03 0.  0.
      99925    2    3    3    0    0  0.13896217177E+02  0.10771310013E+03 -0.14303115555E+03  0.31843627030E+03  0.26296108075E+03 0.  0.
         25    1    4    4    0    0  0.18160742126E+02  0.82186807303E+02 -0.44775034809E+02  0.15727935558E+03  0.12509000000E+03 0.  0.
         25    1    4    4    0    0 -0.42645249486E+01  0.25526292830E+02 -0.98256120738E+02  0.16115691472E+03  0.12509000000E+03 0.  0.
         25    1    3    3    0    0 -0.13896217177E+02 -0.10771310013E+03 -0.18055017571E+02  0.16663945677E+03  0.12509000000E+03 0.  0.
<mgrwt>
<rscale>  2 0.45754749E+03</rscale>
<asrwt>0</asrwt>
<pdfrwt beam="1">  1       21 0.23822761E-01 0.45754749E+03</pdfrwt>
<pdfrwt beam="2">  1       21 0.47511904E-01 0.45754749E+03</pdfrwt>
<totfact> 0.65007849E+04</totfact>
</mgrwt>
</event>
<event>
 7    0  0.4737014E-002  0.4645777E+03  0.7546771E-02  0.1023462E+00
         21   -1    0    0  502  501  0.00000000000E+00  0.00000000000E+00  0.47028859422E+02  0.47028859422E+02  0.00000000000E+00 0. -1.
         21   -1    0    0  501  502 -0.00000000000E+00 -0.00000000000E+00 -0.11473401992E+04  0.11473401992E+04  0.00000000000E+00 0. -1.
      99926    2    1    2    0    0  0.00000000000E+00  0.00000000000E+00 -0.11003113398E+04  0.11943690586E+04  0.46457766170E+03 0.  0.
      99925    2    3    3    0    0  0.77404728447E+02  0.87531423465E+02 -0.77636373603E+03  0.82797746462E+03  0.26296917922E+03 0.  0.
         25    1    3    3    0    0 -0.77404728447E+02 -0.87531423465E+02 -0.32394760376E+03  0.36639159401E+03  0.12509000000E+03 0.  0.
         25    1    4    4    0    0  0.18874784818E+02  0.74904561090E+02 -0.34992305161E+03  0.37955315954E+03  0.12509000000E+03 0.  0.
         25    1    4    4    0    0  0.58529943629E+02  0.12626862376E+02 -0.42644068442E+03  0.44842430508E+03  0.12509000000E+03 0.  0.
<mgrwt>
<rscale>  2 0.46457766E+03</rscale>
<asrwt>0</asrwt>
<pdfrwt beam="1">  1       21 0.69160077E-02 0.46457766E+03</pdfrwt>
<pdfrwt beam="2">  1       21 0.16872653E+00 0.46457766E+03</pdfrwt>
<totfact> 0.30030838E+04</totfact>
</mgrwt>
</event>
<event>
 7    0  0.4737014E-002  0.4471315E+03  0.7546771E-02  0.1028581E+00
         21   -1    0    0  502  501  0.00000000000E+00  0.00000000000E+00  0.11513750796E+03  0.11513750796E+03  0.00000000000E+00 0.  1.
         21   -1    0    0  501  502 -0.00000000000E+00 -0.00000000000E+00 -0.43410394461E+03  0.43410394461E+03  0.00000000000E+00 0.  1.
      99926    2    1    2    0    0  0.35527136788E-14  0.14210854715E-13 -0.31896643665E+03  0.54924145256E+03  0.44713150806E+03 0.  0.
      99925    2    3    3    0    0 -0.18964157360E+02 -0.69640679856E+02 -0.10736700606E+03  0.29305540556E+03  0.26295310072E+03 0.  0.
         25    1    4    4    0    0 -0.26972409707E+02 -0.59438443588E+01 -0.76157469839E+02  0.14903123325E+03  0.12509000000E+03 0.  0.
         25    1    3    3    0    0  0.18964157360E+02  0.69640679856E+02 -0.21159943059E+03  0.25618604701E+03  0.12509000000E+03 0.  0.
         25    1    4    4    0    0  0.80082523470E+01 -0.63696835498E+02 -0.31209536225E+02  0.14402417231E+03  0.12509000000E+03 0.  0.
<mgrwt>
<rscale>  2 0.44713151E+03</rscale>
<asrwt>0</asrwt>
<pdfrwt beam="1">  1       21 0.16931986E-01 0.44713151E+03</pdfrwt>
<pdfrwt beam="2">  1       21 0.63838816E-01 0.44713151E+03</pdfrwt>
<totfact> 0.65926036E+04</totfact>
</mgrwt>
</event>
<event>
 7    0  0.4737014E-002  0.4530453E+03  0.7546771E-02  0.1026818E+00
         21   -1    0    0  502  501  0.00000000000E+00  0.00000000000E+00  0.26835754304E+03  0.26835754304E+03  0.00000000000E+00 0. -1.
         21   -1    0    0  501  502 -0.00000000000E+00 -0.00000000000E+00 -0.19120952739E+03  0.19120952739E+03  0.00000000000E+00 0. -1.
      99926    2    1    2    0    0  0.00000000000E+00  0.00000000000E+00  0.77148015652E+02  0.45956707043E+03  0.45304533538E+03 0.  0.
      99925    2    3    3    0    0  0.49368523364E+02  0.52046772023E+02  0.13498696776E+03  0.30419986006E+03  0.26300181715E+03 0.  0.
         25    1    4    4    0    0  0.36976214909E+02  0.16605069665E+02  0.25872976681E+02  0.13401450604E+03  0.12509000000E+03 0.  0.
         25    1    3    3    0    0 -0.49368523364E+02 -0.52046772023E+02 -0.57838952104E+02  0.15536721037E+03  0.12509000000E+03 0.  0.
         25    1    4    4    0    0  0.12392308455E+02  0.35441702358E+02  0.10911399107E+03  0.17018535402E+03  0.12509000000E+03 0.  0.
<mgrwt>
<rscale>  2 0.45304534E+03</rscale>
<asrwt>0</asrwt>
<pdfrwt beam="1">  1       21 0.39464345E-01 0.45304534E+03</pdfrwt>
<pdfrwt beam="2">  1       21 0.28119048E-01 0.45304534E+03</pdfrwt>
<totfact> 0.69285632E+04</totfact>
</mgrwt>
</event>
<event>
 7    0  0.4737014E-002  0.4927702E+03  0.7546771E-02  0.1015683E+00
         21   -1    0    0  502  501  0.00000000000E+00  0.00000000000E+00  0.50701586258E+03  0.50701586258E+03  0.00000000000E+00 0. -1.
         21   -1    0    0  501  502 -0.00000000000E+00 -0.00000000000E+00 -0.11973121811E+03  0.11973121811E+03  0.00000000000E+00 0. -1.
      99926    2    1    2    0    0  0.00000000000E+00  0.00000000000E+00  0.38728464447E+03  0.62674708069E+03  0.49277023785E+03 0.  0.
      99925    2    3    3    0    0 -0.51635506589E+02 -0.52240161362E+02  0.39649794187E+03  0.48139353601E+03  0.26293318279E+03 0.  0.
         25    1    4    4    0    0 -0.93768802990E+01 -0.29768157108E+02  0.12976151157E+03  0.18291972843E+03  0.12509000000E+03 0.  0.
         25    1    3    3    0    0  0.51635506589E+02  0.52240161362E+02 -0.92132974002E+01  0.14535354467E+03  0.12509000000E+03 0.  0.
         25    1    4    4    0    0 -0.42258626290E+02 -0.22472004254E+02  0.26673643029E+03  0.29847380759E+03  0.12509000000E+03 0.  0.
<mgrwt>
<rscale>  2 0.49277024E+03</rscale>
<asrwt>0</asrwt>
<pdfrwt beam="1">  1       21 0.74561156E-01 0.49277024E+03</pdfrwt>
<pdfrwt beam="2">  1       21 0.17607532E-01 0.49277024E+03</pdfrwt>
<totfact> 0.42795455E+04</totfact>
</mgrwt>
</event>
<event>
 7    0  0.4737014E-002  0.4339566E+03  0.7546771E-02  0.1032617E+00
         21   -1    0    0  502  501  0.00000000000E+00  0.00000000000E+00  0.97551809165E+03  0.97551809165E+03  0.00000000000E+00 0.  1.
         21   -1    0    0  501  502 -0.00000000000E+00 -0.00000000000E+00 -0.48261098594E+02  0.48261098594E+02  0.00000000000E+00 0.  1.
      99926    2    1    2    0    0  0.44408920985E-15  0.00000000000E+00  0.92725699306E+03  0.10237791902E+04  0.43395656373E+03 0.  0.
      99925    2    3    3    0    0 -0.29527038845E+01 -0.45379434880E+02  0.40658468457E+03  0.48636392018E+03  0.26300331853E+03 0.  0.
         25    1    4    4    0    0 -0.16797291957E+02 -0.27426302872E+02  0.27268958209E+03  0.30173078628E+03  0.12509000000E+03 0.  0.
         25    1    3    3    0    0  0.29527038845E+01  0.45379434880E+02  0.52067230849E+03  0.53741527007E+03  0.12509000000E+03 0.  0.
         25    1    4    4    0    0  0.13844588072E+02 -0.17953132008E+02  0.13389510248E+03  0.18463313390E+03  0.12509000000E+03 0.  0.
<mgrwt>
<rscale>  2 0.43395656E+03</rscale>
<asrwt>0</asrwt>
<pdfrwt beam="1">  1       21 0.14345853E+00 0.43395656E+03</pdfrwt>
<pdfrwt beam="2">  1       21 0.70972210E-02 0.43395656E+03</pdfrwt>
<totfact> 0.45243009E+04</totfact>
</mgrwt>
</event>
<event>
 7    0  0.4737014E-002  0.4578081E+03  0.7546771E-02  0.1025419E+00
         21   -1    0    0  502  501  0.00000000000E+00  0.00000000000E+00  0.22390392471E+03  0.22390392471E+03  0.00000000000E+00 0. -1.
         21   -1    0    0  501  502 -0.00000000000E+00 -0.00000000000E+00 -0.23401582077E+03  0.23401582077E+03  0.00000000000E+00 0. -1.
      99926    2    1    2    0    0  0.00000000000E+00  0.00000000000E+00 -0.10111896059E+02  0.45791974549E+03  0.45780808519E+03 0.  0.
      99925    2    3    3    0    0 -0.62362608185E+02 -0.18339575499E+02  0.89691945215E+02  0.28519525457E+03  0.26280459141E+03 0.  0.
         25    1    3    3    0    0  0.62362608185E+02  0.18339575499E+02 -0.99803841274E+02  0.17272449092E+03  0.12509000000E+03 0.  0.
         25    1    4    4    0    0 -0.43338789105E+02 -0.44370217802E+02  0.63519680390E+02  0.15339238823E+03  0.12509000000E+03 0.  0.
         25    1    4    4    0    0 -0.19023819080E+02  0.26030642302E+02  0.26172264825E+02  0.13180286635E+03  0.12509000000E+03 0.  0.
<mgrwt>
<rscale>  2 0.45780809E+03</rscale>
<asrwt>0</asrwt>
<pdfrwt beam="1">  1       21 0.32927048E-01 0.45780809E+03</pdfrwt>
<pdfrwt beam="2">  1       21 0.34414091E-01 0.45780809E+03</pdfrwt>
<totfact> 0.66822631E+04</totfact>
</mgrwt>
</event>
<event>
 7    0  0.4737014E-002  0.4575436E+03  0.7546771E-02  0.1025496E+00
         21   -1    0    0  502  501  0.00000000000E+00  0.00000000000E+00  0.88056387531E+03  0.88056387531E+03  0.00000000000E+00 0.  1.
         21   -1    0    0  501  502 -0.00000000000E+00 -0.00000000000E+00 -0.59435244839E+02  0.59435244839E+02  0.00000000000E+00 0.  1.
      99926    2    1    2    0    0  0.00000000000E+00 -0.35527136788E-14  0.82112863047E+03  0.93999912015E+03  0.45754356962E+03 0.  0.
      99925    2    3    3    0    0  0.22174489934E+02 -0.31424080013E+02  0.29125874380E+03  0.39420723150E+03  0.26284692260E+03 0.  0.
         25    1    4    4    0    0 -0.83341200149E+01 -0.70133080222E+01  0.91774302843E+02  0.15552708706E+03  0.12509000000E+03 0.  0.
         25    1    3    3    0    0 -0.22174489934E+02  0.31424080013E+02  0.52986988667E+03  0.54579188864E+03  0.12509000000E+03 0.  0.
         25    1    4    4    0    0  0.30508609949E+02 -0.24410771990E+02  0.19948444095E+03  0.23868014445E+03  0.12509000000E+03 0.  0.
<mgrwt>
<rscale>  2 0.45754357E+03</rscale>
<asrwt>0</asrwt>
<pdfrwt beam="1">  1       21 0.12949468E+00 0.45754357E+03</pdfrwt>
<pdfrwt beam="2">  1       21 0.87404777E-02 0.45754357E+03</pdfrwt>
<totfact> 0.40732122E+04</totfact>
</mgrwt>
</event>
<event>
 7    0  0.4737014E-002  0.4777904E+03  0.7546771E-02  0.1019744E+00
         21   -1    0    0  502  501  0.00000000000E+00  0.00000000000E+00  0.11294617614E+04  0.11294617614E+04  0.00000000000E+00 0. -1.
         21   -1    0    0  501  502 -0.00000000000E+00 -0.00000000000E+00 -0.50529294356E+02  0.50529294356E+02  0.00000000000E+00 0. -1.
      99926    2    1    2    0    0  0.00000000000E+00  0.00000000000E+00  0.10789324670E+04  0.11799910558E+04  0.47779035489E+03 0.  0.
      99925    2    3    3    0    0  0.97966877079E+02  0.58421284186E+02  0.83684401086E+03  0.88458475222E+03  0.26300518988E+03 0.  0.
         25    1    3    3    0    0 -0.97966877079E+02 -0.58421284186E+02  0.24208845619E+03  0.29540630354E+03  0.12509000000E+03 0.  0.
         25    1    4    4    0    0  0.54734111764E+02  0.19891871588E+02  0.29809507151E+03  0.32848088119E+03  0.12509000000E+03 0.  0.
         25    1    4    4    0    0  0.43232765315E+02  0.38529412598E+02  0.53874893935E+03  0.55610387103E+03  0.12509000000E+03 0.  0.
<mgrwt>
<rscale>  2 0.47779035E+03</rscale>
<asrwt>0</asrwt>
<pdfrwt beam="1">  1       21 0.16609730E+00 0.47779035E+03</pdfrwt>
<pdfrwt beam="2">  1       21 0.74307793E-02 0.47779035E+03</pdfrwt>
<totfact> 0.27566485E+04</totfact>
</mgrwt>
</event>
<event>
 7    0  0.4737014E-002  0.4587797E+03  0.7546771E-02  0.1025136E+00
         21   -1    0    0  502  501  0.00000000000E+00  0.00000000000E+00  0.89986283923E+02  0.89986283923E+02  0.00000000000E+00 0. -1.
         21   -1    0    0  501  502 -0.00000000000E+00 -0.00000000000E+00 -0.58475258311E+03  0.58475258311E+03  0.00000000000E+00 0. -1.
      99926    2    1    2    0    0  0.00000000000E+00  0.35527136788E-14 -0.49476629919E+03  0.67473886703E+03  0.45877973786E+03 0.  0.
      99925    2    3    3    0    0 -0.11308191993E+03  0.19752266550E+02 -0.34117078277E+03  0.44579179146E+03  0.26297365965E+03 0.  0.
         25    1    3    3    0    0  0.11308191993E+03 -0.19752266550E+02 -0.15359551642E+03  0.22894707557E+03  0.12509000000E+03 0.  0.
         25    1    4    4    0    0 -0.95550549083E+02 -0.77856412665E+01 -0.18301463054E+03  0.24152098611E+03  0.12509000000E+03 0.  0.
         25    1    4    4    0    0 -0.17531370846E+02  0.27537907816E+02 -0.15815615223E+03  0.20427080535E+03  0.12509000000E+03 0.  0.
<mgrwt>
<rscale>  2 0.45877974E+03</rscale>
<asrwt>0</asrwt>
<pdfrwt beam="1">  1       21 0.13233277E-01 0.45877974E+03</pdfrwt>
<pdfrwt beam="2">  1       21 0.85993025E-01 0.45877974E+03</pdfrwt>
<totfact> 0.52708493E+04</totfact>
</mgrwt>
</event>
<event>
 7    0  0.4737014E-002  0.4363198E+03  0.7546771E-02  0.1031882E+00
         21   -1    0    0  502  501  0.00000000000E+00  0.00000000000E+00  0.24646967779E+03  0.24646967779E+03  0.00000000000E+00 0. -1.
         21   -1    0    0  501  502 -0.00000000000E+00 -0.00000000000E+00 -0.19310179500E+03  0.19310179500E+03  0.00000000000E+00 0. -1.
      99926    2    1    2    0    0  0.00000000000E+00  0.00000000000E+00  0.53367882791E+02  0.43957147278E+03  0.43631977811E+03 0.  0.
      99925    2    3    3    0    0 -0.72388833179E+02 -0.60853967227E+02  0.38385625283E+02  0.28204266705E+03  0.26292824365E+03 0.  0.
         25    1    4    4    0    0 -0.12883629813E+02 -0.62836533568E+02  0.12746645284E+02  0.14115382720E+03  0.12509000000E+03 0.  0.
         25    1    3    3    0    0  0.72388833179E+02  0.60853967227E+02  0.14982257508E+02  0.15752880574E+03  0.12509000000E+03 0.  0.
         25    1    4    4    0    0 -0.59505203366E+02  0.19825663410E+01  0.25638979999E+02  0.14088883984E+03  0.12509000000E+03 0.  0.
<mgrwt>
<rscale>  2 0.43631978E+03</rscale>
<asrwt>0</asrwt>
<pdfrwt beam="1">  1       21 0.36245541E-01 0.43631978E+03</pdfrwt>
<pdfrwt beam="2">  1       21 0.28397323E-01 0.43631978E+03</pdfrwt>
<totfact> 0.81123943E+04</totfact>
</mgrwt>
</event>
<event>
 7    0  0.4737014E-002  0.4552709E+03  0.7546771E-02  0.1026162E+00
         21   -1    0    0  502  501  0.00000000000E+00  0.00000000000E+00  0.83035631109E+03  0.83035631109E+03  0.00000000000E+00 0.  1.
         21   -1    0    0  501  502 -0.00000000000E+00 -0.00000000000E+00 -0.62404416475E+02  0.62404416475E+02  0.00000000000E+00 0.  1.
      99926    2    1    2    0    0  0.00000000000E+00  0.00000000000E+00  0.76795189461E+03  0.89276072756E+03  0.45527091302E+03 0.  0.
      99925    2    3    3    0    0 -0.48803080350E+02 -0.29041573378E+02  0.29072713695E+03  0.39615612523E+03  0.26304420495E+03 0.  0.
         25    1    4    4    0    0 -0.19594005491E+02  0.24793179075E+02  0.12453824313E+03  0.17932068726E+03  0.12509000000E+03 0.  0.
         25    1    3    3    0    0  0.48803080350E+02  0.29041573378E+02  0.47722475766E+03  0.49660460234E+03  0.12509000000E+03 0.  0.
         25    1    4    4    0    0 -0.29209074859E+02 -0.53834752453E+02  0.16618889383E+03  0.21683543796E+03  0.12509000000E+03 0.  0.
<mgrwt>
<rscale>  2 0.45527091E+03</rscale>
<asrwt>0</asrwt>
<pdfrwt beam="1">  1       21 0.12211122E+00 0.45527091E+03</pdfrwt>
<pdfrwt beam="2">  1       21 0.91771206E-02 0.45527091E+03</pdfrwt>
<totfact> 0.43455910E+04</totfact>
</mgrwt>
</event>
<event>
 7    0  0.4737014E-002  0.3887518E+03  0.7546771E-02  0.1047746E+00
         21   -1    0    0  502  501  0.00000000000E+00  0.00000000000E+00  0.46252212520E+02  0.46252212520E+02  0.00000000000E+00 0. -1.
         21   -1    0    0  501  502 -0.00000000000E+00 -0.00000000000E+00 -0.81686872823E+03  0.81686872823E+03  0.00000000000E+00 0. -1.
      99926    2    1    2    0    0  0.00000000000E+00 -0.88817841970E-15 -0.77061651571E+03  0.86312094075E+03  0.38875177695E+03 0.  0.
      99925    2    3    3    0    0  0.17264598913E+01  0.65389844767E+01 -0.53428698630E+03  0.59564216860E+03  0.26321335509E+03 0.  0.
         25    1    4    4    0    0  0.24280567464E+01 -0.63104782339E+01 -0.17679900178E+03  0.21668205446E+03  0.12509000000E+03 0.  0.
         25    1    4    4    0    0 -0.70159685509E+00  0.12849462711E+02 -0.35748798452E+03  0.37896011414E+03  0.12509000000E+03 0.  0.
         25    1    3    3    0    0 -0.17264598913E+01 -0.65389844767E+01 -0.23632952941E+03  0.26747877216E+03  0.12509000000E+03 0.  0.
<mgrwt>
<rscale>  2 0.38875178E+03</rscale>
<asrwt>0</asrwt>
<pdfrwt beam="1">  1       21 0.68017967E-02 0.38875178E+03</pdfrwt>
<pdfrwt beam="2">  1       21 0.12012774E+00 0.38875178E+03</pdfrwt>
<totfact> 0.78231137E+04</totfact>
</mgrwt>
</event>
<event>
 7    0  0.4737014E-002  0.4568019E+03  0.7546771E-02  0.1025713E+00
         21   -1    0    0  502  501  0.00000000000E+00  0.00000000000E+00  0.15843351341E+04  0.15843351341E+04  0.00000000000E+00 0.  1.
         21   -1    0    0  501  502 -0.00000000000E+00 -0.00000000000E+00 -0.32926740916E+02  0.32926740916E+02  0.00000000000E+00 0.  1.
      99926    2    1    2    0    0 -0.71054273576E-14  0.00000000000E+00  0.15514083932E+04  0.16172618750E+04  0.45680189354E+03 0.  0.
      99925    2    3    3    0    0 -0.46867179779E+02  0.69606452783E+02  0.69619779055E+03  0.74888737414E+03  0.26286754226E+03 0.  0.
         25    1    3    3    0    0  0.46867179779E+02 -0.69606452783E+02  0.85521060265E+03  0.86837450089E+03  0.12509000000E+03 0.  0.
         25    1    4    4    0    0 -0.63050782284E+02  0.26705210300E+02  0.34969938383E+03  0.37765822718E+03  0.12509000000E+03 0.  0.
         25    1    4    4    0    0  0.16183602505E+02  0.42901242483E+02  0.34649840672E+03  0.37122914697E+03  0.12509000000E+03 0.  0.
<mgrwt>
<rscale>  2 0.45680189E+03</rscale>
<asrwt>0</asrwt>
<pdfrwt beam="1">  1       21 0.23299041E+00 0.45680189E+03</pdfrwt>
<pdfrwt beam="2">  1       21 0.48421688E-02 0.45680189E+03</pdfrwt>
<totfact> 0.20750663E+04</totfact>
</mgrwt>
</event>
<event>
 7    0  0.4737014E-002  0.4560117E+03  0.7546771E-02  0.1025944E+00
         21   -1    0    0  502  501  0.00000000000E+00  0.00000000000E+00  0.72405796525E+02  0.72405796525E+02  0.00000000000E+00 0. -1.
         21   -1    0    0  501  502 -0.00000000000E+00 -0.00000000000E+00 -0.71799048268E+03  0.71799048268E+03  0.00000000000E+00 0. -1.
      99926    2    1    2    0    0  0.00000000000E+00 -0.71054273576E-14 -0.64558468616E+03  0.79039627921E+03  0.45601172264E+03 0.  0.
      99925    2    3    3    0    0 -0.74408133404E+02  0.61922870710E+02 -0.30129490560E+03  0.41151110751E+03  0.26304326494E+03 0.  0.
         25    1    4    4    0    0 -0.56987025059E+02  0.50926634721E+02 -0.20637670551E+03  0.25314007156E+03  0.12509000000E+03 0.  0.
         25    1    4    4    0    0 -0.17421108345E+02  0.10996235988E+02 -0.94918200084E+02  0.15837103595E+03  0.12509000000E+03 0.  0.
         25    1    3    3    0    0  0.74408133404E+02 -0.61922870710E+02 -0.34428978056E+03  0.37888517170E+03  0.12509000000E+03 0.  0.
<mgrwt>
<rscale>  2 0.45601172E+03</rscale>
<asrwt>0</asrwt>
<pdfrwt beam="1">  1       21 0.10647912E-01 0.45601172E+03</pdfrwt>
<pdfrwt beam="2">  1       21 0.10558683E+00 0.45601172E+03</pdfrwt>
<totfact> 0.47851764E+04</totfact>
</mgrwt>
</event>
<event>
 7    0  0.4737014E-002  0.4574842E+03  0.7546771E-02  0.1025513E+00
         21   -1    0    0  502  501  0.00000000000E+00  0.00000000000E+00  0.19799850691E+04  0.19799850691E+04  0.00000000000E+00 0.  1.
         21   -1    0    0  501  502 -0.00000000000E+00 -0.00000000000E+00 -0.26425925480E+02  0.26425925480E+02  0.00000000000E+00 0.  1.
      99926    2    1    2    0    0  0.00000000000E+00  0.00000000000E+00  0.19535591436E+04  0.20064109946E+04  0.45748415443E+03 0.  0.
      99925    2    3    3    0    0  0.10154653820E+03 -0.41256667892E+02  0.13863295684E+04  0.14153012661E+04  0.26297184142E+03 0.  0.
         25    1    4    4    0    0  0.21167488961E+02 -0.38836331634E+02  0.76524577988E+03  0.77666269060E+03  0.12509000000E+03 0.  0.
         25    1    3    3    0    0 -0.10154653820E+03  0.41256667892E+02  0.56722957521E+03  0.59110972852E+03  0.12509000000E+03 0.  0.
         25    1    4    4    0    0  0.80379049242E+02 -0.24203362583E+01  0.62108378854E+03  0.63863857547E+03  0.12509000000E+03 0.  0.
<mgrwt>
<rscale>  2 0.45748415E+03</rscale>
<asrwt>0</asrwt>
<pdfrwt beam="1">  1       21 0.29117417E+00 0.45748415E+03</pdfrwt>
<pdfrwt beam="2">  1       21 0.38861668E-02 0.45748415E+03</pdfrwt>
<totfact> 0.13346065E+04</totfact>
</mgrwt>
</event>
<event>
 7    0  0.4737014E-002  0.4569222E+03  0.7546771E-02  0.1025678E+00
         21   -1    0    0  502  501  0.00000000000E+00  0.00000000000E+00  0.10391534202E+04  0.10391534202E+04  0.00000000000E+00 0.  1.
         21   -1    0    0  501  502 -0.00000000000E+00 -0.00000000000E+00 -0.50227884725E+02  0.50227884725E+02  0.00000000000E+00 0.  1.
      99926    2    1    2    0    0  0.00000000000E+00 -0.14210854715E-13  0.98892553549E+03  0.10893813049E+04  0.45692221746E+03 0.  0.
      99925    2    3    3    0    0 -0.79867224717E+02 -0.81524447131E+02  0.65396111698E+03  0.71404987962E+03  0.26301535887E+03 0.  0.
         25    1    4    4    0    0 -0.38686096227E+02 -0.70306471405E+02  0.27328827549E+03  0.31108456018E+03  0.12509000000E+03 0.  0.
         25    1    4    4    0    0 -0.41181128490E+02 -0.11217975726E+02  0.38067284149E+03  0.40296531944E+03  0.12509000000E+03 0.  0.
         25    1    3    3    0    0  0.79867224717E+02  0.81524447131E+02  0.33496441851E+03  0.37533142532E+03  0.12509000000E+03 0.  0.
<mgrwt>
<rscale>  2 0.45692222E+03</rscale>
<asrwt>0</asrwt>
<pdfrwt beam="1">  1       21 0.15281667E+00 0.45692222E+03</pdfrwt>
<pdfrwt beam="2">  1       21 0.73864543E-02 0.45692222E+03</pdfrwt>
<totfact> 0.35331792E+04</totfact>
</mgrwt>
</event>
<event>
 7    0  0.4737014E-002  0.4561498E+03  0.7546771E-02  0.1025904E+00
         21   -1    0    0  502  501  0.00000000000E+00  0.00000000000E+00  0.51320463980E+03  0.51320463980E+03  0.00000000000E+00 0.  1.
         21   -1    0    0  501  502 -0.00000000000E+00 -0.00000000000E+00 -0.10135949142E+03  0.10135949142E+03  0.00000000000E+00 0.  1.
      99926    2    1    2    0    0  0.00000000000E+00  0.26645352591E-14  0.41184514838E+03  0.61456413122E+03  0.45614980559E+03 0.  0.
      99925    2    3    3    0    0  0.43209885336E+02  0.41365723143E+01  0.11670218649E+03  0.29108139370E+03  0.26310600906E+03 0.  0.
         25    1    3    3    0    0 -0.43209885336E+02 -0.41365723143E+01  0.29514296189E+03  0.32348273752E+03  0.12509000000E+03 0.  0.
         25    1    4    4    0    0  0.10977573752E+02  0.25640483512E+02  0.92136533295E+02  0.15784356302E+03  0.12509000000E+03 0.  0.
         25    1    4    4    0    0  0.32232311584E+02 -0.21503911198E+02  0.24565653195E+02  0.13323783068E+03  0.12509000000E+03 0.  0.
<mgrwt>
<rscale>  2 0.45614981E+03</rscale>
<asrwt>0</asrwt>
<pdfrwt beam="1">  1       21 0.75471270E-01 0.45614981E+03</pdfrwt>
<pdfrwt beam="2">  1       21 0.14905808E-01 0.45614981E+03</pdfrwt>
<totfact> 0.57268813E+04</totfact>
</mgrwt>
</event>
<event>
 7    0  0.4737014E-002  0.4540189E+03  0.7546771E-02  0.1026530E+00
         21   -1    0    0  502  501  0.00000000000E+00  0.00000000000E+00  0.26946299509E+03  0.26946299509E+03  0.00000000000E+00 0.  1.
         21   -1    0    0  501  502 -0.00000000000E+00 -0.00000000000E+00 -0.19124443157E+03  0.19124443157E+03  0.00000000000E+00 0.  1.
      99926    2    1    2    0    0  0.00000000000E+00  0.00000000000E+00  0.78218563517E+02  0.46070742666E+03  0.45401893055E+03 0.  0.
      99925    2    3    3    0    0  0.37575718104E+02 -0.10363047584E+03  0.27309418461E+02  0.28637883100E+03  0.26289887864E+03 0.  0.
         25    1    4    4    0    0  0.38111381772E+02 -0.20113239263E+02 -0.55542963605E+01  0.13242121477E+03  0.12509000000E+03 0.  0.
         25    1    4    4    0    0 -0.53566366778E+00 -0.83517236580E+02  0.32863714821E+02  0.15395761622E+03  0.12509000000E+03 0.  0.
         25    1    3    3    0    0 -0.37575718104E+02  0.10363047584E+03  0.50909145056E+02  0.17432859566E+03  0.12509000000E+03 0.  0.
<mgrwt>
<rscale>  2 0.45401893E+03</rscale>
<asrwt>0</asrwt>
<pdfrwt beam="1">  1       21 0.39626911E-01 0.45401893E+03</pdfrwt>
<pdfrwt beam="2">  1       21 0.28124181E-01 0.45401893E+03</pdfrwt>
<totfact> 0.68663867E+04</totfact>
</mgrwt>
</event>
<event>
 7    0  0.4737014E-002  0.4542817E+03  0.7546771E-02  0.1026453E+00
         21   -1    0    0  502  501  0.00000000000E+00  0.00000000000E+00  0.68771180748E+03  0.68771180748E+03  0.00000000000E+00 0. -1.
         21   -1    0    0  501  502 -0.00000000000E+00 -0.00000000000E+00 -0.75021214143E+02  0.75021214143E+02  0.00000000000E+00 0. -1.
      99926    2    1    2    0    0  0.14210854715E-13  0.00000000000E+00  0.61269059334E+03  0.76273302162E+03  0.45428173980E+03 0.  0.
      99925    2    3    3    0    0 -0.86403033442E+02 -0.36247266587E+02  0.49025839962E+03  0.56419713398E+03  0.26303185943E+03 0.  0.
         25    1    4    4    0    0 -0.67886615992E+02 -0.10833911883E+02  0.32176644457E+03  0.35200443069E+03  0.12509000000E+03 0.  0.
         25    1    4    4    0    0 -0.18516417449E+02 -0.25413354703E+02  0.16849195505E+03  0.21219270329E+03  0.12509000000E+03 0.  0.
         25    1    3    3    0    0  0.86403033442E+02  0.36247266587E+02  0.12243219372E+03  0.19853588764E+03  0.12509000000E+03 0.  0.
<mgrwt>
<rscale>  2 0.45428174E+03</rscale>
<asrwt>0</asrwt>
<pdfrwt beam="1">  1       21 0.10113409E+00 0.45428174E+03</pdfrwt>
<pdfrwt beam="2">  1       21 0.11032532E-01 0.45428174E+03</pdfrwt>
<totfact> 0.49900689E+04</totfact>
</mgrwt>
</event>
<event>
 7    0  0.4737014E-002  0.4263485E+03  0.7546771E-02  0.1035020E+00
         21   -1    0    0  502  501  0.00000000000E+00  0.00000000000E+00  0.35540978803E+02  0.35540978803E+02  0.00000000000E+00 0.  1.
         21   -1    0    0  501  502 -0.00000000000E+00 -0.00000000000E+00 -0.12786160603E+04  0.12786160603E+04  0.00000000000E+00 0.  1.
      99926    2    1    2    0    0  0.71054273576E-14  0.71054273576E-14 -0.12430750815E+04  0.13141570391E+04  0.42634852548E+03 0.  0.
      99925    2    3    3    0    0 -0.35919923285E+02 -0.52556125109E+02 -0.63740504821E+03  0.69243677685E+03  0.26292795073E+03 0.  0.
         25    1    3    3    0    0  0.35919923285E+02  0.52556125109E+02 -0.60567003325E+03  0.62172026222E+03  0.12509000000E+03 0.  0.
         25    1    4    4    0    0 -0.52210076641E+01 -0.63134173263E+02 -0.36235884950E+03  0.38854166658E+03  0.12509000000E+03 0.  0.
         25    1    4    4    0    0 -0.30698915621E+02  0.10578048154E+02 -0.27504619871E+03  0.30389511027E+03  0.12509000000E+03 0.  0.
<mgrwt>
<rscale>  2 0.42634853E+03</rscale>
<asrwt>0</asrwt>
<pdfrwt beam="1">  1       21 0.52266158E-02 0.42634853E+03</pdfrwt>
<pdfrwt beam="2">  1       21 0.18803173E+00 0.42634853E+03</pdfrwt>
<totfact> 0.36105418E+04</totfact>
</mgrwt>
</event>
<event>
 7    0  0.4737014E-002  0.4561889E+03  0.7546771E-02  0.1025892E+00
         21   -1    0    0  502  501  0.00000000000E+00  0.00000000000E+00  0.61086065651E+03  0.61086065651E+03  0.00000000000E+00 0.  1.
         21   -1    0    0  501  502 -0.00000000000E+00 -0.00000000000E+00 -0.85170138476E+02  0.85170138476E+02  0.00000000000E+00 0.  1.
      99926    2    1    2    0    0  0.00000000000E+00  0.00000000000E+00  0.52569051804E+03  0.69603079499E+03  0.45618893763E+03 0.  0.
      99925    2    3    3    0    0 -0.83039401760E+01  0.90788487000E+02  0.43609076709E+03  0.51718133800E+03  0.26265923636E+03 0.  0.
         25    1    4    4    0    0 -0.10464904212E+01  0.87172703444E+02  0.22937281963E+03  0.27542616770E+03  0.12509000000E+03 0.  0.
         25    1    3    3    0    0  0.83039401760E+01 -0.90788487000E+02  0.89599750949E+02  0.17884945699E+03  0.12509000000E+03 0.  0.
         25    1    4    4    0    0 -0.72574497548E+01  0.36157835568E+01  0.20671794745E+03  0.24175517030E+03  0.12509000000E+03 0.  0.
<mgrwt>
<rscale>  2 0.45618894E+03</rscale>
<asrwt>0</asrwt>
<pdfrwt beam="1">  1       21 0.89832447E-01 0.45618894E+03</pdfrwt>
<pdfrwt beam="2">  1       21 0.12525021E-01 0.45618894E+03</pdfrwt>
<totfact> 0.52624830E+04</totfact>
</mgrwt>
</event>
<event>
 7    0  0.4737014E-002  0.4557438E+03  0.7546771E-02  0.1026023E+00
         21   -1    0    0  502  501  0.00000000000E+00  0.00000000000E+00  0.20244274148E+03  0.20244274148E+03  0.00000000000E+00 0.  1.
         21   -1    0    0  501  502 -0.00000000000E+00 -0.00000000000E+00 -0.25649528404E+03  0.25649528404E+03  0.00000000000E+00 0.  1.
      99926    2    1    2    0    0 -0.71054273576E-14 -0.14210854715E-13 -0.54052542561E+02  0.45893802551E+03  0.45574382487E+03 0.  0.
      99925    2    3    3    0    0 -0.47863748330E+02 -0.10326750509E+03 -0.36905500965E+02  0.28894789301E+03  0.26300903571E+03 0.  0.
         25    1    3    3    0    0  0.47863748330E+02  0.10326750509E+03 -0.17147041596E+02  0.16999013250E+03  0.12509000000E+03 0.  0.
         25    1    4    4    0    0 -0.37898938193E+02 -0.12708867132E+02 -0.25528570534E+02  0.13377989697E+03  0.12509000000E+03 0.  0.
         25    1    4    4    0    0 -0.99648101372E+01 -0.90558637958E+02 -0.11376930431E+02  0.15516799604E+03  0.12509000000E+03 0.  0.
<mgrwt>
<rscale>  2 0.45574382E+03</rscale>
<asrwt>0</asrwt>
<pdfrwt beam="1">  1       21 0.29770991E-01 0.45574382E+03</pdfrwt>
<pdfrwt beam="2">  1       21 0.37719895E-01 0.45574382E+03</pdfrwt>
<totfact> 0.67854565E+04</totfact>
</mgrwt>
</event>
<event>
 7    0  0.4737014E-002  0.4505764E+03  0.7546771E-02  0.1027550E+00
         21   -1    0    0  502  501  0.00000000000E+00  0.00000000000E+00  0.16735706737E+03  0.16735706737E+03  0.00000000000E+00 0. -1.
         21   -1    0    0  501  502 -0.00000000000E+00 -0.00000000000E+00 -0.30327233878E+03  0.30327233878E+03  0.00000000000E+00 0. -1.
      99926    2    1    2    0    0  0.00000000000E+00  0.00000000000E+00 -0.13591527141E+03  0.47062940615E+03  0.45057638301E+03 0.  0.
      99925    2    3    3    0    0  0.64095315348E+02 -0.32661612725E+02 -0.42688387902E+00  0.27269102773E+03  0.26303084226E+03 0.  0.
         25    1    4    4    0    0  0.59201769514E+02  0.11477182939E+02 -0.12362423069E+02  0.13941632919E+03  0.12509000000E+03 0.  0.
         25    1    4    4    0    0  0.48935458344E+01 -0.44138795664E+02  0.11935539190E+02  0.13327469853E+03  0.12509000000E+03 0.  0.
         25    1    3    3    0    0 -0.64095315348E+02  0.32661612725E+02 -0.13548838753E+03  0.19793837842E+03  0.12509000000E+03 0.  0.
<mgrwt>
<rscale>  2 0.45057638E+03</rscale>
<asrwt>0</asrwt>
<pdfrwt beam="1">  1       21 0.24611333E-01 0.45057638E+03</pdfrwt>
<pdfrwt beam="2">  1       21 0.44598873E-01 0.45057638E+03</pdfrwt>
<totfact> 0.69807190E+04</totfact>
</mgrwt>
</event>
<event>
 7    0  0.4737014E-002  0.4565882E+03  0.7546771E-02  0.1025775E+00
         21   -1    0    0  502  501  0.00000000000E+00  0.00000000000E+00  0.21191480488E+03  0.21191480488E+03  0.00000000000E+00 0. -1.
         21   -1    0    0  501  502 -0.00000000000E+00 -0.00000000000E+00 -0.24593937308E+03  0.24593937308E+03  0.00000000000E+00 0. -1.
      99926    2    1    2    0    0  0.35527136788E-14  0.13322676296E-14 -0.34024568201E+02  0.45785417797E+03  0.45658819196E+03 0.  0.
      99925    2    3    3    0    0 -0.18036740609E+02 -0.23338610989E+01  0.92141235775E+02  0.27925941569E+03  0.26299247708E+03 0.  0.
         25    1    4    4    0    0  0.25828026990E+02  0.68656225798E+01  0.24808773809E+02  0.13029661204E+03  0.12509000000E+03 0.  0.
         25    1    3    3    0    0  0.18036740609E+02  0.23338610989E+01 -0.12616580398E+03  0.17859476228E+03  0.12509000000E+03 0.  0.
         25    1    4    4    0    0 -0.43864767599E+02 -0.91994836787E+01  0.67332461965E+02  0.14896280365E+03  0.12509000000E+03 0.  0.
<mgrwt>
<rscale>  2 0.45658819E+03</rscale>
<asrwt>0</asrwt>
<pdfrwt beam="1">  1       21 0.31163942E-01 0.45658819E+03</pdfrwt>
<pdfrwt beam="2">  1       21 0.36167555E-01 0.45658819E+03</pdfrwt>
<totfact> 0.67478108E+04</totfact>
</mgrwt>
</event>
<event>
 7    0  0.4737014E-002  0.4613965E+03  0.7546771E-02  0.1024377E+00
         21   -1    0    0  502  501  0.00000000000E+00  0.00000000000E+00  0.27260098745E+03  0.27260098745E+03  0.00000000000E+00 0.  1.
         21   -1    0    0  501  502 -0.00000000000E+00 -0.00000000000E+00 -0.19523660738E+03  0.19523660738E+03  0.00000000000E+00 0.  1.
      99926    2    1    2    0    0  0.00000000000E+00  0.00000000000E+00  0.77364380068E+02  0.46783759483E+03  0.46139654077E+03 0.  0.
      99925    2    3    3    0    0 -0.35178212632E+02  0.11045582674E+03  0.20977206524E+02  0.28821293688E+03  0.26303736899E+03 0.  0.
         25    1    4    4    0    0  0.55106782051E+01  0.25246534224E+02 -0.11180837650E+02  0.12821963303E+03  0.12509000000E+03 0.  0.
         25    1    3    3    0    0  0.35178212632E+02 -0.11045582674E+03  0.56387173544E+02  0.17962465796E+03  0.12509000000E+03 0.  0.
         25    1    4    4    0    0 -0.40688890837E+02  0.85209292519E+02  0.32158044174E+02  0.15999330384E+03  0.12509000000E+03 0.  0.
<mgrwt>
<rscale>  2 0.46139654E+03</rscale>
<asrwt>0</asrwt>
<pdfrwt beam="1">  1       21 0.40088381E-01 0.46139654E+03</pdfrwt>
<pdfrwt beam="2">  1       21 0.28711266E-01 0.46139654E+03</pdfrwt>
<totfact> 0.64269296E+04</totfact>
</mgrwt>
</event>
<event>
 6    0  0.4737014E-002  0.4569108E+03  0.7546771E-02  0.1025681E+00
         21   -1    0    0  502  501  0.00000000000E+00  0.00000000000E+00  0.28252720521E+03  0.28252720521E+03  0.00000000000E+00 0. -1.
         21   -1    0    0  501  502 -0.00000000000E+00 -0.00000000000E+00 -0.18473215677E+03  0.18473215677E+03  0.00000000000E+00 0. -1.
      99926    2    1    2    0    0 -0.17763568394E-14  0.00000000000E+00  0.97795048441E+02  0.46725936198E+03  0.45691075699E+03 0.  0.
         25    1    3    3    0    0  0.21763774415E+01  0.60144448491E+02  0.13335902538E+03  0.19249475072E+03  0.12509000000E+03 0.  0.
         25    1    3    3    0    0  0.24466039342E+02  0.51724008476E+01 -0.30012598768E+02  0.13104810184E+03  0.12509000000E+03 0.  0.
         25    1    3    3    0    0 -0.26642416784E+02 -0.65316849338E+02 -0.55513781727E+01  0.14371650942E+03  0.12509000000E+03 0.  0.
<mgrwt>
<rscale>  2 0.45691076E+03</rscale>
<asrwt>0</asrwt>
<pdfrwt beam="1">  1       21 0.41548118E-01 0.45691076E+03</pdfrwt>
<pdfrwt beam="2">  1       21 0.27166494E-01 0.45691076E+03</pdfrwt>
<totfact> 0.66625149E+04</totfact>
</mgrwt>
</event>
<event>
 6    0  0.4737014E-002  0.4538017E+03  0.7546771E-02  0.1026594E+00
         21   -1    0    0  502  501  0.00000000000E+00  0.00000000000E+00  0.85781677818E+03  0.85781677818E+03  0.00000000000E+00 0. -1.
         21   -1    0    0  501  502 -0.00000000000E+00 -0.00000000000E+00 -0.60017476355E+02  0.60017476355E+02  0.00000000000E+00 0. -1.
      99926    2    1    2    0    0 -0.35527136788E-14  0.00000000000E+00  0.79779930182E+03  0.91783425453E+03  0.45380171089E+03 0.  0.
         25    1    3    3    0    0  0.11880332747E+02 -0.52164563989E+02  0.12881416323E+03  0.18735762806E+03  0.12509000000E+03 0.  0.
         25    1    3    3    0    0  0.22599181675E+02  0.64533166763E+02  0.48131417786E+03  0.50198216954E+03  0.12509000000E+03 0.  0.
         25    1    3    3    0    0 -0.34479514423E+02 -0.12368602774E+02  0.18767096074E+03  0.22849445694E+03  0.12509000000E+03 0.  0.
<mgrwt>
<rscale>  2 0.45380171E+03</rscale>
<asrwt>0</asrwt>
<pdfrwt beam="1">  1       21 0.12614952E+00 0.45380171E+03</pdfrwt>
<pdfrwt beam="2">  1       21 0.88261000E-02 0.45380171E+03</pdfrwt>
<totfact> 0.42872042E+04</totfact>
</mgrwt>
</event>
<event>
 7    0  0.4737014E-002  0.4530054E+03  0.7546771E-02  0.1026830E+00
         21   -1    0    0  502  501  0.00000000000E+00  0.00000000000E+00  0.15415966199E+04  0.15415966199E+04  0.00000000000E+00 0. -1.
         21   -1    0    0  501  502 -0.00000000000E+00 -0.00000000000E+00 -0.33279439263E+02  0.33279439263E+02  0.00000000000E+00 0. -1.
      99926    2    1    2    0    0  0.00000000000E+00  0.00000000000E+00  0.15083171807E+04  0.15748760592E+04  0.45300539105E+03 0.  0.
      99925    2    3    3    0    0 -0.95575233486E+01 -0.71743072916E+02  0.65655006879E+03  0.71093558917E+03  0.26293155832E+03 0.  0.
         25    1    3    3    0    0  0.95575233486E+01  0.71743072916E+02  0.85176711187E+03  0.86394047002E+03  0.12509000000E+03 0.  0.
         25    1    4    4    0    0 -0.13662990152E+02 -0.63246341875E+02  0.26974040044E+03  0.30429289967E+03  0.12509000000E+03 0.  0.
         25    1    4    4    0    0  0.41054668029E+01 -0.84967310413E+01  0.38680966835E+03  0.40664268950E+03  0.12509000000E+03 0.  0.
<mgrwt>
<rscale>  2 0.45300539E+03</rscale>
<asrwt>0</asrwt>
<pdfrwt beam="1">  1       21 0.22670534E+00 0.45300539E+03</pdfrwt>
<pdfrwt beam="2">  1       21 0.48940362E-02 0.45300539E+03</pdfrwt>
<totfact> 0.22346395E+04</totfact>
</mgrwt>
</event>
<event>
 7    0  0.4737014E-002  0.4497762E+03  0.7546771E-02  0.1027789E+00
         21   -1    0    0  502  501  0.00000000000E+00  0.00000000000E+00  0.30211825371E+03  0.30211825371E+03  0.00000000000E+00 0.  1.
         21   -1    0    0  501  502 -0.00000000000E+00 -0.00000000000E+00 -0.16740022452E+03  0.16740022452E+03  0.00000000000E+00 0.  1.
      99926    2    1    2    0    0  0.00000000000E+00  0.00000000000E+00  0.13471802918E+03  0.46951847823E+03  0.44977622659E+03 0.  0.
      99925    2    3    3    0    0 -0.81468434675E+02 -0.19374232114E+02  0.15490861279E+03  0.31763814874E+03  0.26435742566E+03 0.  0.
         25    1    4    4    0    0 -0.69819410397E+02  0.21669444619E+02  0.74237322845E+02  0.16279742965E+03  0.12509000000E+03 0.  0.
         25    1    3    3    0    0  0.81468434675E+02  0.19374232114E+02 -0.20190583606E+02  0.15188032949E+03  0.12509000000E+03 0.  0.
         25    1    4    4    0    0 -0.11649024278E+02 -0.41043676733E+02  0.80671289945E+02  0.15484071909E+03  0.12509000000E+03 0.  0.
<mgrwt>
<rscale>  2 0.44977623E+03</rscale>
<asrwt>0</asrwt>
<pdfrwt beam="1">  1       21 0.44429155E-01 0.44977623E+03</pdfrwt>
<pdfrwt beam="2">  1       21 0.24617680E-01 0.44977623E+03</pdfrwt>
<totfact> 0.70342148E+04</totfact>
</mgrwt>
</event>
<event>
 7    0  0.4737014E-002  0.4527543E+03  0.7546771E-02  0.1026904E+00
         21   -1    0    0  502  501  0.00000000000E+00  0.00000000000E+00  0.58254802746E+03  0.58254802746E+03  0.00000000000E+00 0. -1.
         21   -1    0    0  501  502 -0.00000000000E+00 -0.00000000000E+00 -0.87969779299E+02  0.87969779299E+02  0.00000000000E+00 0. -1.
      99926    2    1    2    0    0  0.00000000000E+00 -0.35527136788E-14  0.49457824817E+03  0.67051780676E+03  0.45275433254E+03 0.  0.
      99925    2    3    3    0    0  0.10831762153E+03 -0.19036743165E+02  0.28945568764E+03  0.40628707869E+03  0.26303895240E+03 0.  0.
         25    1    3    3    0    0 -0.10831762153E+03  0.19036743165E+02  0.20512256052E+03  0.26423072808E+03  0.12509000000E+03 0.  0.
         25    1    4    4    0    0  0.91755977675E+02 -0.51236154158E+01  0.12998070206E+03  0.20245469094E+03  0.12509000000E+03 0.  0.
         25    1    4    4    0    0  0.16561643852E+02 -0.13913127749E+02  0.15947498558E+03  0.20383238775E+03  0.12509000000E+03 0.  0.
<mgrwt>
<rscale>  2 0.45275433E+03</rscale>
<asrwt>0</asrwt>
<pdfrwt beam="1">  1       21 0.85668826E-01 0.45275433E+03</pdfrwt>
<pdfrwt beam="2">  1       21 0.12936733E-01 0.45275433E+03</pdfrwt>
<totfact> 0.55509287E+04</totfact>
</mgrwt>
</event>
<event>
 7    0  0.4737014E-002  0.4516010E+03  0.7546771E-02  0.1027246E+00
         21   -1    0    0  502  501  0.00000000000E+00  0.00000000000E+00  0.14591075059E+03  0.14591075059E+03  0.00000000000E+00 0.  1.
         21   -1    0    0  501  502 -0.00000000000E+00 -0.00000000000E+00 -0.34943193438E+03  0.34943193438E+03  0.00000000000E+00 0.  1.
      99926    2    1    2    0    0  0.00000000000E+00  0.14210854715E-13 -0.20352118379E+03  0.49534268497E+03  0.45160104440E+03 0.  0.
      99925    2    3    3    0    0 -0.64228457578E+02  0.87308989684E+02 -0.14811404011E+03  0.32079866727E+03  0.26310807970E+03 0.  0.
         25    1    4    4    0    0 -0.60234845127E+02  0.24096583400E+02 -0.49389570031E+02  0.14931751279E+03  0.12509000000E+03 0.  0.
         25    1    3    3    0    0  0.64228457578E+02 -0.87308989684E+02 -0.55407143680E+02  0.17454401770E+03  0.12509000000E+03 0.  0.
         25    1    4    4    0    0 -0.39936124506E+01  0.63212406284E+02 -0.98724470081E+02  0.17148115448E+03  0.12509000000E+03 0.  0.
<mgrwt>
<rscale>  2 0.45160104E+03</rscale>
<asrwt>0</asrwt>
<pdfrwt beam="1">  1       21 0.21457464E-01 0.45160104E+03</pdfrwt>
<pdfrwt beam="2">  1       21 0.51387048E-01 0.45160104E+03</pdfrwt>
<totfact> 0.67399403E+04</totfact>
</mgrwt>
</event>
<event>
 7    0  0.4737014E-002  0.4531559E+03  0.7546771E-02  0.1026785E+00
         21   -1    0    0  502  501  0.00000000000E+00  0.00000000000E+00  0.17134887103E+04  0.17134887103E+04  0.00000000000E+00 0. -1.
         21   -1    0    0  501  502 -0.00000000000E+00 -0.00000000000E+00 -0.29960844440E+02  0.29960844440E+02  0.00000000000E+00 0. -1.
      99926    2    1    2    0    0  0.00000000000E+00 -0.35527136788E-14  0.16835278659E+04  0.17434495547E+04  0.45315590562E+03 0.  0.
      99925    2    3    3    0    0 -0.71092831338E+02  0.11375671765E+02  0.13901404292E+04  0.14164827481E+04  0.26220100324E+03 0.  0.
         25    1    4    4    0    0 -0.33912087125E+02 -0.32984808040E+02  0.71985830692E+03  0.73217587871E+03  0.12509000000E+03 0.  0.
         25    1    4    4    0    0 -0.37180744213E+02  0.44360479805E+02  0.67028212228E+03  0.68430686936E+03  0.12509000000E+03 0.  0.
         25    1    3    3    0    0  0.71092831338E+02 -0.11375671765E+02  0.29338743665E+03  0.32696680666E+03  0.12509000000E+03 0.  0.
<mgrwt>
<rscale>  2 0.45315591E+03</rscale>
<asrwt>0</asrwt>
<pdfrwt beam="1">  1       21 0.25198357E+00 0.45315591E+03</pdfrwt>
<pdfrwt beam="2">  1       21 0.44060077E-02 0.45315591E+03</pdfrwt>
<totfact> 0.18637222E+04</totfact>
</mgrwt>
</event>
<event>
 7    0  0.4737014E-002  0.4536946E+03  0.7546771E-02  0.1026626E+00
         21   -1    0    0  502  501  0.00000000000E+00  0.00000000000E+00  0.31694839814E+03  0.31694839814E+03  0.00000000000E+00 0. -1.
         21   -1    0    0  501  502 -0.00000000000E+00 -0.00000000000E+00 -0.16235983161E+03  0.16235983161E+03  0.00000000000E+00 0. -1.
      99926    2    1    2    0    0  0.00000000000E+00  0.00000000000E+00  0.15458856653E+03  0.47930822975E+03  0.45369456047E+03 0.  0.
      99925    2    3    3    0    0 -0.53330782488E+02 -0.97087919348E+02  0.11426862584E+03  0.30742617088E+03  0.26302717587E+03 0.  0.
         25    1    4    4    0    0 -0.18359002419E+02 -0.56693916609E+01  0.51993717323E+02  0.13682123268E+03  0.12509000000E+03 0.  0.
         25    1    4    4    0    0 -0.34971780069E+02 -0.91418527687E+02  0.62274908513E+02  0.17060493819E+03  0.12509000000E+03 0.  0.
         25    1    3    3    0    0  0.53330782488E+02  0.97087919348E+02  0.40319940695E+02  0.17188205887E+03  0.12509000000E+03 0.  0.
<mgrwt>
<rscale>  2 0.45369456E+03</rscale>
<asrwt>0</asrwt>
<pdfrwt beam="1">  1       21 0.46610059E-01 0.45369456E+03</pdfrwt>
<pdfrwt beam="2">  1       21 0.23876446E-01 0.45369456E+03</pdfrwt>
<totfact> 0.67446656E+04</totfact>
</mgrwt>
</event>
<event>
 7    0  0.4737014E-002  0.4421939E+03  0.7546771E-02  0.1030076E+00
         21   -1    0    0  502  501  0.00000000000E+00  0.00000000000E+00  0.12233166675E+03  0.12233166675E+03  0.00000000000E+00 0. -1.
         21   -1    0    0  501  502 -0.00000000000E+00 -0.00000000000E+00 -0.39960107847E+03  0.39960107847E+03  0.00000000000E+00 0. -1.
      99926    2    1    2    0    0  0.00000000000E+00  0.00000000000E+00 -0.27726941173E+03  0.52193274522E+03  0.44219392109E+03 0.  0.
      99925    2    3    3    0    0  0.15967894904E+02 -0.73487095053E+02 -0.25563504278E+03  0.37438315753E+03  0.26297936561E+03 0.  0.
         25    1    3    3    0    0 -0.15967894904E+02  0.73487095053E+02 -0.21634368947E+02  0.14754958769E+03  0.12509000000E+03 0.  0.
         25    1    4    4    0    0 -0.24142248196E+02 -0.48867064631E+02 -0.99597488065E+02  0.16893195637E+03  0.12509000000E+03 0.  0.
         25    1    4    4    0    0  0.40110143100E+02 -0.24620030422E+02 -0.15603755472E+03  0.20545120116E+03  0.12509000000E+03 0.  0.
<mgrwt>
<rscale>  2 0.44219392E+03</rscale>
<asrwt>0</asrwt>
<pdfrwt beam="1">  1       21 0.17989951E-01 0.44219392E+03</pdfrwt>
<pdfrwt beam="2">  1       21 0.58764864E-01 0.44219392E+03</pdfrwt>
<totfact> 0.70656196E+04</totfact>
</mgrwt>
</event>
<event>
 7    0  0.4737014E-002  0.4533965E+03  0.7546771E-02  0.1026714E+00
         21   -1    0    0  502  501  0.00000000000E+00  0.00000000000E+00  0.82839150982E+03  0.82839150982E+03  0.00000000000E+00 0. -1.
         21   -1    0    0  501  502 -0.00000000000E+00 -0.00000000000E+00 -0.62038423014E+02  0.62038423014E+02  0.00000000000E+00 0. -1.
      99926    2    1    2    0    0  0.00000000000E+00  0.00000000000E+00  0.76635308681E+03  0.89042993284E+03  0.45339652803E+03 0.  0.
      99925    2    3    3    0    0  0.82781697533E+02 -0.66756525491E+02  0.55098959966E+03  0.61961969884E+03  0.26273520722E+03 0.  0.
         25    1    4    4    0    0  0.15443534208E+02 -0.33618750144E+02  0.19197999717E+03  0.23210461117E+03  0.12509000000E+03 0.  0.
         25    1    3    3    0    0 -0.82781697533E+02  0.66756525491E+02  0.21536348715E+03  0.27081023400E+03  0.12509000000E+03 0.  0.
         25    1    4    4    0    0  0.67338163326E+02 -0.33137775347E+02  0.35900960249E+03  0.38751508767E+03  0.12509000000E+03 0.  0.
<mgrwt>
<rscale>  2 0.45339653E+03</rscale>
<asrwt>0</asrwt>
<pdfrwt beam="1">  1       21 0.12182227E+00 0.45339653E+03</pdfrwt>
<pdfrwt beam="2">  1       21 0.91232980E-02 0.45339653E+03</pdfrwt>
<totfact> 0.44202456E+04</totfact>
</mgrwt>
</event>
<event>
 7    0  0.4737014E-002  0.4575271E+03  0.7546771E-02  0.1025501E+00
         21   -1    0    0  502  501  0.00000000000E+00  0.00000000000E+00  0.96769148601E+02  0.96769148601E+02  0.00000000000E+00 0.  1.
         21   -1    0    0  501  502 -0.00000000000E+00 -0.00000000000E+00 -0.54080000814E+03  0.54080000814E+03  0.00000000000E+00 0.  1.
      99926    2    1    2    0    0  0.00000000000E+00  0.00000000000E+00 -0.44403085954E+03  0.63756915674E+03  0.45752707614E+03 0.  0.
      99925    2    3    3    0    0  0.89349171602E+02 -0.68685892548E+02 -0.24306289987E+03  0.37539239344E+03  0.26294267333E+03 0.  0.
         25    1    3    3    0    0 -0.89349171602E+02  0.68685892548E+02 -0.20096795967E+03  0.26217676330E+03  0.12509000000E+03 0.  0.
         25    1    4    4    0    0  0.52422652562E+02 -0.37972731724E+02 -0.72254115718E+02  0.15829790963E+03  0.12509000000E+03 0.  0.
         25    1    4    4    0    0  0.36926519040E+02 -0.30713160824E+02 -0.17080878415E+03  0.21709448381E+03  0.12509000000E+03 0.  0.
<mgrwt>
<rscale>  2 0.45752708E+03</rscale>
<asrwt>0</asrwt>
<pdfrwt beam="1">  1       21 0.14230757E-01 0.45752708E+03</pdfrwt>
<pdfrwt beam="2">  1       21 0.79529412E-01 0.45752708E+03</pdfrwt>
<totfact> 0.55311922E+04</totfact>
</mgrwt>
</event>
<event>
 7    0  0.4737014E-002  0.4589706E+03  0.7546771E-02  0.1025080E+00
         21   -1    0    0  502  501  0.00000000000E+00  0.00000000000E+00  0.15461738300E+03  0.15461738300E+03  0.00000000000E+00 0.  1.
         21   -1    0    0  501  502 -0.00000000000E+00 -0.00000000000E+00 -0.34060528964E+03  0.34060528964E+03  0.00000000000E+00 0.  1.
      99926    2    1    2    0    0  0.00000000000E+00  0.00000000000E+00 -0.18598790664E+03  0.49522267264E+03  0.45897058085E+03 0.  0.
      99925    2    3    3    0    0 -0.80031896906E+02 -0.44136668288E+02 -0.19519944857E+03  0.34002759986E+03  0.26298820113E+03 0.  0.
         25    1    3    3    0    0  0.80031896906E+02  0.44136668288E+02  0.92115419308E+01  0.15519507278E+03  0.12509000000E+03 0.  0.
         25    1    4    4    0    0 -0.29129786852E+02 -0.34880881418E+02 -0.51762310799E+02  0.14280078883E+03  0.12509000000E+03 0.  0.
         25    1    4    4    0    0 -0.50902110054E+02 -0.92557868700E+01 -0.14343713778E+03  0.19722681104E+03  0.12509000000E+03 0.  0.
<mgrwt>
<rscale>  2 0.45897058E+03</rscale>
<asrwt>0</asrwt>
<pdfrwt beam="1">  1       21 0.22737851E-01 0.45897058E+03</pdfrwt>
<pdfrwt beam="2">  1       21 0.50089012E-01 0.45897058E+03</pdfrwt>
<totfact> 0.63579746E+04</totfact>
</mgrwt>
</event>
<event>
 7    0  0.4737014E-002  0.4551590E+03  0.7546771E-02  0.1026195E+00
         21   -1    0    0  502  501  0.00000000000E+00  0.00000000000E+00  0.13493544725E+03  0.13493544725E+03  0.00000000000E+00 0. -1.
         21   -1    0    0  501  502 -0.00000000000E+00 -0.00000000000E+00 -0.38383117958E+03  0.38383117958E+03  0.00000000000E+00 0. -1.
      99926    2    1    2    0    0  0.00000000000E+00  0.00000000000E+00 -0.24889573233E+03  0.51876662683E+03  0.45515901346E+03 0.  0.
      99925    2    3    3    0    0 -0.20146235845E+02  0.10623505770E+03 -0.11806083455E+03  0.30791825268E+03  0.26302762473E+03 0.  0.
         25    1    3    3    0    0  0.20146235845E+02 -0.10623505770E+03 -0.13083489778E+03  0.21084837415E+03  0.12509000000E+03 0.  0.
         25    1    4    4    0    0  0.57944245141E+01  0.57636450871E+02 -0.19093385354E+02  0.13916752958E+03  0.12509000000E+03 0.  0.
         25    1    4    4    0    0 -0.25940660359E+02  0.48598606832E+02 -0.98967449196E+02  0.16875072310E+03  0.12509000000E+03 0.  0.
<mgrwt>
<rscale>  2 0.45515901E+03</rscale>
<asrwt>0</asrwt>
<pdfrwt beam="1">  1       21 0.19843448E-01 0.45515901E+03</pdfrwt>
<pdfrwt beam="2">  1       21 0.56445761E-01 0.45515901E+03</pdfrwt>
<totfact> 0.63890737E+04</totfact>
</mgrwt>
</event>
<event>
 7    0  0.4737014E-002  0.4540686E+03  0.7546771E-02  0.1026516E+00
         21   -1    0    0  502  501  0.00000000000E+00  0.00000000000E+00  0.85060707379E+03  0.85060707379E+03  0.00000000000E+00 0.  1.
         21   -1    0    0  501  502 -0.00000000000E+00 -0.00000000000E+00 -0.60597406235E+02  0.60597406235E+02  0.00000000000E+00 0.  1.
      99926    2    1    2    0    0  0.00000000000E+00  0.00000000000E+00  0.79000966755E+03  0.91120448002E+03  0.45406863973E+03 0.  0.
      99925    2    3    3    0    0  0.38504670711E+02  0.10455262807E+03  0.52539987697E+03  0.59802767520E+03  0.26301750491E+03 0.  0.
         25    1    4    4    0    0  0.38750631321E+02  0.80117631235E+02  0.33990336362E+03  0.37296414166E+03  0.12509000000E+03 0.  0.
         25    1    3    3    0    0 -0.38504670711E+02 -0.10455262807E+03  0.26460979058E+03  0.31317680482E+03  0.12509000000E+03 0.  0.
         25    1    4    4    0    0 -0.24596060921E+00  0.24434996837E+02  0.18549651334E+03  0.22506353354E+03  0.12509000000E+03 0.  0.
<mgrwt>
<rscale>  2 0.45406864E+03</rscale>
<asrwt>0</asrwt>
<pdfrwt beam="1">  1       21 0.12508927E+00 0.45406864E+03</pdfrwt>
<pdfrwt beam="2">  1       21 0.89113838E-02 0.45406864E+03</pdfrwt>
<totfact> 0.43065988E+04</totfact>
</mgrwt>
</event>
<event>
 7    0  0.4737014E-002  0.4517865E+03  0.7546771E-02  0.1027191E+00
         21   -1    0    0  502  501  0.00000000000E+00  0.00000000000E+00  0.60767949031E+02  0.60767949031E+02  0.00000000000E+00 0. -1.
         21   -1    0    0  501  502 -0.00000000000E+00 -0.00000000000E+00 -0.83971488876E+03  0.83971488876E+03  0.00000000000E+00 0. -1.
      99926    2    1    2    0    0  0.00000000000E+00 -0.14210854715E-13 -0.77894693973E+03  0.90048283779E+03  0.45178646089E+03 0.  0.
      99925    2    3    3    0    0 -0.56814587922E+01  0.10611209359E+03 -0.54916413295E+03  0.61810064683E+03  0.26301161441E+03 0.  0.
         25    1    4    4    0    0 -0.20170883323E+02  0.15853442184E+02 -0.22198142291E+03  0.25608876660E+03  0.12509000000E+03 0.  0.
         25    1    3    3    0    0  0.56814587922E+01 -0.10611209359E+03 -0.22978280679E+03  0.28238219097E+03  0.12509000000E+03 0.  0.
         25    1    4    4    0    0  0.14489424530E+02  0.90258651408E+02 -0.32718271004E+03  0.36201188023E+03  0.12509000000E+03 0.  0.
<mgrwt>
<rscale>  2 0.45178646E+03</rscale>
<asrwt>0</asrwt>
<pdfrwt beam="1">  1       21 0.89364633E-02 0.45178646E+03</pdfrwt>
<pdfrwt beam="2">  1       21 0.12348748E+00 0.45178646E+03</pdfrwt>
<totfact> 0.44317369E+04</totfact>
</mgrwt>
</event>
<event>
 7    0  0.4737014E-002  0.4382497E+03  0.7546771E-02  0.1031285E+00
         21   -1    0    0  502  501  0.00000000000E+00  0.00000000000E+00  0.54942948283E+02  0.54942948283E+02  0.00000000000E+00 0.  1.
         21   -1    0    0  501  502 -0.00000000000E+00 -0.00000000000E+00 -0.87391929086E+03  0.87391929086E+03  0.00000000000E+00 0.  1.
      99926    2    1    2    0    0  0.00000000000E+00  0.00000000000E+00 -0.81897634257E+03  0.92886223914E+03  0.43824971147E+03 0.  0.
      99925    2    3    3    0    0  0.41005780681E+02  0.85151835428E+02 -0.56765748663E+03  0.63265119177E+03  0.26283112298E+03 0.  0.
         25    1    4    4    0    0  0.30092009310E+02  0.83053754198E+02 -0.29136596133E+03  0.32915814836E+03  0.12509000000E+03 0.  0.
         25    1    3    3    0    0 -0.41005780681E+02 -0.85151835428E+02 -0.25131885595E+03  0.29621104736E+03  0.12509000000E+03 0.  0.
         25    1    4    4    0    0  0.10913771371E+02  0.20980812303E+01 -0.27629152530E+03  0.30349304341E+03  0.12509000000E+03 0.  0.
<mgrwt>
<rscale>  2 0.43824971E+03</rscale>
<asrwt>0</asrwt>
<pdfrwt beam="1">  1       21 0.80798464E-02 0.43824971E+03</pdfrwt>
<pdfrwt beam="2">  1       21 0.12851753E+00 0.43824971E+03</pdfrwt>
<totfact> 0.47994925E+04</totfact>
</mgrwt>
</event>
<event>
 7    0  0.4737014E-002  0.4539466E+03  0.7546771E-02  0.1026552E+00
         21   -1    0    0  502  501  0.00000000000E+00  0.00000000000E+00  0.12681208993E+04  0.12681208993E+04  0.00000000000E+00 0. -1.
         21   -1    0    0  501  502 -0.00000000000E+00 -0.00000000000E+00 -0.40624574960E+02  0.40624574960E+02  0.00000000000E+00 0. -1.
      99926    2    1    2    0    0  0.00000000000E+00  0.00000000000E+00  0.12274963243E+04  0.13087454743E+04  0.45394657189E+03 0.  0.
      99925    2    3    3    0    0 -0.70054479938E+02 -0.83148775926E+02  0.69562625869E+03  0.75165066730E+03  0.26317576786E+03 0.  0.
         25    1    3    3    0    0  0.70054479938E+02  0.83148775926E+02  0.53187006566E+03  0.55709480696E+03  0.12509000000E+03 0.  0.
         25    1    4    4    0    0 -0.32506603059E+02 -0.74940016691E+02  0.30376682518E+03  0.33851806085E+03  0.12509000000E+03 0.  0.
         25    1    4    4    0    0 -0.37547876880E+02 -0.82087592358E+01  0.39185943350E+03  0.41313260645E+03  0.12509000000E+03 0.  0.
<mgrwt>
<rscale>  2 0.45394657E+03</rscale>
<asrwt>0</asrwt>
<pdfrwt beam="1">  1       21 0.18648834E+00 0.45394657E+03</pdfrwt>
<pdfrwt beam="2">  1       21 0.59742030E-02 0.45394657E+03</pdfrwt>
<totfact> 0.29099409E+04</totfact>
</mgrwt>
</event>
<event>
 7    0  0.4737014E-002  0.4566902E+03  0.7546771E-02  0.1025746E+00
         21   -1    0    0  502  501  0.00000000000E+00  0.00000000000E+00  0.11691855201E+04  0.11691855201E+04  0.00000000000E+00 0. -1.
         21   -1    0    0  501  502 -0.00000000000E+00 -0.00000000000E+00 -0.44596409571E+02  0.44596409571E+02  0.00000000000E+00 0. -1.
      99926    2    1    2    0    0 -0.88817841970E-15 -0.71054273576E-14  0.11245891105E+04  0.12137819297E+04  0.45669016332E+03 0.  0.
      99925    2    3    3    0    0  0.66632569489E+01 -0.49188071697E+02  0.98155643980E+03  0.10173901824E+04  0.26299405582E+03 0.  0.
         25    1    4    4    0    0 -0.52565995529E+01  0.64348502031E+01  0.37273013735E+03  0.39324839800E+03  0.12509000000E+03 0.  0.
         25    1    4    4    0    0  0.11919856502E+02 -0.55622921900E+02  0.60882630244E+03  0.62414178443E+03  0.12509000000E+03 0.  0.
         25    1    3    3    0    0 -0.66632569489E+01  0.49188071697E+02  0.14303267074E+03  0.19639174725E+03  0.12509000000E+03 0.  0.
<mgrwt>
<rscale>  2 0.45669016E+03</rscale>
<asrwt>0</asrwt>
<pdfrwt beam="1">  1       21 0.17193903E+00 0.45669016E+03</pdfrwt>
<pdfrwt beam="2">  1       21 0.65582963E-02 0.45669016E+03</pdfrwt>
<totfact> 0.31307979E+04</totfact>
</mgrwt>
</event>
<event>
 7    0  0.4737014E-002  0.4464038E+03  0.7546771E-02  0.1028800E+00
         21   -1    0    0  502  501  0.00000000000E+00  0.00000000000E+00  0.45875150498E+02  0.45875150498E+02  0.00000000000E+00 0. -1.
         21   -1    0    0  501  502 -0.00000000000E+00 -0.00000000000E+00 -0.10859711498E+04  0.10859711498E+04  0.00000000000E+00 0. -1.
      99926    2    1    2    0    0  0.00000000000E+00  0.00000000000E+00 -0.10400959993E+04  0.11318463003E+04  0.44640380794E+03 0.  0.
      99925    2    3    3    0    0  0.21783249681E+02  0.28381828935E+02 -0.40948241899E+03  0.48795109613E+03  0.26294558861E+03 0.  0.
         25    1    4    4    0    0  0.16315081892E+01  0.26735633257E+02 -0.27431125608E+03  0.30267413040E+03  0.12509000000E+03 0.  0.
         25    1    4    4    0    0  0.20151741492E+02  0.16461956783E+01 -0.13517116292E+03  0.18527696573E+03  0.12509000000E+03 0.  0.
         25    1    3    3    0    0 -0.21783249681E+02 -0.28381828935E+02 -0.63061358036E+03  0.64389520422E+03  0.12509000000E+03 0.  0.
<mgrwt>
<rscale>  2 0.44640381E+03</rscale>
<asrwt>0</asrwt>
<pdfrwt beam="1">  1       21 0.67463454E-02 0.44640381E+03</pdfrwt>
<pdfrwt beam="2">  1       21 0.15970165E+00 0.44640381E+03</pdfrwt>
<totfact> 0.36798989E+04</totfact>
</mgrwt>
</event>
<event>
 7    0  0.4737014E-002  0.4542558E+03  0.7546771E-02  0.1026460E+00
         21   -1    0    0  502  501  0.00000000000E+00  0.00000000000E+00  0.14032697491E+04  0.14032697491E+04  0.00000000000E+00 0. -1.
         21   -1    0    0  501  502 -0.00000000000E+00 -0.00000000000E+00 -0.36762049824E+02  0.36762049824E+02  0.00000000000E+00 0. -1.
      99926    2    1    2    0    0 -0.14210854715E-13 -0.35527136788E-14  0.13665076992E+04  0.14400317989E+04  0.45425575365E+03 0.  0.
      99925    2    3    3    0    0 -0.11095801045E+03 -0.70315313170E+01  0.80642908454E+03  0.85548352435E+03  0.26298872511E+03 0.  0.
         25    1    3    3    0    0  0.11095801045E+03  0.70315313170E+01  0.56007861471E+03  0.58454827454E+03  0.12509000000E+03 0.  0.
         25    1    4    4    0    0 -0.31904000195E+02 -0.33567885939E+02  0.33155880539E+03  0.35738413189E+03  0.12509000000E+03 0.  0.
         25    1    4    4    0    0 -0.79054010254E+02  0.26536354622E+02  0.47487027914E+03  0.49809939246E+03  0.12509000000E+03 0.  0.
<mgrwt>
<rscale>  2 0.45425575E+03</rscale>
<asrwt>0</asrwt>
<pdfrwt beam="1">  1       21 0.20636316E+00 0.45425575E+03</pdfrwt>
<pdfrwt beam="2">  1       21 0.54061847E-02 0.45425575E+03</pdfrwt>
<totfact> 0.25431244E+04</totfact>
</mgrwt>
</event>
<event>
 7    0  0.4737014E-002  0.4541953E+03  0.7546771E-02  0.1026478E+00
         21   -1    0    0  502  501  0.00000000000E+00  0.00000000000E+00  0.74623443422E+03  0.74623443422E+03  0.00000000000E+00 0. -1.
         21   -1    0    0  501  502 -0.00000000000E+00 -0.00000000000E+00 -0.69111435082E+02  0.69111435082E+02  0.00000000000E+00 0. -1.
      99926    2    1    2    0    0  0.00000000000E+00  0.00000000000E+00  0.67712299914E+03  0.81534586930E+03  0.45419525606E+03 0.  0.
      99925    2    3    3    0    0 -0.27768027677E+02 -0.92411461988E+02  0.32275225358E+03  0.42735479328E+03  0.26296798375E+03 0.  0.
         25    1    3    3    0    0  0.27768027677E+02  0.92411461988E+02  0.35437074556E+03  0.38799107603E+03  0.12509000000E+03 0.  0.
         25    1    4    4    0    0 -0.45030441221E+02 -0.50042841556E+02  0.20602001473E+03  0.25024743994E+03  0.12509000000E+03 0.  0.
         25    1    4    4    0    0  0.17262413545E+02 -0.42368620433E+02  0.11673223885E+03  0.17710735334E+03  0.12509000000E+03 0.  0.
<mgrwt>
<rscale>  2 0.45419526E+03</rscale>
<asrwt>0</asrwt>
<pdfrwt beam="1">  1       21 0.10974035E+00 0.45419526E+03</pdfrwt>
<pdfrwt beam="2">  1       21 0.10163447E-01 0.45419526E+03</pdfrwt>
<totfact> 0.47329663E+04</totfact>
</mgrwt>
</event>
<event>
 7    0  0.4737014E-002  0.4683578E+03  0.7546771E-02  0.1022385E+00
         21   -1    0    0  502  501  0.00000000000E+00  0.00000000000E+00  0.10611931894E+03  0.10611931894E+03  0.00000000000E+00 0.  1.
         21   -1    0    0  501  502 -0.00000000000E+00 -0.00000000000E+00 -0.51677450516E+03  0.51677450516E+03  0.00000000000E+00 0.  1.
      99926    2    1    2    0    0  0.11102230246E-15  0.00000000000E+00 -0.41065518622E+03  0.62289382411E+03  0.46835780568E+03 0.  0.
      99925    2    3    3    0    0 -0.54186312616E+00  0.45056970211E+02 -0.10000379617E+03  0.28498522934E+03  0.26303117213E+03 0.  0.
         25    1    3    3    0    0  0.54186312616E+00 -0.45056970211E+02 -0.31065139005E+03  0.33790859477E+03  0.12509000000E+03 0.  0.
         25    1    4    4    0    0  0.58049107270E+01  0.52723277968E+02 -0.23132293660E+02  0.13782616638E+03  0.12509000000E+03 0.  0.
         25    1    4    4    0    0 -0.63467738532E+01 -0.76663077571E+01 -0.76871502508E+02  0.14715906296E+03  0.12509000000E+03 0.  0.
<mgrwt>
<rscale>  2 0.46835781E+03</rscale>
<asrwt>0</asrwt>
<pdfrwt beam="1">  1       21 0.15605782E-01 0.46835781E+03</pdfrwt>
<pdfrwt beam="2">  1       21 0.75996250E-01 0.46835781E+03</pdfrwt>
<totfact> 0.51625917E+04</totfact>
</mgrwt>
</event>
<event>
 7    0  0.4737014E-002  0.4566405E+03  0.7546771E-02  0.1025760E+00
         21   -1    0    0  502  501  0.00000000000E+00  0.00000000000E+00  0.52163754950E+02  0.52163754950E+02  0.00000000000E+00 0.  1.
         21   -1    0    0  501  502 -0.00000000000E+00 -0.00000000000E+00 -0.99935571576E+03  0.99935571576E+03  0.00000000000E+00 0.  1.
      99926    2    1    2    0    0  0.00000000000E+00  0.00000000000E+00 -0.94719196081E+03  0.10515194707E+04  0.45664054426E+03 0.  0.
      99925    2    3    3    0    0  0.58880348427E+02  0.94174843790E+02 -0.52942959563E+03  0.60150980582E+03  0.26302576515E+03 0.  0.
         25    1    4    4    0    0 -0.15781721078E+00  0.25572176524E+02 -0.19391530021E+03  0.23217366964E+03  0.12509000000E+03 0.  0.
         25    1    4    4    0    0  0.59038165638E+02  0.68602667266E+02 -0.33551429541E+03  0.36933613618E+03  0.12509000000E+03 0.  0.
         25    1    3    3    0    0 -0.58880348427E+02 -0.94174843790E+02 -0.41776236519E+03  0.45000966490E+03  0.12509000000E+03 0.  0.
<mgrwt>
<rscale>  2 0.45664054E+03</rscale>
<asrwt>0</asrwt>
<pdfrwt beam="1">  1       21 0.76711414E-02 0.45664054E+03</pdfrwt>
<pdfrwt beam="2">  1       21 0.14696406E+00 0.45664054E+03</pdfrwt>
<totfact> 0.36748868E+04</totfact>
</mgrwt>
</event>
<event>
 7    0  0.4737014E-002  0.4621567E+03  0.7546771E-02  0.1024158E+00
         21   -1    0    0  502  501  0.00000000000E+00  0.00000000000E+00  0.15025758133E+03  0.15025758133E+03  0.00000000000E+00 0.  1.
         21   -1    0    0  501  502 -0.00000000000E+00 -0.00000000000E+00 -0.35537104217E+03  0.35537104217E+03  0.00000000000E+00 0.  1.
      99926    2    1    2    0    0 -0.14210854715E-13 -0.88817841970E-15 -0.20511346085E+03  0.50562862350E+03  0.46215665426E+03 0.  0.
      99925    2    3    3    0    0 -0.89383388520E+02 -0.52081795595E+01 -0.41227217868E+02  0.28085601837E+03  0.26299031215E+03 0.  0.
         25    1    3    3    0    0  0.89383388520E+02  0.52081795595E+01 -0.16388624298E+03  0.22477260513E+03  0.12509000000E+03 0.  0.
         25    1    4    4    0    0 -0.14381097374E+02  0.13952038814E+02 -0.42869819243E+02  0.13374155992E+03  0.12509000000E+03 0.  0.
         25    1    4    4    0    0 -0.75002291146E+02 -0.19160218374E+02  0.16426013741E+01  0.14711445845E+03  0.12509000000E+03 0.  0.
<mgrwt>
<rscale>  2 0.46215665E+03</rscale>
<asrwt>0</asrwt>
<pdfrwt beam="1">  1       21 0.22096704E-01 0.46215665E+03</pdfrwt>
<pdfrwt beam="2">  1       21 0.52260446E-01 0.46215665E+03</pdfrwt>
<totfact> 0.61318858E+04</totfact>
</mgrwt>
</event>
<event>
 7    0  0.4737014E-002  0.4972950E+03  0.7546771E-02  0.1014487E+00
         21   -1    0    0  502  501  0.00000000000E+00  0.00000000000E+00  0.11018147528E+04  0.11018147528E+04  0.00000000000E+00 0.  1.
         21   -1    0    0  501  502 -0.00000000000E+00 -0.00000000000E+00 -0.56112493472E+02  0.56112493472E+02  0.00000000000E+00 0.  1.
      99926    2    1    2    0    0 -0.71054273576E-14  0.00000000000E+00  0.10457022593E+04  0.11579272463E+04  0.49729497533E+03 0.  0.
      99925    2    3    3    0    0  0.45483904682E+02 -0.14189008393E+03  0.60637873060E+03  0.67745429959E+03  0.26276906515E+03 0.  0.
         25    1    4    4    0    0 -0.23655137415E+01 -0.84810039544E+02  0.24527212904E+03  0.28810460574E+03  0.12509000000E+03 0.  0.
         25    1    3    3    0    0 -0.45483904682E+02  0.14189008393E+03  0.43932352872E+03  0.48047294668E+03  0.12509000000E+03 0.  0.
         25    1    4    4    0    0  0.47849418424E+02 -0.57080044385E+02  0.36110660156E+03  0.38934969385E+03  0.12509000000E+03 0.  0.
<mgrwt>
<rscale>  2 0.49729498E+03</rscale>
<asrwt>0</asrwt>
<pdfrwt beam="1">  1       21 0.16203157E+00 0.49729498E+03</pdfrwt>
<pdfrwt beam="2">  1       21 0.82518380E-02 0.49729498E+03</pdfrwt>
<totfact> 0.24420880E+04</totfact>
</mgrwt>
</event>
<event>
 7    0  0.4737014E-002  0.4617046E+03  0.7546771E-02  0.1024288E+00
         21   -1    0    0  502  501  0.00000000000E+00  0.00000000000E+00  0.22669013141E+02  0.22669013141E+02  0.00000000000E+00 0. -1.
         21   -1    0    0  501  502 -0.00000000000E+00 -0.00000000000E+00 -0.23509089795E+04  0.23509089795E+04  0.00000000000E+00 0. -1.
      99926    2    1    2    0    0  0.00000000000E+00  0.00000000000E+00 -0.23282399663E+04  0.23735779926E+04  0.46170460924E+03 0.  0.
      99925    2    3    3    0    0 -0.79077954258E+02 -0.88946831537E+02 -0.14448598164E+04  0.14734819650E+04  0.26337112633E+03 0.  0.
         25    1    4    4    0    0 -0.65361231885E+02 -0.29523157865E+02 -0.58970692097E+03  0.60707945792E+03  0.12509000000E+03 0.  0.
         25    1    3    3    0    0  0.79077954258E+02  0.88946831537E+02 -0.88338014989E+03  0.90009602766E+03  0.12509000000E+03 0.  0.
         25    1    4    4    0    0 -0.13716722374E+02 -0.59423673672E+02 -0.85515289547E+03  0.86640250704E+03  0.12509000000E+03 0.  0.
<mgrwt>
<rscale>  2 0.46170461E+03</rscale>
<asrwt>0</asrwt>
<pdfrwt beam="1">  1       21 0.33336789E-02 0.46170461E+03</pdfrwt>
<pdfrwt beam="2">  1       21 0.34572186E+00 0.46170461E+03</pdfrwt>
<totfact> 0.80838110E+03</totfact>
</mgrwt>
</event>
<event>
 7    0  0.4737014E-002  0.4547536E+03  0.7546771E-02  0.1026314E+00
         21   -1    0    0  502  501  0.00000000000E+00  0.00000000000E+00  0.73839060920E+02  0.73839060920E+02  0.00000000000E+00 0.  1.
         21   -1    0    0  501  502 -0.00000000000E+00 -0.00000000000E+00 -0.70017438157E+03  0.70017438157E+03  0.00000000000E+00 0.  1.
      99926    2    1    2    0    0  0.00000000000E+00  0.00000000000E+00 -0.62633532065E+03  0.77401344249E+03  0.45475364238E+03 0.  0.
      99925    2    3    3    0    0  0.68092825449E+02 -0.58899851059E+02 -0.27804741542E+03  0.39314890179E+03  0.26296362567E+03 0.  0.
         25    1    4    4    0    0  0.71459949666E+02 -0.19796346863E+02 -0.12625859246E+03  0.19258026905E+03  0.12509000000E+03 0.  0.
         25    1    3    3    0    0 -0.68092825449E+02  0.58899851059E+02 -0.34828790523E+03  0.38086454070E+03  0.12509000000E+03 0.  0.
         25    1    4    4    0    0 -0.33671242171E+01 -0.39103504196E+02 -0.15178882295E+03  0.20056863274E+03  0.12509000000E+03 0.  0.
<mgrwt>
<rscale>  2 0.45475364E+03</rscale>
<asrwt>0</asrwt>
<pdfrwt beam="1">  1       21 0.10858685E-01 0.45475364E+03</pdfrwt>
<pdfrwt beam="2">  1       21 0.10296682E+00 0.45475364E+03</pdfrwt>
<totfact> 0.49142405E+04</totfact>
</mgrwt>
</event>
<event>
 7    0  0.4737014E-002  0.4552057E+03  0.7546771E-02  0.1026181E+00
         21   -1    0    0  502  501  0.00000000000E+00  0.00000000000E+00  0.21136865760E+03  0.21136865760E+03  0.00000000000E+00 0. -1.
         21   -1    0    0  501  502 -0.00000000000E+00 -0.00000000000E+00 -0.24508389043E+03  0.24508389043E+03  0.00000000000E+00 0. -1.
      99926    2    1    2    0    0 -0.71054273576E-14  0.00000000000E+00 -0.33715232826E+02  0.45645254803E+03  0.45520568063E+03 0.  0.
      99925    2    3    3    0    0  0.48468051903E+02 -0.10046005509E+03 -0.42301876036E+02  0.28863534610E+03  0.26282986812E+03 0.  0.
         25    1    4    4    0    0 -0.15542757824E+02 -0.51628552512E+02 -0.29118270038E+02  0.13929273673E+03  0.12509000000E+03 0.  0.
         25    1    3    3    0    0 -0.48468051903E+02  0.10046005509E+03  0.85866432107E+01  0.16781720193E+03  0.12509000000E+03 0.  0.
         25    1    4    4    0    0  0.64010809727E+02 -0.48831502577E+02 -0.13183605999E+02  0.14934260937E+03  0.12509000000E+03 0.  0.
<mgrwt>
<rscale>  2 0.45520568E+03</rscale>
<asrwt>0</asrwt>
<pdfrwt beam="1">  1       21 0.31083626E-01 0.45520568E+03</pdfrwt>
<pdfrwt beam="2">  1       21 0.36041749E-01 0.45520568E+03</pdfrwt>
<totfact> 0.68327348E+04</totfact>
</mgrwt>
</event>
<event>
 7    0  0.4737014E-002  0.4560375E+03  0.7546771E-02  0.1025937E+00
         21   -1    0    0  502  501  0.00000000000E+00  0.00000000000E+00  0.73452937769E+03  0.73452937769E+03  0.00000000000E+00 0. -1.
         21   -1    0    0  501  502 -0.00000000000E+00 -0.00000000000E+00 -0.70783487906E+02  0.70783487906E+02  0.00000000000E+00 0. -1.
      99926    2    1    2    0    0  0.00000000000E+00  0.00000000000E+00  0.66374588979E+03  0.80531286560E+03  0.45603750426E+03 0.  0.
      99925    2    3    3    0    0  0.83946906956E+02 -0.75422029292E+02  0.38702880525E+03  0.48134462847E+03  0.26299389647E+03 0.  0.
         25    1    4    4    0    0  0.70519757432E+02 -0.42481102143E+02  0.25697009079E+03  0.29742026812E+03  0.12509000000E+03 0.  0.
         25    1    3    3    0    0 -0.83946906956E+02  0.75422029292E+02  0.27671708454E+03  0.32396823713E+03  0.12509000000E+03 0.  0.
         25    1    4    4    0    0  0.13427149524E+02 -0.32940927148E+02  0.13005871446E+03  0.18392436035E+03  0.12509000000E+03 0.  0.
<mgrwt>
<rscale>  2 0.45603750E+03</rscale>
<asrwt>0</asrwt>
<pdfrwt beam="1">  1       21 0.10801902E+00 0.45603750E+03</pdfrwt>
<pdfrwt beam="2">  1       21 0.10409337E-01 0.45603750E+03</pdfrwt>
<totfact> 0.47124056E+04</totfact>
</mgrwt>
</event>
<event>
 7    0  0.4737014E-002  0.4534706E+03  0.7546771E-02  0.1026692E+00
         21   -1    0    0  502  501  0.00000000000E+00  0.00000000000E+00  0.15634143974E+04  0.15634143974E+04  0.00000000000E+00 0. -1.
         21   -1    0    0  501  502 -0.00000000000E+00 -0.00000000000E+00 -0.32882450651E+02  0.32882450651E+02  0.00000000000E+00 0. -1.
      99926    2    1    2    0    0  0.00000000000E+00  0.71054273576E-14  0.15305319468E+04  0.15962968481E+04  0.45347060222E+03 0.  0.
      99925    2    3    3    0    0 -0.26370234047E+02 -0.54244281556E+02  0.63264480763E+03  0.68773388709E+03  0.26286995932E+03 0.  0.
         25    1    4    4    0    0 -0.10510244681E+02 -0.32053946268E+02  0.21614129458E+03  0.25199700006E+03  0.12509000000E+03 0.  0.
         25    1    3    3    0    0  0.26370234047E+02  0.54244281556E+02  0.89788713914E+03  0.90856296097E+03  0.12509000000E+03 0.  0.
         25    1    4    4    0    0 -0.15859989365E+02 -0.22190335288E+02  0.41650351305E+03  0.43573688704E+03  0.12509000000E+03 0.  0.
<mgrwt>
<rscale>  2 0.45347060E+03</rscale>
<asrwt>0</asrwt>
<pdfrwt beam="1">  1       21 0.22991383E+00 0.45347060E+03</pdfrwt>
<pdfrwt beam="2">  1       21 0.48356556E-02 0.45347060E+03</pdfrwt>
<totfact> 0.21771002E+04</totfact>
</mgrwt>
</event>
<event>
 7    0  0.4737014E-002  0.4877270E+03  0.7546771E-02  0.1017033E+00
         21   -1    0    0  502  501  0.00000000000E+00  0.00000000000E+00  0.18480834350E+03  0.18480834350E+03  0.00000000000E+00 0.  1.
         21   -1    0    0  501  502 -0.00000000000E+00 -0.00000000000E+00 -0.32178955775E+03  0.32178955775E+03  0.00000000000E+00 0.  1.
      99926    2    1    2    0    0  0.00000000000E+00  0.17763568394E-14 -0.13698121425E+03  0.50659790125E+03  0.48772695281E+03 0.  0.
      99925    2    3    3    0    0  0.10039208856E+03 -0.97055429841E+01  0.19352453451E+02  0.28240938066E+03  0.26307370036E+03 0.  0.
         25    1    4    4    0    0  0.78386420259E+02  0.17491326020E+02 -0.10867188089E+02  0.14905026415E+03  0.12509000000E+03 0.  0.
         25    1    3    3    0    0 -0.10039208856E+03  0.97055429841E+01 -0.15633366770E+03  0.22418852059E+03  0.12509000000E+03 0.  0.
         25    1    4    4    0    0  0.22005668300E+02 -0.27196869005E+02  0.30219641541E+02  0.13335911651E+03  0.12509000000E+03 0.  0.
<mgrwt>
<rscale>  2 0.48772695E+03</rscale>
<asrwt>0</asrwt>
<pdfrwt beam="1">  1       21 0.27177698E-01 0.48772695E+03</pdfrwt>
<pdfrwt beam="2">  1       21 0.47321993E-01 0.48772695E+03</pdfrwt>
<totfact> 0.50390531E+04</totfact>
</mgrwt>
</event>
<event>
 7    0  0.4737014E-002  0.4532320E+03  0.7546771E-02  0.1026763E+00
         21   -1    0    0  502  501  0.00000000000E+00  0.00000000000E+00  0.53066876510E+02  0.53066876510E+02  0.00000000000E+00 0. -1.
         21   -1    0    0  501  502 -0.00000000000E+00 -0.00000000000E+00 -0.96773778935E+03  0.96773778935E+03  0.00000000000E+00 0. -1.
      99926    2    1    2    0    0  0.00000000000E+00  0.14210854715E-13 -0.91467091284E+03  0.10208046659E+04  0.45323204548E+03 0.  0.
      99925    2    3    3    0    0  0.81401880611E+02 -0.75106029163E+02 -0.60316158150E+03  0.66731809837E+03  0.26313944826E+03 0.  0.
         25    1    3    3    0    0 -0.81401880611E+02  0.75106029163E+02 -0.31150933135E+03  0.35348656749E+03  0.12509000000E+03 0.  0.
         25    1    4    4    0    0  0.44064207207E+02 -0.46245625010E+01 -0.34382593981E+03  0.36854691143E+03  0.12509000000E+03 0.  0.
         25    1    4    4    0    0  0.37337673404E+02 -0.70481466662E+02 -0.25933564169E+03  0.29877118694E+03  0.12509000000E+03 0.  0.
<mgrwt>
<rscale>  2 0.45323205E+03</rscale>
<asrwt>0</asrwt>
<pdfrwt beam="1">  1       21 0.78039526E-02 0.45323205E+03</pdfrwt>
<pdfrwt beam="2">  1       21 0.14231438E+00 0.45323205E+03</pdfrwt>
<totfact> 0.38901425E+04</totfact>
</mgrwt>
</event>
<event>
 7    0  0.4737014E-002  0.4518670E+03  0.7546771E-02  0.1027167E+00
         21   -1    0    0  502  501  0.00000000000E+00  0.00000000000E+00  0.34600437921E+03  0.34600437921E+03  0.00000000000E+00 0. -1.
         21   -1    0    0  501  502 -0.00000000000E+00 -0.00000000000E+00 -0.14752977365E+03  0.14752977365E+03  0.00000000000E+00 0. -1.
      99926    2    1    2    0    0  0.00000000000E+00  0.00000000000E+00  0.19847460555E+03  0.49353415286E+03  0.45186700587E+03 0.  0.
      99925    2    3    3    0    0 -0.66540864243E+02  0.68074061153E+02  0.64704923687E+02  0.28712775688E+03  0.26304725280E+03 0.  0.
         25    1    3    3    0    0  0.66540864243E+02 -0.68074061153E+02  0.13376968187E+03  0.20640639598E+03  0.12509000000E+03 0.  0.
         25    1    4    4    0    0  0.29794866020E+01  0.13204706120E+02  0.19427299081E+02  0.12731131000E+03  0.12509000000E+03 0.  0.
         25    1    4    4    0    0 -0.69520350845E+02  0.54869355034E+02  0.45277624606E+02  0.15981644688E+03  0.12509000000E+03 0.  0.
<mgrwt>
<rscale>  2 0.45186701E+03</rscale>
<asrwt>0</asrwt>
<pdfrwt beam="1">  1       21 0.50882997E-01 0.45186701E+03</pdfrwt>
<pdfrwt beam="2">  1       21 0.21695555E-01 0.45186701E+03</pdfrwt>
<totfact> 0.67387823E+04</totfact>
</mgrwt>
</event>
<event>
 7    0  0.4737014E-002  0.4540950E+03  0.7546771E-02  0.1026508E+00
         21   -1    0    0  502  501  0.00000000000E+00  0.00000000000E+00  0.18886062564E+03  0.18886062564E+03  0.00000000000E+00 0.  1.
         21   -1    0    0  501  502 -0.00000000000E+00 -0.00000000000E+00 -0.27295566406E+03  0.27295566406E+03  0.00000000000E+00 0.  1.
      99926    2    1    2    0    0  0.00000000000E+00 -0.17763568394E-14 -0.84095038426E+02  0.46181628970E+03  0.45409504505E+03 0.  0.
      99925    2    3    3    0    0  0.19671595666E+02  0.15604534504E+02  0.58358586528E+02  0.27058078950E+03  0.26301666459E+03 0.  0.
         25    1    3    3    0    0 -0.19671595666E+02 -0.15604534504E+02 -0.14245362495E+03  0.19123550020E+03  0.12509000000E+03 0.  0.
         25    1    4    4    0    0  0.35251566836E+02  0.26496085987E+02  0.56160596454E+02  0.14403553808E+03  0.12509000000E+03 0.  0.
         25    1    4    4    0    0 -0.15579971170E+02 -0.10891551484E+02  0.21979900747E+01  0.12654525142E+03  0.12509000000E+03 0.  0.
<mgrwt>
<rscale>  2 0.45409505E+03</rscale>
<asrwt>0</asrwt>
<pdfrwt beam="1">  1       21 0.27773622E-01 0.45409505E+03</pdfrwt>
<pdfrwt beam="2">  1       21 0.40140539E-01 0.45409505E+03</pdfrwt>
<totfact> 0.68538859E+04</totfact>
</mgrwt>
</event>
<event>
 7    0  0.4737014E-002  0.4600632E+03  0.7546771E-02  0.1024763E+00
         21   -1    0    0  502  501  0.00000000000E+00  0.00000000000E+00  0.63980461617E+02  0.63980461617E+02  0.00000000000E+00 0.  1.
         21   -1    0    0  501  502 -0.00000000000E+00 -0.00000000000E+00 -0.82704206166E+03  0.82704206166E+03  0.00000000000E+00 0.  1.
      99926    2    1    2    0    0  0.00000000000E+00  0.00000000000E+00 -0.76306160004E+03  0.89102252327E+03  0.46006318210E+03 0.  0.
      99925    2    3    3    0    0 -0.10265629893E+03  0.56083208605E+02 -0.50675919802E+03  0.58276602070E+03  0.26292148658E+03 0.  0.
         25    1    4    4    0    0 -0.63343881198E+02 -0.56201250347E+01 -0.28791095521E+03  0.32028777579E+03  0.12509000000E+03 0.  0.
         25    1    4    4    0    0 -0.39312417732E+02  0.61703333640E+02 -0.21884824281E+03  0.26247824491E+03  0.12509000000E+03 0.  0.
         25    1    3    3    0    0  0.10265629893E+03 -0.56083208605E+02 -0.25630240202E+03  0.30825650257E+03  0.12509000000E+03 0.  0.
<mgrwt>
<rscale>  2 0.46006318E+03</rscale>
<asrwt>0</asrwt>
<pdfrwt beam="1">  1       21 0.94088914E-02 0.46006318E+03</pdfrwt>
<pdfrwt beam="2">  1       21 0.12162383E+00 0.46006318E+03</pdfrwt>
<totfact> 0.41936549E+04</totfact>
</mgrwt>
</event>
<event>
 7    0  0.4737014E-002  0.4560329E+03  0.7546771E-02  0.1025938E+00
         21   -1    0    0  502  501  0.00000000000E+00  0.00000000000E+00  0.14699868693E+04  0.14699868693E+04  0.00000000000E+00 0.  1.
         21   -1    0    0  501  502 -0.00000000000E+00 -0.00000000000E+00 -0.35368685084E+02  0.35368685084E+02  0.00000000000E+00 0.  1.
      99926    2    1    2    0    0  0.00000000000E+00  0.00000000000E+00  0.14346181842E+04  0.15053555544E+04  0.45603290521E+03 0.  0.
      99925    2    3    3    0    0  0.10762113296E+03  0.36293040763E+02  0.86583108622E+03  0.91200425539E+03  0.26303763784E+03 0.  0.
         25    1    3    3    0    0 -0.10762113296E+03 -0.36293040763E+02  0.56878709800E+03  0.59335129899E+03  0.12509000000E+03 0.  0.
         25    1    4    4    0    0  0.50427669553E+02  0.51861840776E+02  0.37005927914E+03  0.39727066160E+03  0.12509000000E+03 0.  0.
         25    1    4    4    0    0  0.57193463408E+02 -0.15568800013E+02  0.49577180707E+03  0.51473359379E+03  0.12509000000E+03 0.  0.
<mgrwt>
<rscale>  2 0.45603291E+03</rscale>
<asrwt>0</asrwt>
<pdfrwt beam="1">  1       21 0.21617450E+00 0.45603291E+03</pdfrwt>
<pdfrwt beam="2">  1       21 0.52012782E-02 0.45603291E+03</pdfrwt>
<totfact> 0.23459398E+04</totfact>
</mgrwt>
</event>
<event>
 7    0  0.4737014E-002  0.4547236E+03  0.7546771E-02  0.1026323E+00
         21   -1    0    0  502  501  0.00000000000E+00  0.00000000000E+00  0.72769411142E+02  0.72769411142E+02  0.00000000000E+00 0. -1.
         21   -1    0    0  501  502 -0.00000000000E+00 -0.00000000000E+00 -0.71037264450E+03  0.71037264450E+03  0.00000000000E+00 0. -1.
      99926    2    1    2    0    0  0.88817841970E-15  0.00000000000E+00 -0.63760323336E+03  0.78314205564E+03  0.45472364808E+03 0.  0.
      99925    2    3    3    0    0  0.55150206105E+01 -0.45926783489E+02 -0.22388987601E+03  0.34846293831E+03  0.26298299927E+03 0.  0.
         25    1    4    4    0    0 -0.49829784752E+01  0.93118706706E+01 -0.75903753588E+02  0.14669842848E+03  0.12509000000E+03 0.  0.
         25    1    3    3    0    0 -0.55150206105E+01  0.45926783489E+02 -0.41371335735E+03  0.43467911733E+03  0.12509000000E+03 0.  0.
         25    1    4    4    0    0  0.10497999086E+02 -0.55238654160E+02 -0.14798612242E+03  0.20176450983E+03  0.12509000000E+03 0.  0.
<mgrwt>
<rscale>  2 0.45472365E+03</rscale>
<asrwt>0</asrwt>
<pdfrwt beam="1">  1       21 0.10701385E-01 0.45472365E+03</pdfrwt>
<pdfrwt beam="2">  1       21 0.10446656E+00 0.45472365E+03</pdfrwt>
<totfact> 0.48696598E+04</totfact>
</mgrwt>
</event>
<event>
 7    0  0.4737014E-002  0.4571475E+03  0.7546771E-02  0.1025612E+00
         21   -1    0    0  502  501  0.00000000000E+00  0.00000000000E+00  0.47641833327E+03  0.47641833327E+03  0.00000000000E+00 0. -1.
         21   -1    0    0  501  502 -0.00000000000E+00 -0.00000000000E+00 -0.10966402365E+03  0.10966402365E+03  0.00000000000E+00 0. -1.
      99926    2    1    2    0    0  0.44408920985E-15  0.00000000000E+00  0.36675430962E+03  0.58608235692E+03  0.45714746578E+03 0.  0.
      99925    2    3    3    0    0  0.29008265857E+01 -0.93971610638E+02  0.31554909763E+03  0.42143558278E+03  0.26305444117E+03 0.  0.
         25    1    3    3    0    0 -0.29008265857E+01  0.93971610638E+02  0.51205211995E+02  0.16464677414E+03  0.12509000000E+03 0.  0.
         25    1    4    4    0    0 -0.10527180204E+02 -0.11262508567E+02  0.11466287061E+03  0.17038998685E+03  0.12509000000E+03 0.  0.
         25    1    4    4    0    0  0.13428006789E+02 -0.82709102071E+02  0.20088622701E+03  0.25104559593E+03  0.12509000000E+03 0.  0.
<mgrwt>
<rscale>  2 0.45714747E+03</rscale>
<asrwt>0</asrwt>
<pdfrwt beam="1">  1       21 0.70061519E-01 0.45714747E+03</pdfrwt>
<pdfrwt beam="2">  1       21 0.16127062E-01 0.45714747E+03</pdfrwt>
<totfact> 0.58543127E+04</totfact>
</mgrwt>
</event>
<event>
 7    0  0.4737014E-002  0.4521108E+03  0.7546771E-02  0.1027094E+00
         21   -1    0    0  502  501  0.00000000000E+00  0.00000000000E+00  0.10996907969E+04  0.10996907969E+04  0.00000000000E+00 0.  1.
         21   -1    0    0  501  502 -0.00000000000E+00 -0.00000000000E+00 -0.46468548465E+02  0.46468548465E+02  0.00000000000E+00 0.  1.
      99926    2    1    2    0    0  0.00000000000E+00  0.71054273576E-14  0.10532222484E+04  0.11461593454E+04  0.45211076118E+03 0.  0.
      99925    2    3    3    0    0  0.76051605662E+02 -0.50066713373E+02  0.82271538206E+03  0.86854189985E+03  0.26308536523E+03 0.  0.
         25    1    4    4    0    0  0.32852424708E+02  0.15968739175E+02  0.36971462788E+03  0.39200854150E+03  0.12509000000E+03 0.  0.
         25    1    4    4    0    0  0.43199180953E+02 -0.66035452548E+02  0.45300075418E+03  0.47653335834E+03  0.12509000000E+03 0.  0.
         25    1    3    3    0    0 -0.76051605662E+02  0.50066713373E+02  0.23050686638E+03  0.27761744553E+03  0.12509000000E+03 0.  0.
<mgrwt>
<rscale>  2 0.45211076E+03</rscale>
<asrwt>0</asrwt>
<pdfrwt beam="1">  1       21 0.16171922E+00 0.45211076E+03</pdfrwt>
<pdfrwt beam="2">  1       21 0.68336108E-02 0.45211076E+03</pdfrwt>
<totfact> 0.34685369E+04</totfact>
</mgrwt>
</event>
<event>
 7    0  0.4737014E-002  0.4523201E+03  0.7546771E-02  0.1027032E+00
         21   -1    0    0  502  501  0.00000000000E+00  0.00000000000E+00  0.49657517724E+02  0.49657517724E+02  0.00000000000E+00 0.  1.
         21   -1    0    0  501  502 -0.00000000000E+00 -0.00000000000E+00 -0.10300224806E+04  0.10300224806E+04  0.00000000000E+00 0.  1.
      99926    2    1    2    0    0  0.14210854715E-13  0.00000000000E+00 -0.98036496283E+03  0.10796799983E+04  0.45232006183E+03 0.  0.
      99925    2    3    3    0    0 -0.69592221980E+02 -0.56436362234E+02 -0.46336914309E+03  0.54027261413E+03  0.26297413270E+03 0.  0.
         25    1    4    4    0    0 -0.71382539011E+02 -0.25570798703E+02 -0.28348964591E+03  0.31900347970E+03  0.12509000000E+03 0.  0.
         25    1    4    4    0    0  0.17903170306E+01 -0.30865563531E+02 -0.17987949718E+03  0.22126913443E+03  0.12509000000E+03 0.  0.
         25    1    3    3    0    0  0.69592221980E+02  0.56436362234E+02 -0.51699581974E+03  0.53940738415E+03  0.12509000000E+03 0.  0.
<mgrwt>
<rscale>  2 0.45232006E+03</rscale>
<asrwt>0</asrwt>
<pdfrwt beam="1">  1       21 0.73025764E-02 0.45232006E+03</pdfrwt>
<pdfrwt beam="2">  1       21 0.15147389E+00 0.45232006E+03</pdfrwt>
<totfact> 0.36973958E+04</totfact>
</mgrwt>
</event>
<event>
 7    0  0.4737014E-002  0.4544733E+03  0.7546771E-02  0.1026396E+00
         21   -1    0    0  502  501  0.00000000000E+00  0.00000000000E+00  0.30678555365E+02  0.30678555365E+02  0.00000000000E+00 0. -1.
         21   -1    0    0  501  502 -0.00000000000E+00 -0.00000000000E+00 -0.16831464485E+04  0.16831464485E+04  0.00000000000E+00 0. -1.
      99926    2    1    2    0    0  0.00000000000E+00  0.00000000000E+00 -0.16524678931E+04  0.17138250039E+04  0.45447332818E+03 0.  0.
      99925    2    3    3    0    0  0.16962400689E+02  0.10223332227E+03 -0.12068085516E+04  0.12394842698E+04  0.26304942422E+03 0.  0.
         25    1    3    3    0    0 -0.16962400689E+02 -0.10223332227E+03 -0.44565934152E+03  0.47434073408E+03  0.12509000000E+03 0.  0.
         25    1    4    4    0    0  0.20299283102E+02  0.26610476444E+02 -0.43154061413E+03  0.45054965109E+03  0.12509000000E+03 0.  0.
         25    1    4    4    0    0 -0.33368824129E+01  0.75622845824E+02 -0.77526793747E+03  0.78893461869E+03  0.12509000000E+03 0.  0.
<mgrwt>
<rscale>  2 0.45447333E+03</rscale>
<asrwt>0</asrwt>
<pdfrwt beam="1">  1       21 0.45115529E-02 0.45447333E+03</pdfrwt>
<pdfrwt beam="2">  1       21 0.24752150E+00 0.45447333E+03</pdfrwt>
<totfact> 0.19053334E+04</totfact>
</mgrwt>
</event>
<event>
 7    0  0.4737014E-002  0.4584485E+03  0.7546771E-02  0.1025232E+00
         21   -1    0    0  502  501  0.00000000000E+00  0.00000000000E+00  0.11208479379E+03  0.11208479379E+03  0.00000000000E+00 0. -1.
         21   -1    0    0  501  502 -0.00000000000E+00 -0.00000000000E+00 -0.46878583734E+03  0.46878583734E+03  0.00000000000E+00 0. -1.
      99926    2    1    2    0    0  0.00000000000E+00  0.14210854715E-13 -0.35670104355E+03  0.58087063113E+03  0.45844853107E+03 0.  0.
      99925    2    3    3    0    0  0.26785051853E+02 -0.86845277603E+02 -0.13157330440E+03  0.30775975936E+03  0.26295435689E+03 0.  0.
         25    1    4    4    0    0  0.22020439659E+02 -0.35967730747E+01 -0.48552723917E+02  0.13602467291E+03  0.12509000000E+03 0.  0.
         25    1    4    4    0    0  0.47646121939E+01 -0.83248504528E+02 -0.83020580487E+02  0.17173508646E+03  0.12509000000E+03 0.  0.
         25    1    3    3    0    0 -0.26785051853E+02  0.86845277603E+02 -0.22512773915E+03  0.27311087177E+03  0.12509000000E+03 0.  0.
<mgrwt>
<rscale>  2 0.45844853E+03</rscale>
<asrwt>0</asrwt>
<pdfrwt beam="1">  1       21 0.16483058E-01 0.45844853E+03</pdfrwt>
<pdfrwt beam="2">  1       21 0.68939094E-01 0.45844853E+03</pdfrwt>
<totfact> 0.58266623E+04</totfact>
</mgrwt>
</event>
<event>
 7    0  0.4737014E-002  0.4550184E+03  0.7546771E-02  0.1026236E+00
         21   -1    0    0  502  501  0.00000000000E+00  0.00000000000E+00  0.14937214758E+03  0.14937214758E+03  0.00000000000E+00 0. -1.
         21   -1    0    0  501  502 -0.00000000000E+00 -0.00000000000E+00 -0.34651993842E+03  0.34651993842E+03  0.00000000000E+00 0. -1.
      99926    2    1    2    0    0  0.00000000000E+00  0.00000000000E+00 -0.19714779084E+03  0.49589208601E+03  0.45501836175E+03 0.  0.
      99925    2    3    3    0    0 -0.86806620210E+02  0.20109129568E+02 -0.20017828098E+03  0.34228069849E+03  0.26295430398E+03 0.  0.
         25    1    4    4    0    0 -0.58811003450E+02  0.46716924930E+01 -0.57286157349E+02  0.14969893373E+03  0.12509000000E+03 0.  0.
         25    1    4    4    0    0 -0.27995616760E+02  0.15437437075E+02 -0.14289212363E+03  0.19258176475E+03  0.12509000000E+03 0.  0.
         25    1    3    3    0    0  0.86806620210E+02 -0.20109129568E+02  0.30304901358E+01  0.15361138752E+03  0.12509000000E+03 0.  0.
<mgrwt>
<rscale>  2 0.45501836E+03</rscale>
<asrwt>0</asrwt>
<pdfrwt beam="1">  1       21 0.21966493E-01 0.45501836E+03</pdfrwt>
<pdfrwt beam="2">  1       21 0.50958814E-01 0.45501836E+03</pdfrwt>
<totfact> 0.65550669E+04</totfact>
</mgrwt>
</event>
<event>
 7    0  0.4737014E-002  0.4598309E+03  0.7546771E-02  0.1024830E+00
         21   -1    0    0  502  501  0.00000000000E+00  0.00000000000E+00  0.42792746658E+02  0.42792746658E+02  0.00000000000E+00 0.  1.
         21   -1    0    0  501  502 -0.00000000000E+00 -0.00000000000E+00 -0.12352818633E+04  0.12352818633E+04  0.00000000000E+00 0.  1.
      99926    2    1    2    0    0  0.00000000000E+00  0.00000000000E+00 -0.11924891166E+04  0.12780746100E+04  0.45983085511E+03 0.  0.
      99925    2    3    3    0    0  0.18116797742E+02  0.24398797407E+02 -0.43158897130E+03  0.50636219010E+03  0.26307814000E+03 0.  0.
         25    1    4    4    0    0  0.47493201001E+02  0.22091111149E+02 -0.20317769587E+03  0.24427915493E+03  0.12509000000E+03 0.  0.
         25    1    3    3    0    0 -0.18116797742E+02 -0.24398797407E+02 -0.76090014535E+03  0.77171241986E+03  0.12509000000E+03 0.  0.
         25    1    4    4    0    0 -0.29376403258E+02  0.23076862577E+01 -0.22841127543E+03  0.26208303518E+03  0.12509000000E+03 0.  0.
<mgrwt>
<rscale>  2 0.45983086E+03</rscale>
<asrwt>0</asrwt>
<pdfrwt beam="1">  1       21 0.62930516E-02 0.45983086E+03</pdfrwt>
<pdfrwt beam="2">  1       21 0.18165908E+00 0.45983086E+03</pdfrwt>
<totfact> 0.28665276E+04</totfact>
</mgrwt>
</event>
<event>
 7    0  0.4737014E-002  0.4703761E+03  0.7546771E-02  0.1021814E+00
         21   -1    0    0  502  501  0.00000000000E+00  0.00000000000E+00  0.24249032650E+03  0.24249032650E+03  0.00000000000E+00 0.  1.
         21   -1    0    0  501  502 -0.00000000000E+00 -0.00000000000E+00 -0.22810567743E+03  0.22810567743E+03  0.00000000000E+00 0.  1.
      99926    2    1    2    0    0 -0.26645352591E-14  0.00000000000E+00  0.14384649068E+02  0.47059600393E+03  0.47037610568E+03 0.  0.
      99925    2    3    3    0    0 -0.39642957754E+01 -0.93267752256E+02  0.95054220763E+02  0.29489831713E+03  0.26308767228E+03 0.  0.
         25    1    4    4    0    0  0.32859648967E+02 -0.54925647194E+02  0.27743258703E+02  0.14322632354E+03  0.12509000000E+03 0.  0.
         25    1    3    3    0    0  0.39642957754E+01  0.93267752256E+02 -0.80669571694E+02  0.17569768681E+03  0.12509000000E+03 0.  0.
         25    1    4    4    0    0 -0.36823944743E+02 -0.38342105062E+02  0.67310962060E+02  0.15167199359E+03  0.12509000000E+03 0.  0.
<mgrwt>
<rscale>  2 0.47037611E+03</rscale>
<asrwt>0</asrwt>
<pdfrwt beam="1">  1       21 0.35660342E-01 0.47037611E+03</pdfrwt>
<pdfrwt beam="2">  1       21 0.33544952E-01 0.47037611E+03</pdfrwt>
<totfact> 0.59744869E+04</totfact>
</mgrwt>
</event>
<event>
 7    0  0.4737014E-002  0.4589570E+03  0.7546771E-02  0.1025084E+00
         21   -1    0    0  502  501  0.00000000000E+00  0.00000000000E+00  0.57978203513E+03  0.57978203513E+03  0.00000000000E+00 0.  1.
         21   -1    0    0  501  502 -0.00000000000E+00 -0.00000000000E+00 -0.90827876175E+02  0.90827876175E+02  0.00000000000E+00 0.  1.
      99926    2    1    2    0    0  0.00000000000E+00 -0.71054273576E-14  0.48895415896E+03  0.67060991131E+03  0.45895695177E+03 0.  0.
      99925    2    3    3    0    0  0.10146278605E+03 -0.55092953793E+02  0.33291418752E+03  0.43968587338E+03  0.26298646445E+03 0.  0.
         25    1    4    4    0    0  0.94900787539E+01 -0.24950095379E+02  0.16850094346E+03  0.21154820941E+03  0.12509000000E+03 0.  0.
         25    1    3    3    0    0 -0.10146278605E+03  0.55092953793E+02  0.15603997143E+03  0.23092403793E+03  0.12509000000E+03 0.  0.
         25    1    4    4    0    0  0.91972707291E+02 -0.30142858415E+02  0.16441324406E+03  0.22813766397E+03  0.12509000000E+03 0.  0.
<mgrwt>
<rscale>  2 0.45895695E+03</rscale>
<asrwt>0</asrwt>
<pdfrwt beam="1">  1       21 0.85262062E-01 0.45895695E+03</pdfrwt>
<pdfrwt beam="2">  1       21 0.13357041E-01 0.45895695E+03</pdfrwt>
<totfact> 0.52859729E+04</totfact>
</mgrwt>
</event>
<event>
 7    0  0.4737014E-002  0.4524601E+03  0.7546771E-02  0.1026991E+00
         21   -1    0    0  502  501  0.00000000000E+00  0.00000000000E+00  0.19863535490E+03  0.19863535490E+03  0.00000000000E+00 0. -1.
         21   -1    0    0  501  502 -0.00000000000E+00 -0.00000000000E+00 -0.25765822964E+03  0.25765822964E+03  0.00000000000E+00 0. -1.
      99926    2    1    2    0    0  0.00000000000E+00 -0.14210854715E-13 -0.59022874737E+02  0.45629358454E+03  0.45246009277E+03 0.  0.
      99925    2    3    3    0    0 -0.36086149535E+02 -0.82244296401E+02  0.28336948047E+02  0.27924675115E+03  0.26288672641E+03 0.  0.
         25    1    4    4    0    0 -0.41078028177E+02 -0.80775746519E+01  0.61296724570E+01  0.13205200716E+03  0.12509000000E+03 0.  0.
         25    1    3    3    0    0  0.36086149535E+02  0.82244296401E+02 -0.87359822784E+02  0.17704683340E+03  0.12509000000E+03 0.  0.
         25    1    4    4    0    0  0.49918786416E+01 -0.74166721749E+02  0.22207275590E+02  0.14719474398E+03  0.12509000000E+03 0.  0.
<mgrwt>
<rscale>  2 0.45246009E+03</rscale>
<asrwt>0</asrwt>
<pdfrwt beam="1">  1       21 0.29211082E-01 0.45246009E+03</pdfrwt>
<pdfrwt beam="2">  1       21 0.37890916E-01 0.45246009E+03</pdfrwt>
<totfact> 0.69855783E+04</totfact>
</mgrwt>
</event>
<event>
 7    0  0.4737014E-002  0.4580331E+03  0.7546771E-02  0.1025353E+00
         21   -1    0    0  502  501  0.00000000000E+00  0.00000000000E+00  0.34244986015E+03  0.34244986015E+03  0.00000000000E+00 0. -1.
         21   -1    0    0  501  502 -0.00000000000E+00 -0.00000000000E+00 -0.15315695869E+03  0.15315695869E+03  0.00000000000E+00 0. -1.
      99926    2    1    2    0    0  0.00000000000E+00  0.00000000000E+00  0.18929290146E+03  0.49560681885E+03  0.45803309525E+03 0.  0.
      99925    2    3    3    0    0 -0.69229919061E+02  0.84680317864E+02  0.76733779063E+02  0.29490653967E+03  0.26290351151E+03 0.  0.
         25    1    3    3    0    0  0.69229919061E+02 -0.84680317864E+02  0.11255912240E+03  0.20070027918E+03  0.12509000000E+03 0.  0.
         25    1    4    4    0    0 -0.61190166281E+02  0.75906181550E+02  0.51433015003E+02  0.16672986529E+03  0.12509000000E+03 0.  0.
         25    1    4    4    0    0 -0.80397527802E+01  0.87741363147E+01  0.25300764060E+02  0.12817667438E+03  0.12509000000E+03 0.  0.
<mgrwt>
<rscale>  2 0.45803310E+03</rscale>
<asrwt>0</asrwt>
<pdfrwt beam="1">  1       21 0.50360274E-01 0.45803310E+03</pdfrwt>
<pdfrwt beam="2">  1       21 0.22523082E-01 0.45803310E+03</pdfrwt>
<totfact> 0.64024840E+04</totfact>
</mgrwt>
</event>
<event>
 7    0  0.4737014E-002  0.4558879E+03  0.7546771E-02  0.1025981E+00
         21   -1    0    0  502  501  0.00000000000E+00  0.00000000000E+00  0.19126868736E+03  0.19126868736E+03  0.00000000000E+00 0.  1.
         21   -1    0    0  501  502 -0.00000000000E+00 -0.00000000000E+00 -0.27165160936E+03  0.27165160936E+03  0.00000000000E+00 0.  1.
      99926    2    1    2    0    0  0.35527136788E-14  0.00000000000E+00 -0.80382921997E+02  0.46292029672E+03  0.45588791053E+03 0.  0.
      99925    2    3    3    0    0 -0.25331061055E+02  0.17616304001E+02 -0.16194808303E+03  0.31043298441E+03  0.26303889330E+03 0.  0.
         25    1    3    3    0    0  0.25331061055E+02 -0.17616304001E+02  0.81565161035E+02  0.15248731231E+03  0.12509000000E+03 0.  0.
         25    1    4    4    0    0 -0.45381056535E+02  0.32433635130E+02 -0.76119082534E+02  0.15669398140E+03  0.12509000000E+03 0.  0.
         25    1    4    4    0    0  0.20049995480E+02 -0.14817331129E+02 -0.85829000498E+02  0.15373900301E+03  0.12509000000E+03 0.  0.
<mgrwt>
<rscale>  2 0.45588791E+03</rscale>
<asrwt>0</asrwt>
<pdfrwt beam="1">  1       21 0.28127748E-01 0.45588791E+03</pdfrwt>
<pdfrwt beam="2">  1       21 0.39948766E-01 0.45588791E+03</pdfrwt>
<totfact> 0.67487163E+04</totfact>
</mgrwt>
</event>
<event>
 6    0  0.4737014E-002  0.4694310E+03  0.7546771E-02  0.1022081E+00
         21   -1    0    0  502  501  0.00000000000E+00  0.00000000000E+00  0.15664922418E+03  0.15664922418E+03  0.00000000000E+00 0.  1.
         21   -1    0    0  501  502 -0.00000000000E+00 -0.00000000000E+00 -0.35168622735E+03  0.35168622735E+03  0.00000000000E+00 0.  1.
      99926    2    1    2    0    0  0.00000000000E+00  0.00000000000E+00 -0.19503700317E+03  0.50833545153E+03  0.46943103719E+03 0.  0.
         25    1    3    3    0    0 -0.31848953829E+02  0.27823989747E+02 -0.17911100057E+03  0.22252368164E+03  0.12509000000E+03 0.  0.
         25    1    3    3    0    0 -0.34426569383E+02 -0.15134745273E+01 -0.47915138921E+02  0.13831430845E+03  0.12509000000E+03 0.  0.
         25    1    3    3    0    0  0.66275523212E+02 -0.26310515220E+02  0.31989136317E+02  0.14749746144E+03  0.12509000000E+03 0.  0.
<mgrwt>
<rscale>  2 0.46943104E+03</rscale>
<asrwt>0</asrwt>
<pdfrwt beam="1">  1       21 0.23036651E-01 0.46943104E+03</pdfrwt>
<pdfrwt beam="2">  1       21 0.51718562E-01 0.46943104E+03</pdfrwt>
<totfact> 0.57780852E+04</totfact>
</mgrwt>
</event>
<event>
 7    0  0.4737014E-002  0.4556118E+03  0.7546771E-02  0.1026062E+00
         21   -1    0    0  502  501  0.00000000000E+00  0.00000000000E+00  0.38771341361E+02  0.38771341361E+02  0.00000000000E+00 0. -1.
         21   -1    0    0  501  502 -0.00000000000E+00 -0.00000000000E+00 -0.13385022014E+04  0.13385022014E+04  0.00000000000E+00 0. -1.
      99926    2    1    2    0    0 -0.71054273576E-14  0.00000000000E+00 -0.12997308601E+04  0.13772735428E+04  0.45561178986E+03 0.  0.
      99925    2    3    3    0    0  0.44019416595E+02 -0.55573513939E+02 -0.54840447317E+03  0.61231277763E+03  0.26297023969E+03 0.  0.
         25    1    3    3    0    0 -0.44019416595E+02  0.55573513939E+02 -0.75132638689E+03  0.76496076516E+03  0.12509000000E+03 0.  0.
         25    1    4    4    0    0 -0.87332871551E+01 -0.42197679811E+02 -0.31999219131E+03  0.34626496370E+03  0.12509000000E+03 0.  0.
         25    1    4    4    0    0  0.52752703750E+02 -0.13375834128E+02 -0.22841228186E+03  0.26604781393E+03  0.12509000000E+03 0.  0.
<mgrwt>
<rscale>  2 0.45561179E+03</rscale>
<asrwt>0</asrwt>
<pdfrwt beam="1">  1       21 0.57016672E-02 0.45561179E+03</pdfrwt>
<pdfrwt beam="2">  1       21 0.19683858E+00 0.45561179E+03</pdfrwt>
<totfact> 0.26816234E+04</totfact>
</mgrwt>
</event>
<event>
 7    0  0.4737014E-002  0.4584116E+03  0.7546771E-02  0.1025243E+00
         21   -1    0    0  502  501  0.00000000000E+00  0.00000000000E+00  0.23657233967E+03  0.23657233967E+03  0.00000000000E+00 0.  1.
         21   -1    0    0  501  502 -0.00000000000E+00 -0.00000000000E+00 -0.22206861891E+03  0.22206861891E+03  0.00000000000E+00 0.  1.
      99926    2    1    2    0    0 -0.71054273576E-14  0.00000000000E+00  0.14503720767E+02  0.45864095858E+03  0.45841157377E+03 0.  0.
      99925    2    3    3    0    0 -0.58812036725E+02  0.84476228758E+02 -0.45184730116E+02  0.28599881958E+03  0.26298018191E+03 0.  0.
         25    1    3    3    0    0  0.58812036725E+02 -0.84476228758E+02  0.59688450883E+02  0.17264213900E+03  0.12509000000E+03 0.  0.
         25    1    4    4    0    0 -0.10812020216E+02  0.52869915160E+01 -0.32762925946E+02  0.12986827741E+03  0.12509000000E+03 0.  0.
         25    1    4    4    0    0 -0.48000016509E+02  0.79189237242E+02 -0.12421804170E+02  0.15613054217E+03  0.12509000000E+03 0.  0.
<mgrwt>
<rscale>  2 0.45841157E+03</rscale>
<asrwt>0</asrwt>
<pdfrwt beam="1">  1       21 0.34790050E-01 0.45841157E+03</pdfrwt>
<pdfrwt beam="2">  1       21 0.32657150E-01 0.45841157E+03</pdfrwt>
<totfact> 0.66452502E+04</totfact>
</mgrwt>
</event>
<event>
 7    0  0.4737014E-002  0.4811307E+03  0.7546771E-02  0.1018825E+00
         21   -1    0    0  502  501  0.00000000000E+00  0.00000000000E+00  0.24288391901E+03  0.24288391901E+03  0.00000000000E+00 0.  1.
         21   -1    0    0  501  502 -0.00000000000E+00 -0.00000000000E+00 -0.23826892398E+03  0.23826892398E+03  0.00000000000E+00 0.  1.
      99926    2    1    2    0    0  0.00000000000E+00  0.17208456882E-14  0.46149950325E+01  0.48115284300E+03  0.48113071004E+03 0.  0.
      99925    2    3    3    0    0 -0.49915894840E+02  0.47749102998E+00 -0.12386588354E+03  0.29501668634E+03  0.26305942971E+03 0.  0.
         25    1    3    3    0    0  0.49915894840E+02 -0.47749102998E+00  0.12848087857E+03  0.18613615665E+03  0.12509000000E+03 0.  0.
         25    1    4    4    0    0 -0.31766902452E+02 -0.39389925538E+02 -0.55767155208E+02  0.14600748620E+03  0.12509000000E+03 0.  0.
         25    1    4    4    0    0 -0.18148992388E+02  0.39867416568E+02 -0.68098728330E+02  0.14900920015E+03  0.12509000000E+03 0.  0.
<mgrwt>
<rscale>  2 0.48113071E+03</rscale>
<asrwt>0</asrwt>
<pdfrwt beam="1">  1       21 0.35718224E-01 0.48113071E+03</pdfrwt>
<pdfrwt beam="2">  1       21 0.35039547E-01 0.48113071E+03</pdfrwt>
<totfact> 0.54410387E+04</totfact>
</mgrwt>
</event>
<event>
 7    0  0.4737014E-002  0.4431837E+03  0.7546771E-02  0.1029774E+00
         21   -1    0    0  502  501  0.00000000000E+00  0.00000000000E+00  0.24453614044E+02  0.24453614044E+02  0.00000000000E+00 0. -1.
         21   -1    0    0  501  502 -0.00000000000E+00 -0.00000000000E+00 -0.20080037833E+04  0.20080037833E+04  0.00000000000E+00 0. -1.
      99926    2    1    2    0    0  0.00000000000E+00 -0.71054273576E-14 -0.19835501692E+04  0.20324573973E+04  0.44318370690E+03 0.  0.
      99925    2    3    3    0    0  0.61838329459E+02 -0.50183016626E+02 -0.96885961253E+03  0.10069883592E+04  0.26266764677E+03 0.  0.
         25    1    3    3    0    0 -0.61838329459E+02  0.50183016626E+02 -0.10146905567E+04  0.10254690381E+04  0.12509000000E+03 0.  0.
         25    1    4    4    0    0  0.98756075367E+00 -0.24739206879E+02 -0.35983232558E+03  0.38175884307E+03  0.12509000000E+03 0.  0.
         25    1    4    4    0    0  0.60850768705E+02 -0.25443809747E+02 -0.60902728695E+03  0.62522951615E+03  0.12509000000E+03 0.  0.
<mgrwt>
<rscale>  2 0.44318371E+03</rscale>
<asrwt>0</asrwt>
<pdfrwt beam="1">  1       21 0.35961188E-02 0.44318371E+03</pdfrwt>
<pdfrwt beam="2">  1       21 0.29529475E+00 0.44318371E+03</pdfrwt>
<totfact> 0.14469458E+04</totfact>
</mgrwt>
</event>
<event>
 7    0  0.4737014E-002  0.4528014E+03  0.7546771E-02  0.1026890E+00
         21   -1    0    0  502  501  0.00000000000E+00  0.00000000000E+00  0.11407816425E+04  0.11407816425E+04  0.00000000000E+00 0. -1.
         21   -1    0    0  501  502 -0.00000000000E+00 -0.00000000000E+00 -0.44931707025E+02  0.44931707025E+02  0.00000000000E+00 0. -1.
      99926    2    1    2    0    0  0.00000000000E+00  0.00000000000E+00  0.10958499354E+04  0.11857133495E+04  0.45280135397E+03 0.  0.
      99925    2    3    3    0    0 -0.48323112975E+02  0.85556659522E+02  0.82674203623E+03  0.87310875139E+03  0.26298561186E+03 0.  0.
         25    1    4    4    0    0 -0.24079179740E+02  0.10812856581E+02  0.46787297867E+03  0.48502510970E+03  0.12509000000E+03 0.  0.
         25    1    4    4    0    0 -0.24243933235E+02  0.74743802941E+02  0.35886905755E+03  0.38808364169E+03  0.12509000000E+03 0.  0.
         25    1    3    3    0    0  0.48323112975E+02 -0.85556659522E+02  0.26910789921E+03  0.31260459810E+03  0.12509000000E+03 0.  0.
<mgrwt>
<rscale>  2 0.45280135E+03</rscale>
<asrwt>0</asrwt>
<pdfrwt beam="1">  1       21 0.16776199E+00 0.45280135E+03</pdfrwt>
<pdfrwt beam="2">  1       21 0.66076047E-02 0.45280135E+03</pdfrwt>
<totfact> 0.33176738E+04</totfact>
</mgrwt>
</event>
<event>
 7    0  0.4737014E-002  0.4556814E+03  0.7546771E-02  0.1026041E+00
         21   -1    0    0  502  501  0.00000000000E+00  0.00000000000E+00  0.29700753499E+03  0.29700753499E+03  0.00000000000E+00 0.  1.
         21   -1    0    0  501  502 -0.00000000000E+00 -0.00000000000E+00 -0.17478140749E+03  0.17478140749E+03  0.00000000000E+00 0.  1.
      99926    2    1    2    0    0 -0.35527136788E-14  0.00000000000E+00  0.12222612750E+03  0.47178894247E+03  0.45568144574E+03 0.  0.
      99925    2    3    3    0    0 -0.18492704622E+02 -0.10992629670E+03  0.10049039596E+03  0.30283415279E+03  0.26302933978E+03 0.  0.
         25    1    3    3    0    0  0.18492704622E+02  0.10992629670E+03  0.21735731536E+02  0.16895478968E+03  0.12509000000E+03 0.  0.
         25    1    4    4    0    0 -0.14826073316E+02 -0.90815123899E+02  0.30762609381E+02  0.15830680786E+03  0.12509000000E+03 0.  0.
         25    1    4    4    0    0 -0.36666313060E+01 -0.19111172802E+02  0.69727786582E+02  0.14452734493E+03  0.12509000000E+03 0.  0.
<mgrwt>
<rscale>  2 0.45568145E+03</rscale>
<asrwt>0</asrwt>
<pdfrwt beam="1">  1       21 0.43677579E-01 0.45568145E+03</pdfrwt>
<pdfrwt beam="2">  1       21 0.25703148E-01 0.45568145E+03</pdfrwt>
<totfact> 0.66940272E+04</totfact>
</mgrwt>
</event>
<event>
 7    0  0.4737014E-002  0.4733085E+03  0.7546771E-02  0.1020991E+00
         21   -1    0    0  502  501  0.00000000000E+00  0.00000000000E+00  0.96924852181E+02  0.96924852181E+02  0.00000000000E+00 0.  1.
         21   -1    0    0  501  502 -0.00000000000E+00 -0.00000000000E+00 -0.57782121119E+03  0.57782121119E+03  0.00000000000E+00 0.  1.
      99926    2    1    2    0    0  0.00000000000E+00  0.00000000000E+00 -0.48089635901E+03  0.67474606337E+03  0.47330850608E+03 0.  0.
      99925    2    3    3    0    0  0.37298849943E+02  0.72057713403E+02 -0.15374111848E+03  0.31521640149E+03  0.26294777046E+03 0.  0.
         25    1    4    4    0    0  0.32408402399E+01  0.68278464784E+02 -0.57488721232E+02  0.15370397837E+03  0.12509000000E+03 0.  0.
         25    1    3    3    0    0 -0.37298849943E+02 -0.72057713403E+02 -0.32715524053E+03  0.35952966188E+03  0.12509000000E+03 0.  0.
         25    1    4    4    0    0  0.34058009703E+02  0.37792486188E+01 -0.96252397250E+02  0.16151242312E+03  0.12509000000E+03 0.  0.
<mgrwt>
<rscale>  2 0.47330851E+03</rscale>
<asrwt>0</asrwt>
<pdfrwt beam="1">  1       21 0.14253655E-01 0.47330851E+03</pdfrwt>
<pdfrwt beam="2">  1       21 0.84973704E-01 0.47330851E+03</pdfrwt>
<totfact> 0.47118277E+04</totfact>
</mgrwt>
</event>
<event>
 7    0  0.4737014E-002  0.4490370E+03  0.7546771E-02  0.1028010E+00
         21   -1    0    0  502  501  0.00000000000E+00  0.00000000000E+00  0.18365978736E+03  0.18365978736E+03  0.00000000000E+00 0. -1.
         21   -1    0    0  501  502 -0.00000000000E+00 -0.00000000000E+00 -0.27446700782E+03  0.27446700782E+03  0.00000000000E+00 0. -1.
      99926    2    1    2    0    0  0.14210854715E-13  0.71054273576E-14 -0.90807220459E+02  0.45812679518E+03  0.44903697974E+03 0.  0.
      99925    2    3    3    0    0 -0.88050775260E+02 -0.61854856128E+02 -0.61486691299E+02  0.29053752410E+03  0.26277838087E+03 0.  0.
         25    1    4    4    0    0 -0.60721801934E+02 -0.11899394027E+02 -0.62929305017E+02  0.15308931491E+03  0.12509000000E+03 0.  0.
         25    1    4    4    0    0 -0.27328973326E+02 -0.49955462101E+02  0.14426137179E+01  0.13744820920E+03  0.12509000000E+03 0.  0.
         25    1    3    3    0    0  0.88050775260E+02  0.61854856128E+02 -0.29320529160E+02  0.16758927108E+03  0.12509000000E+03 0.  0.
<mgrwt>
<rscale>  2 0.44903698E+03</rscale>
<asrwt>0</asrwt>
<pdfrwt beam="1">  1       21 0.27008792E-01 0.44903698E+03</pdfrwt>
<pdfrwt beam="2">  1       21 0.40362795E-01 0.44903698E+03</pdfrwt>
<totfact> 0.71659758E+04</totfact>
</mgrwt>
</event>
<event>
 7    0  0.4737014E-002  0.4566541E+03  0.7546771E-02  0.1025756E+00
         21   -1    0    0  502  501  0.00000000000E+00  0.00000000000E+00  0.50421042414E+03  0.50421042414E+03  0.00000000000E+00 0.  1.
         21   -1    0    0  501  502 -0.00000000000E+00 -0.00000000000E+00 -0.10339578643E+03  0.10339578643E+03  0.00000000000E+00 0.  1.
      99926    2    1    2    0    0  0.00000000000E+00  0.00000000000E+00  0.40081463771E+03  0.60760621058E+03  0.45665406308E+03 0.  0.
      99925    2    3    3    0    0  0.11442675149E+03  0.10972294460E+02  0.25006938761E+03  0.38048177062E+03  0.26271240254E+03 0.  0.
         25    1    3    3    0    0 -0.11442675149E+03 -0.10972294460E+02  0.15074525010E+03  0.22712443996E+03  0.12509000000E+03 0.  0.
         25    1    4    4    0    0  0.92918013882E+02 -0.13766676026E+02  0.12089535174E+03  0.19770299149E+03  0.12509000000E+03 0.  0.
         25    1    4    4    0    0  0.21508737605E+02  0.24738970486E+02  0.12917403587E+03  0.18277877912E+03  0.12509000000E+03 0.  0.
<mgrwt>
<rscale>  2 0.45665406E+03</rscale>
<asrwt>0</asrwt>
<pdfrwt beam="1">  1       21 0.74148591E-01 0.45665406E+03</pdfrwt>
<pdfrwt beam="2">  1       21 0.15205263E-01 0.45665406E+03</pdfrwt>
<totfact> 0.57458056E+04</totfact>
</mgrwt>
</event>
<event>
 7    0  0.4737014E-002  0.4522039E+03  0.7546771E-02  0.1027067E+00
         21   -1    0    0  502  501  0.00000000000E+00  0.00000000000E+00  0.10527068264E+03  0.10527068264E+03  0.00000000000E+00 0. -1.
         21   -1    0    0  501  502 -0.00000000000E+00 -0.00000000000E+00 -0.48562524860E+03  0.48562524860E+03  0.00000000000E+00 0. -1.
      99926    2    1    2    0    0  0.00000000000E+00  0.14210854715E-13 -0.38035456596E+03  0.59089593124E+03  0.45220394261E+03 0.  0.
      99925    2    3    3    0    0  0.38876160000E+02 -0.66629808086E+02 -0.34358073170E+03  0.43940101341E+03  0.26282055523E+03 0.  0.
         25    1    4    4    0    0  0.11824569225E+02 -0.33031005704E+02 -0.10689787311E+03  0.16824247725E+03  0.12509000000E+03 0.  0.
         25    1    4    4    0    0  0.27051590775E+02 -0.33598802382E+02 -0.23668285859E+03  0.27115853616E+03  0.12509000000E+03 0.  0.
         25    1    3    3    0    0 -0.38876160000E+02  0.66629808086E+02 -0.36773834266E+02  0.15149491783E+03  0.12509000000E+03 0.  0.
<mgrwt>
<rscale>  2 0.45220394E+03</rscale>
<asrwt>0</asrwt>
<pdfrwt beam="1">  1       21 0.15480983E-01 0.45220394E+03</pdfrwt>
<pdfrwt beam="2">  1       21 0.71415475E-01 0.45220394E+03</pdfrwt>
<totfact> 0.60569577E+04</totfact>
</mgrwt>
</event>
<event>
 7    0  0.4737014E-002  0.4541080E+03  0.7546771E-02  0.1026504E+00
         21   -1    0    0  502  501  0.00000000000E+00  0.00000000000E+00  0.54057183750E+02  0.54057183750E+02  0.00000000000E+00 0.  1.
         21   -1    0    0  501  502 -0.00000000000E+00 -0.00000000000E+00 -0.95368483822E+03  0.95368483822E+03  0.00000000000E+00 0.  1.
      99926    2    1    2    0    0  0.00000000000E+00 -0.88817841970E-15 -0.89962765447E+03  0.10077420220E+04  0.45410798953E+03 0.  0.
      99925    2    3    3    0    0  0.10392961957E+03  0.40201424130E+01 -0.47234162937E+03  0.55053486682E+03  0.26299143976E+03 0.  0.
         25    1    4    4    0    0  0.79028818434E+02 -0.28821690980E+02 -0.26594477907E+03  0.30569654501E+03  0.12509000000E+03 0.  0.
         25    1    4    4    0    0  0.24900801135E+02  0.32841833393E+02 -0.20639685029E+03  0.24483832181E+03  0.12509000000E+03 0.  0.
         25    1    3    3    0    0 -0.10392961957E+03 -0.40201424130E+01 -0.42728602510E+03  0.45720715515E+03  0.12509000000E+03 0.  0.
<mgrwt>
<rscale>  2 0.45410799E+03</rscale>
<asrwt>0</asrwt>
<pdfrwt beam="1">  1       21 0.79495862E-02 0.45410799E+03</pdfrwt>
<pdfrwt beam="2">  1       21 0.14024776E+00 0.45410799E+03</pdfrwt>
<totfact> 0.39138922E+04</totfact>
</mgrwt>
</event>
<event>
 7    0  0.4737014E-002  0.4583903E+03  0.7546771E-02  0.1025249E+00
         21   -1    0    0  502  501  0.00000000000E+00  0.00000000000E+00  0.18573579658E+03  0.18573579658E+03  0.00000000000E+00 0.  1.
         21   -1    0    0  501  502 -0.00000000000E+00 -0.00000000000E+00 -0.28282336686E+03  0.28282336686E+03  0.00000000000E+00 0.  1.
      99926    2    1    2    0    0  0.00000000000E+00  0.00000000000E+00 -0.97087570276E+02  0.46855916344E+03  0.45839032859E+03 0.  0.
      99925    2    3    3    0    0  0.13020979901E+02 -0.88475672335E+02  0.15174340241E+02  0.27817078364E+03  0.26296622170E+03 0.  0.
         25    1    3    3    0    0 -0.13020979901E+02  0.88475672335E+02 -0.11226191052E+03  0.19038837981E+03  0.12509000000E+03 0.  0.
         25    1    4    4    0    0  0.13019438849E+01 -0.67448671147E+01 -0.11974014275E+02  0.12584940766E+03  0.12509000000E+03 0.  0.
         25    1    4    4    0    0  0.11719036016E+02 -0.81730805220E+02  0.27148354515E+02  0.15232137598E+03  0.12509000000E+03 0.  0.
<mgrwt>
<rscale>  2 0.45839033E+03</rscale>
<asrwt>0</asrwt>
<pdfrwt beam="1">  1       21 0.27314088E-01 0.45839033E+03</pdfrwt>
<pdfrwt beam="2">  1       21 0.41591671E-01 0.45839033E+03</pdfrwt>
<totfact> 0.65756837E+04</totfact>
</mgrwt>
</event>
<event>
 6    0  0.4737014E-002  0.4512297E+03  0.7546771E-02  0.1027356E+00
         21   -1    0    0  502  501  0.00000000000E+00  0.00000000000E+00  0.62255958333E+02  0.62255958333E+02  0.00000000000E+00 0. -1.
         21   -1    0    0  501  502 -0.00000000000E+00 -0.00000000000E+00 -0.81762546799E+03  0.81762546799E+03  0.00000000000E+00 0. -1.
      99926    2    1    2    0    0  0.14210854715E-13  0.22204460493E-15 -0.75536950966E+03  0.87988142633E+03  0.45122968461E+03 0.  0.
         25    1    3    3    0    0  0.13287671521E+02 -0.23714346845E+00 -0.15159165256E+03  0.19698770438E+03  0.12509000000E+03 0.  0.
         25    1    3    3    0    0 -0.83759526108E+02  0.21401876082E+01 -0.17573763260E+03  0.23141188869E+03  0.12509000000E+03 0.  0.
         25    1    3    3    0    0  0.70471854588E+02 -0.19030441397E+01 -0.42804022450E+03  0.45148183325E+03  0.12509000000E+03 0.  0.
<mgrwt>
<rscale>  2 0.45122968E+03</rscale>
<asrwt>0</asrwt>
<pdfrwt beam="1">  1       21 0.91552882E-02 0.45122968E+03</pdfrwt>
<pdfrwt beam="2">  1       21 0.12023904E+00 0.45122968E+03</pdfrwt>
<totfact> 0.45442065E+04</totfact>
</mgrwt>
</event>
<event>
 7    0  0.4737014E-002  0.4474738E+03  0.7546771E-02  0.1028478E+00
         21   -1    0    0  502  501  0.00000000000E+00  0.00000000000E+00  0.13395639112E+04  0.13395639112E+04  0.00000000000E+00 0. -1.
         21   -1    0    0  501  502 -0.00000000000E+00 -0.00000000000E+00 -0.37369025094E+02  0.37369025094E+02  0.00000000000E+00 0. -1.
      99926    2    1    2    0    0  0.35527136788E-14  0.00000000000E+00  0.13021948861E+04  0.13769329363E+04  0.44747378656E+03 0.  0.
      99925    2    3    3    0    0  0.26730781172E+02 -0.90490499589E+02  0.67585706710E+03  0.73129399943E+03  0.26287843821E+03 0.  0.
         25    1    4    4    0    0 -0.41406709420E+01 -0.82828077840E+02  0.35160024377E+03  0.38229291800E+03  0.12509000000E+03 0.  0.
         25    1    4    4    0    0  0.30871452114E+02 -0.76624217492E+01  0.32425682333E+03  0.34900108143E+03  0.12509000000E+03 0.  0.
         25    1    3    3    0    0 -0.26730781172E+02  0.90490499589E+02  0.62633781905E+03  0.64563893690E+03  0.12509000000E+03 0.  0.
<mgrwt>
<rscale>  2 0.44747379E+03</rscale>
<asrwt>0</asrwt>
<pdfrwt beam="1">  1       21 0.19699466E+00 0.44747379E+03</pdfrwt>
<pdfrwt beam="2">  1       21 0.54954458E-02 0.44747379E+03</pdfrwt>
<totfact> 0.28589366E+04</totfact>
</mgrwt>
</event>
<event>
 7    0  0.4737014E-002  0.4545739E+03  0.7546771E-02  0.1026367E+00
         21   -1    0    0  502  501  0.00000000000E+00  0.00000000000E+00  0.28800092248E+03  0.28800092248E+03  0.00000000000E+00 0.  1.
         21   -1    0    0  501  502 -0.00000000000E+00 -0.00000000000E+00 -0.17937217591E+03  0.17937217591E+03  0.00000000000E+00 0.  1.
      99926    2    1    2    0    0  0.00000000000E+00  0.00000000000E+00  0.10862874657E+03  0.46737309839E+03  0.45457387576E+03 0.  0.
      99925    2    3    3    0    0 -0.78913528035E+02 -0.43933426419E+02  0.13784084989E+03  0.31034333706E+03  0.26297413579E+03 0.  0.
         25    1    4    4    0    0 -0.55883359688E+02 -0.35680156100E+00  0.10313574916E+03  0.17148634946E+03  0.12509000000E+03 0.  0.
         25    1    3    3    0    0  0.78913528035E+02  0.43933426419E+02 -0.29212103320E+02  0.15702976133E+03  0.12509000000E+03 0.  0.
         25    1    4    4    0    0 -0.23030168347E+02 -0.43576624858E+02  0.34705100727E+02  0.13885698760E+03  0.12509000000E+03 0.  0.
<mgrwt>
<rscale>  2 0.45457388E+03</rscale>
<asrwt>0</asrwt>
<pdfrwt beam="1">  1       21 0.42353077E-01 0.45457388E+03</pdfrwt>
<pdfrwt beam="2">  1       21 0.26378261E-01 0.45457388E+03</pdfrwt>
<totfact> 0.67860831E+04</totfact>
</mgrwt>
</event>
<event>
 7    0  0.4737014E-002  0.4470004E+03  0.7546771E-02  0.1028620E+00
         21   -1    0    0  502  501  0.00000000000E+00  0.00000000000E+00  0.12045065596E+03  0.12045065596E+03  0.00000000000E+00 0.  1.
         21   -1    0    0  501  502 -0.00000000000E+00 -0.00000000000E+00 -0.41471204580E+03  0.41471204580E+03  0.00000000000E+00 0.  1.
      99926    2    1    2    0    0  0.53290705182E-14 -0.14210854715E-13 -0.29426138985E+03  0.53516270176E+03  0.44700039351E+03 0.  0.
      99925    2    3    3    0    0 -0.14308727232E+02  0.83087070243E+02 -0.26258142070E+03  0.38102208589E+03  0.26290801912E+03 0.  0.
         25    1    4    4    0    0  0.19778438649E+02  0.12981503254E+02 -0.10270087197E+03  0.16356858887E+03  0.12509000000E+03 0.  0.
         25    1    3    3    0    0  0.14308727232E+02 -0.83087070243E+02 -0.31679969144E+02  0.15414061587E+03  0.12509000000E+03 0.  0.
         25    1    4    4    0    0 -0.34087165880E+02  0.70105566989E+02 -0.15988054873E+03  0.21745349701E+03  0.12509000000E+03 0.  0.
<mgrwt>
<rscale>  2 0.44700039E+03</rscale>
<asrwt>0</asrwt>
<pdfrwt beam="1">  1       21 0.17713332E-01 0.44700039E+03</pdfrwt>
<pdfrwt beam="2">  1       21 0.60987065E-01 0.44700039E+03</pdfrwt>
<totfact> 0.67000175E+04</totfact>
</mgrwt>
</event>
<event>
 7    0  0.4737014E-002  0.4525567E+03  0.7546771E-02  0.1026962E+00
         21   -1    0    0  502  501  0.00000000000E+00  0.00000000000E+00  0.89577619917E+03  0.89577619917E+03  0.00000000000E+00 0. -1.
         21   -1    0    0  501  502 -0.00000000000E+00 -0.00000000000E+00 -0.57159257115E+02  0.57159257115E+02  0.00000000000E+00 0. -1.
      99926    2    1    2    0    0  0.00000000000E+00  0.14210854715E-13  0.83861694206E+03  0.95293545629E+03  0.45255674599E+03 0.  0.
      99925    2    3    3    0    0  0.22006544958E+01 -0.88376817976E+02  0.66960786130E+03  0.72484143551E+03  0.26306864861E+03 0.  0.
         25    1    3    3    0    0 -0.22006544958E+01  0.88376817976E+02  0.16900908076E+03  0.22809402078E+03  0.12509000000E+03 0.  0.
         25    1    4    4    0    0 -0.88730668053E+01 -0.32189352519E+02  0.42400561626E+03  0.44333188071E+03  0.12509000000E+03 0.  0.
         25    1    4    4    0    0  0.11073721301E+02 -0.56187465457E+02  0.24560224504E+03  0.28150955480E+03  0.12509000000E+03 0.  0.
<mgrwt>
<rscale>  2 0.45255675E+03</rscale>
<asrwt>0</asrwt>
<pdfrwt beam="1">  1       21 0.13173178E+00 0.45255675E+03</pdfrwt>
<pdfrwt beam="2">  1       21 0.84057737E-02 0.45255675E+03</pdfrwt>
<totfact> 0.41815364E+04</totfact>
</mgrwt>
</event>
<event>
 7    0  0.4737014E-002  0.5144560E+03  0.7546771E-02  0.1010073E+00
         21   -1    0    0  502  501  0.00000000000E+00  0.00000000000E+00  0.51159560678E+02  0.51159560678E+02  0.00000000000E+00 0.  1.
         21   -1    0    0  501  502 -0.00000000000E+00 -0.00000000000E+00 -0.12933309556E+04  0.12933309556E+04  0.00000000000E+00 0.  1.
      99926    2    1    2    0    0  0.00000000000E+00 -0.14210854715E-13 -0.12421713949E+04  0.13444905163E+04  0.51445599812E+03 0.  0.
      99925    2    3    3    0    0 -0.12045752399E+03  0.78513636444E+02 -0.54804951460E+03  0.62468005578E+03  0.26304466436E+03 0.  0.
         25    1    3    3    0    0  0.12045752399E+03 -0.78513636444E+02 -0.69412188032E+03  0.71981046049E+03  0.12509000000E+03 0.  0.
         25    1    4    4    0    0 -0.29444263140E+02  0.52891940228E+02 -0.30874426337E+03  0.33857798251E+03  0.12509000000E+03 0.  0.
         25    1    4    4    0    0 -0.91013260854E+02  0.25621696216E+02 -0.23930525122E+03  0.28610207327E+03  0.12509000000E+03 0.  0.
<mgrwt>
<rscale>  2 0.51445600E+03</rscale>
<asrwt>0</asrwt>
<pdfrwt beam="1">  1       21 0.75234659E-02 0.51445600E+03</pdfrwt>
<pdfrwt beam="2">  1       21 0.19019570E+00 0.51445600E+03</pdfrwt>
<totfact> 0.17984214E+04</totfact>
</mgrwt>
</event>
<event>
 7    0  0.4737014E-002  0.4579532E+03  0.7546771E-02  0.1025377E+00
         21   -1    0    0  502  501  0.00000000000E+00  0.00000000000E+00  0.34248906320E+03  0.34248906320E+03  0.00000000000E+00 0.  1.
         21   -1    0    0  501  502 -0.00000000000E+00 -0.00000000000E+00 -0.15308603802E+03  0.15308603802E+03  0.00000000000E+00 0.  1.
      99926    2    1    2    0    0  0.00000000000E+00  0.00000000000E+00  0.18940302518E+03  0.49557510121E+03  0.45795324542E+03 0.  0.
      99925    2    3    3    0    0 -0.59055693448E+02  0.59777761417E+02  0.32305377234E+02  0.27788694173E+03  0.26290028394E+03 0.  0.
         25    1    4    4    0    0 -0.43890131080E+01  0.55902095955E+02  0.34278803214E+02  0.14130411253E+03  0.12509000000E+03 0.  0.
         25    1    3    3    0    0  0.59055693448E+02 -0.59777761417E+02  0.15709764795E+03  0.21768815948E+03  0.12509000000E+03 0.  0.
         25    1    4    4    0    0 -0.54666680340E+02  0.38756654623E+01 -0.19734259804E+01  0.13658282920E+03  0.12509000000E+03 0.  0.
<mgrwt>
<rscale>  2 0.45795325E+03</rscale>
<asrwt>0</asrwt>
<pdfrwt beam="1">  1       21 0.50366039E-01 0.45795325E+03</pdfrwt>
<pdfrwt beam="2">  1       21 0.22512653E-01 0.45795325E+03</pdfrwt>
<totfact> 0.64067389E+04</totfact>
</mgrwt>
</event>
<event>
 6    0  0.4737014E-002  0.4589617E+03  0.7546771E-02  0.1025083E+00
         21   -1    0    0  502  501  0.00000000000E+00  0.00000000000E+00  0.25953449623E+02  0.25953449623E+02  0.00000000000E+00 0.  1.
         21   -1    0    0  501  502 -0.00000000000E+00 -0.00000000000E+00 -0.20290733299E+04  0.20290733299E+04  0.00000000000E+00 0.  1.
      99926    2    1    2    0    0  0.00000000000E+00 -0.17763568394E-14 -0.20031198803E+04  0.20550267795E+04  0.45896166485E+03 0.  0.
         25    1    3    3    0    0  0.71087467741E+02  0.13390813291E+02 -0.34114452967E+03  0.37048595139E+03  0.12509000000E+03 0.  0.
         25    1    3    3    0    0 -0.23058073823E+02  0.35648702522E+02 -0.80835898535E+03  0.81908135253E+03  0.12509000000E+03 0.  0.
         25    1    3    3    0    0 -0.48029393918E+02 -0.49039515813E+02 -0.85361636526E+03  0.86545947562E+03  0.12509000000E+03 0.  0.
<mgrwt>
<rscale>  2 0.45896166E+03</rscale>
<asrwt>0</asrwt>
<pdfrwt beam="1">  1       21 0.38166843E-02 0.45896166E+03</pdfrwt>
<pdfrwt beam="2">  1       21 0.29839310E+00 0.45896166E+03</pdfrwt>
<totfact> 0.12444929E+04</totfact>
</mgrwt>
</event>
<event>
 7    0  0.4737014E-002  0.4454513E+03  0.7546771E-02  0.1029087E+00
         21   -1    0    0  502  501  0.00000000000E+00  0.00000000000E+00  0.19535796192E+03  0.19535796192E+03  0.00000000000E+00 0. -1.
         21   -1    0    0  501  502 -0.00000000000E+00 -0.00000000000E+00 -0.25392723990E+03  0.25392723990E+03  0.00000000000E+00 0. -1.
      99926    2    1    2    0    0  0.00000000000E+00  0.00000000000E+00 -0.58569277981E+02  0.44928520183E+03  0.44545126811E+03 0.  0.
      99925    2    3    3    0    0  0.81231841220E+02 -0.63393048255E+02 -0.20588839777E+02  0.28283006558E+03  0.26258647162E+03 0.  0.
         25    1    4    4    0    0  0.33689498803E+02 -0.59859540232E+02  0.17176882737E+02  0.14373830487E+03  0.12509000000E+03 0.  0.
         25    1    4    4    0    0  0.47542342418E+02 -0.35335080231E+01 -0.37765722514E+02  0.13909176071E+03  0.12509000000E+03 0.  0.
         25    1    3    3    0    0 -0.81231841220E+02  0.63393048255E+02 -0.37980438204E+02  0.16645513624E+03  0.12509000000E+03 0.  0.
<mgrwt>
<rscale>  2 0.44545127E+03</rscale>
<asrwt>0</asrwt>
<pdfrwt beam="1">  1       21 0.28729112E-01 0.44545127E+03</pdfrwt>
<pdfrwt beam="2">  1       21 0.37342241E-01 0.44545127E+03</pdfrwt>
<totfact> 0.74480695E+04</totfact>
</mgrwt>
</event>
<event>
 7    0  0.4737014E-002  0.4560552E+03  0.7546771E-02  0.1025932E+00
         21   -1    0    0  502  501  0.00000000000E+00  0.00000000000E+00  0.21008364386E+02  0.21008364386E+02  0.00000000000E+00 0. -1.
         21   -1    0    0  501  502 -0.00000000000E+00 -0.00000000000E+00 -0.24750425525E+04  0.24750425525E+04  0.00000000000E+00 0. -1.
      99926    2    1    2    0    0 -0.14210854715E-13  0.00000000000E+00 -0.24540341881E+04  0.24960509168E+04  0.45605524145E+03 0.  0.
      99925    2    3    3    0    0  0.10397498224E+03  0.38601414767E+02 -0.13942465819E+04  0.14231584970E+04  0.26297473344E+03 0.  0.
         25    1    4    4    0    0  0.73969140076E+02  0.18586347168E+02 -0.56158103281E+03  0.58037716229E+03  0.12509000000E+03 0.  0.
         25    1    4    4    0    0  0.30005842168E+02  0.20015067599E+02 -0.83266554904E+03  0.84278133472E+03  0.12509000000E+03 0.  0.
         25    1    3    3    0    0 -0.10397498224E+03 -0.38601414767E+02 -0.10597876062E+04  0.10728924198E+04  0.12509000000E+03 0.  0.
<mgrwt>
<rscale>  2 0.45605524E+03</rscale>
<asrwt>0</asrwt>
<pdfrwt beam="1">  1       21 0.30894659E-02 0.45605524E+03</pdfrwt>
<pdfrwt beam="2">  1       21 0.36397678E+00 0.45605524E+03</pdfrwt>
<totfact> 0.71137351E+03</totfact>
</mgrwt>
</event>
<event>
 7    0  0.4737014E-002  0.4552320E+03  0.7546771E-02  0.1026173E+00
         21   -1    0    0  502  501  0.00000000000E+00  0.00000000000E+00  0.14684448809E+03  0.14684448809E+03  0.00000000000E+00 0. -1.
         21   -1    0    0  501  502 -0.00000000000E+00 -0.00000000000E+00 -0.35281573914E+03  0.35281573914E+03  0.00000000000E+00 0. -1.
      99926    2    1    2    0    0 -0.17763568394E-14  0.00000000000E+00 -0.20597125105E+03  0.49966022723E+03  0.45523201383E+03 0.  0.
      99925    2    3    3    0    0 -0.13728062711E+02 -0.95074699631E+02 -0.19614442744E+03  0.34163575830E+03  0.26270648397E+03 0.  0.
         25    1    4    4    0    0 -0.24779702917E+02 -0.78797541251E+02 -0.13176885575E+03  0.19958363067E+03  0.12509000000E+03 0.  0.
         25    1    3    3    0    0  0.13728062711E+02  0.95074699631E+02 -0.98268236110E+01  0.15802446892E+03  0.12509000000E+03 0.  0.
         25    1    4    4    0    0  0.11051640206E+02 -0.16277158380E+02 -0.64375571687E+02  0.14205212764E+03  0.12509000000E+03 0.  0.
<mgrwt>
<rscale>  2 0.45523201E+03</rscale>
<asrwt>0</asrwt>
<pdfrwt beam="1">  1       21 0.21594778E-01 0.45523201E+03</pdfrwt>
<pdfrwt beam="2">  1       21 0.51884666E-01 0.45523201E+03</pdfrwt>
<totfact> 0.65174420E+04</totfact>
</mgrwt>
</event>
<event>
 7    0  0.4737014E-002  0.4417962E+03  0.7546771E-02  0.1030197E+00
         21   -1    0    0  502  501  0.00000000000E+00  0.00000000000E+00  0.62017652097E+02  0.62017652097E+02  0.00000000000E+00 0.  1.
         21   -1    0    0  501  502 -0.00000000000E+00 -0.00000000000E+00 -0.78680792371E+03  0.78680792371E+03  0.00000000000E+00 0.  1.
      99926    2    1    2    0    0 -0.14210854715E-13  0.00000000000E+00 -0.72479027162E+03  0.84882557581E+03  0.44179624299E+03 0.  0.
      99925    2    3    3    0    0 -0.71698359861E+02 -0.10751281518E+02 -0.32868599071E+03  0.42715941128E+03  0.26301033685E+03 0.  0.
         25    1    4    4    0    0 -0.26109162299E+00  0.16625000475E+02 -0.15193592812E+03  0.19750567882E+03  0.12509000000E+03 0.  0.
         25    1    4    4    0    0 -0.71437268238E+02 -0.27376281993E+02 -0.17675006259E+03  0.22965373246E+03  0.12509000000E+03 0.  0.
         25    1    3    3    0    0  0.71698359861E+02  0.10751281518E+02 -0.39610428090E+03  0.42166616453E+03  0.12509000000E+03 0.  0.
<mgrwt>
<rscale>  2 0.44179624E+03</rscale>
<asrwt>0</asrwt>
<pdfrwt beam="1">  1       21 0.91202439E-02 0.44179624E+03</pdfrwt>
<pdfrwt beam="2">  1       21 0.11570704E+00 0.44179624E+03</pdfrwt>
<totfact> 0.50525368E+04</totfact>
</mgrwt>
</event>
<event>
 7    0  0.4737014E-002  0.4523704E+03  0.7546771E-02  0.1027018E+00
         21   -1    0    0  502  501  0.00000000000E+00  0.00000000000E+00  0.80563884112E+03  0.80563884112E+03  0.00000000000E+00 0.  1.
         21   -1    0    0  501  502 -0.00000000000E+00 -0.00000000000E+00 -0.63502097070E+02  0.63502097070E+02  0.00000000000E+00 0.  1.
      99926    2    1    2    0    0 -0.17763568394E-14  0.14210854715E-13  0.74213674405E+03  0.86914093819E+03  0.45237044949E+03 0.  0.
      99925    2    3    3    0    0  0.15811768831E+02 -0.10111297084E+03  0.54884546400E+03  0.61718286241E+03  0.26307697998E+03 0.  0.
         25    1    4    4    0    0  0.12066350551E+02 -0.84080138280E+02  0.24190208016E+03  0.28527038219E+03  0.12509000000E+03 0.  0.
         25    1    4    4    0    0  0.37454182800E+01 -0.17032832565E+02  0.30694338384E+03  0.33191248022E+03  0.12509000000E+03 0.  0.
         25    1    3    3    0    0 -0.15811768831E+02  0.10111297084E+03  0.19329128005E+03  0.25195807578E+03  0.12509000000E+03 0.  0.
<mgrwt>
<rscale>  2 0.45237045E+03</rscale>
<asrwt>0</asrwt>
<pdfrwt beam="1">  1       21 0.11847629E+00 0.45237045E+03</pdfrwt>
<pdfrwt beam="2">  1       21 0.93385441E-02 0.45237045E+03</pdfrwt>
<totfact> 0.45525351E+04</totfact>
</mgrwt>
</event>
<event>
 7    0  0.4737014E-002  0.4560039E+03  0.7546771E-02  0.1025947E+00
         21   -1    0    0  502  501  0.00000000000E+00  0.00000000000E+00  0.17213951459E+04  0.17213951459E+04  0.00000000000E+00 0.  1.
         21   -1    0    0  501  502 -0.00000000000E+00 -0.00000000000E+00 -0.30199276208E+02  0.30199276208E+02  0.00000000000E+00 0.  1.
      99926    2    1    2    0    0 -0.35527136788E-14  0.14210854715E-13  0.16911958697E+04  0.17515944222E+04  0.45600389242E+03 0.  0.
      99925    2    3    3    0    0  0.23227190683E+02 -0.11116585828E+03  0.10203021208E+04  0.10597539197E+04  0.26299163880E+03 0.  0.
         25    1    4    4    0    0 -0.18841938657E+02 -0.61460585280E+02  0.60606164278E+03  0.62216609128E+03  0.12509000000E+03 0.  0.
         25    1    3    3    0    0 -0.23227190683E+02  0.11116585828E+03  0.67089374891E+03  0.69184050247E+03  0.12509000000E+03 0.  0.
         25    1    4    4    0    0  0.42069129340E+02 -0.49705273002E+02  0.41424047806E+03  0.43758782840E+03  0.12509000000E+03 0.  0.
<mgrwt>
<rscale>  2 0.45600389E+03</rscale>
<asrwt>0</asrwt>
<pdfrwt beam="1">  1       21 0.25314628E+00 0.45600389E+03</pdfrwt>
<pdfrwt beam="2">  1       21 0.44410712E-02 0.45600389E+03</pdfrwt>
<totfact> 0.18067169E+04</totfact>
</mgrwt>
</event>
<event>
 7    0  0.4737014E-002  0.4660443E+03  0.7546771E-02  0.1023043E+00
         21   -1    0    0  502  501  0.00000000000E+00  0.00000000000E+00  0.84686170830E+02  0.84686170830E+02  0.00000000000E+00 0.  1.
         21   -1    0    0  501  502 -0.00000000000E+00 -0.00000000000E+00 -0.64118298374E+03  0.64118298374E+03  0.00000000000E+00 0.  1.
      99926    2    1    2    0    0  0.00000000000E+00  0.14210854715E-13 -0.55649681291E+03  0.72586915457E+03  0.46604433993E+03 0.  0.
      99925    2    3    3    0    0  0.69791135314E+02  0.85227943709E+02 -0.26095605789E+03  0.38656626490E+03  0.26306046464E+03 0.  0.
         25    1    4    4    0    0  0.41170102130E+02  0.45194158725E+02 -0.78167752434E+02  0.15967214821E+03  0.12509000000E+03 0.  0.
         25    1    4    4    0    0  0.28621033185E+02  0.40033784984E+02 -0.18278830545E+03  0.22689411670E+03  0.12509000000E+03 0.  0.
         25    1    3    3    0    0 -0.69791135314E+02 -0.85227943709E+02 -0.29554075502E+03  0.33930288967E+03  0.12509000000E+03 0.  0.
<mgrwt>
<rscale>  2 0.46604434E+03</rscale>
<asrwt>0</asrwt>
<pdfrwt beam="1">  1       21 0.12453849E-01 0.46604434E+03</pdfrwt>
<pdfrwt beam="2">  1       21 0.94291614E-01 0.46604434E+03</pdfrwt>
<totfact> 0.47278506E+04</totfact>
</mgrwt>
</event>
<event>
 7    0  0.4737014E-002  0.4572101E+03  0.7546771E-02  0.1025593E+00
         21   -1    0    0  502  501  0.00000000000E+00  0.00000000000E+00  0.12671398916E+03  0.12671398916E+03  0.00000000000E+00 0.  1.
         21   -1    0    0  501  502 -0.00000000000E+00 -0.00000000000E+00 -0.41242704687E+03  0.41242704687E+03  0.00000000000E+00 0.  1.
      99926    2    1    2    0    0  0.71054273576E-14  0.00000000000E+00 -0.28571305771E+03  0.53914103604E+03  0.45721013264E+03 0.  0.
      99925    2    3    3    0    0  0.35291937491E+02  0.10963945345E+03 -0.17476121076E+03  0.33610372162E+03  0.26297889705E+03 0.  0.
         25    1    3    3    0    0 -0.35291937491E+02 -0.10963945345E+03 -0.11095184695E+03  0.20303731441E+03  0.12509000000E+03 0.  0.
         25    1    4    4    0    0  0.27543602656E+01  0.54638183863E+02 -0.13039820678E+03  0.18879649909E+03  0.12509000000E+03 0.  0.
         25    1    4    4    0    0  0.32537577226E+02  0.55001269582E+02 -0.44363003981E+02  0.14730722253E+03  0.12509000000E+03 0.  0.
<mgrwt>
<rscale>  2 0.45721013E+03</rscale>
<asrwt>0</asrwt>
<pdfrwt beam="1">  1       21 0.18634410E-01 0.45721013E+03</pdfrwt>
<pdfrwt beam="2">  1       21 0.60651036E-01 0.45721013E+03</pdfrwt>
<totfact> 0.61506917E+04</totfact>
</mgrwt>
</event>
<event>
 7    0  0.4737014E-002  0.4436775E+03  0.7546771E-02  0.1029624E+00
         21   -1    0    0  502  501  0.00000000000E+00  0.00000000000E+00  0.42593440732E+02  0.42593440732E+02  0.00000000000E+00 0. -1.
         21   -1    0    0  501  502 -0.00000000000E+00 -0.00000000000E+00 -0.11553995101E+04  0.11553995101E+04  0.00000000000E+00 0. -1.
      99926    2    1    2    0    0  0.00000000000E+00 -0.71054273576E-14 -0.11128060694E+04  0.11979929508E+04  0.44367754306E+03 0.  0.
      99925    2    3    3    0    0  0.29734725650E+02  0.55073914086E+02 -0.48895037760E+03  0.55864897286E+03  0.26286672136E+03 0.  0.
         25    1    3    3    0    0 -0.29734725650E+02 -0.55073914086E+02 -0.62385569176E+03  0.63934397796E+03  0.12509000000E+03 0.  0.
         25    1    4    4    0    0  0.20011329773E+02  0.64822524707E+02 -0.22482792897E+03  0.26607803136E+03  0.12509000000E+03 0.  0.
         25    1    4    4    0    0  0.97233958770E+01 -0.97486106213E+01 -0.26412244863E+03  0.29257094150E+03  0.12509000000E+03 0.  0.
<mgrwt>
<rscale>  2 0.44367754E+03</rscale>
<asrwt>0</asrwt>
<pdfrwt beam="1">  1       21 0.62637421E-02 0.44367754E+03</pdfrwt>
<pdfrwt beam="2">  1       21 0.16991167E+00 0.44367754E+03</pdfrwt>
<totfact> 0.35225537E+04</totfact>
</mgrwt>
</event>
<event>
 7    0  0.4737014E-002  0.4471775E+03  0.7546771E-02  0.1028567E+00
         21   -1    0    0  502  501  0.00000000000E+00  0.00000000000E+00  0.61680067912E+03  0.61680067912E+03  0.00000000000E+00 0.  1.
         21   -1    0    0  501  502 -0.00000000000E+00 -0.00000000000E+00 -0.81050370965E+02  0.81050370965E+02  0.00000000000E+00 0.  1.
      99926    2    1    2    0    0  0.00000000000E+00  0.00000000000E+00  0.53575030815E+03  0.69785105008E+03  0.44717747642E+03 0.  0.
      99925    2    3    3    0    0 -0.27718078882E+02 -0.10083956252E+03  0.35877712817E+03  0.45721870853E+03  0.26342173500E+03 0.  0.
         25    1    4    4    0    0 -0.31050020659E+02 -0.91195223428E+02  0.20317100903E+03  0.25730650899E+03  0.12509000000E+03 0.  0.
         25    1    3    3    0    0  0.27718078882E+02  0.10083956252E+03  0.17697317998E+03  0.24063234155E+03  0.12509000000E+03 0.  0.
         25    1    4    4    0    0  0.33319417768E+01 -0.96443390904E+01  0.15560611914E+03  0.19991219954E+03  0.12509000000E+03 0.  0.
<mgrwt>
<rscale>  2 0.44717748E+03</rscale>
<asrwt>0</asrwt>
<pdfrwt beam="1">  1       21 0.90705980E-01 0.44717748E+03</pdfrwt>
<pdfrwt beam="2">  1       21 0.11919173E-01 0.44717748E+03</pdfrwt>
<totfact> 0.56413444E+04</totfact>
</mgrwt>
</event>
<event>
 7    0  0.4737014E-002  0.4515280E+03  0.7546771E-02  0.1027267E+00
         21   -1    0    0  502  501  0.00000000000E+00  0.00000000000E+00  0.47931613932E+03  0.47931613932E+03  0.00000000000E+00 0. -1.
         21   -1    0    0  501  502 -0.00000000000E+00 -0.00000000000E+00 -0.10633771187E+03  0.10633771187E+03  0.00000000000E+00 0. -1.
      99926    2    1    2    0    0  0.00000000000E+00  0.00000000000E+00  0.37297842745E+03  0.58565385119E+03  0.45152799035E+03 0.  0.
      99925    2    3    3    0    0  0.10344645324E+03 -0.37875120507E+02  0.23208005850E+03  0.36739814814E+03  0.26264910481E+03 0.  0.
         25    1    4    4    0    0  0.72403996899E+02 -0.25142003793E+02  0.78111726339E+02  0.16620291518E+03  0.12509000000E+03 0.  0.
         25    1    4    4    0    0  0.31042456343E+02 -0.12733116713E+02  0.15396833216E+03  0.20119523296E+03  0.12509000000E+03 0.  0.
         25    1    3    3    0    0 -0.10344645324E+03  0.37875120507E+02  0.14089836894E+03  0.21825570305E+03  0.12509000000E+03 0.  0.
<mgrwt>
<rscale>  2 0.45152799E+03</rscale>
<asrwt>0</asrwt>
<pdfrwt beam="1">  1       21 0.70487666E-01 0.45152799E+03</pdfrwt>
<pdfrwt beam="2">  1       21 0.15637899E-01 0.45152799E+03</pdfrwt>
<totfact> 0.61233383E+04</totfact>
</mgrwt>
</event>
<event>
 7    0  0.4737014E-002  0.4549555E+03  0.7546771E-02  0.1026254E+00
         21   -1    0    0  502  501  0.00000000000E+00  0.00000000000E+00  0.26646916767E+02  0.26646916767E+02  0.00000000000E+00 0.  1.
         21   -1    0    0  501  502 -0.00000000000E+00 -0.00000000000E+00 -0.19419177028E+04  0.19419177028E+04  0.00000000000E+00 0.  1.
      99926    2    1    2    0    0  0.00000000000E+00  0.00000000000E+00 -0.19152707860E+04  0.19685646196E+04  0.45495546769E+03 0.  0.
      99925    2    3    3    0    0 -0.35849089013E+02 -0.10161180950E+03 -0.10567424909E+04  0.10943058143E+04  0.26304069274E+03 0.  0.
         25    1    4    4    0    0 -0.38544984237E+02 -0.63066332839E+02 -0.68336117578E+03  0.69863658851E+03  0.12509000000E+03 0.  0.
         25    1    3    3    0    0  0.35849089013E+02  0.10161180950E+03 -0.85852829510E+03  0.87425880527E+03  0.12509000000E+03 0.  0.
         25    1    4    4    0    0  0.26958952246E+01 -0.38545476665E+02 -0.37338131515E+03  0.39566922578E+03  0.12509000000E+03 0.  0.
<mgrwt>
<rscale>  2 0.45495547E+03</rscale>
<asrwt>0</asrwt>
<pdfrwt beam="1">  1       21 0.39186640E-02 0.45495547E+03</pdfrwt>
<pdfrwt beam="2">  1       21 0.28557615E+00 0.45495547E+03</pdfrwt>
<totfact> 0.14234863E+04</totfact>
</mgrwt>
</event>
<event>
 7    0  0.4737014E-002  0.4550686E+03  0.7546771E-02  0.1026221E+00
         21   -1    0    0  502  501  0.00000000000E+00  0.00000000000E+00  0.17154108264E+03  0.17154108264E+03  0.00000000000E+00 0.  1.
         21   -1    0    0  501  502 -0.00000000000E+00 -0.00000000000E+00 -0.30180443310E+03  0.30180443310E+03  0.00000000000E+00 0.  1.
      99926    2    1    2    0    0  0.00000000000E+00  0.35527136788E-14 -0.13026335046E+03  0.47334551575E+03  0.45506860670E+03 0.  0.
      99925    2    3    3    0    0 -0.10710308503E+03 -0.31433664582E+02 -0.62090375262E+02  0.29236427711E+03  0.26298766081E+03 0.  0.
         25    1    3    3    0    0  0.10710308503E+03  0.31433664582E+02 -0.68172975197E+02  0.18098123864E+03  0.12509000000E+03 0.  0.
         25    1    4    4    0    0 -0.25640196433E+02  0.13791524079E+02 -0.14286301445E+02  0.12922550955E+03  0.12509000000E+03 0.  0.
         25    1    4    4    0    0 -0.81462888593E+02 -0.45225188661E+02 -0.47804073817E+02  0.16313876756E+03  0.12509000000E+03 0.  0.
<mgrwt>
<rscale>  2 0.45506861E+03</rscale>
<asrwt>0</asrwt>
<pdfrwt beam="1">  1       21 0.25226630E-01 0.45506861E+03</pdfrwt>
<pdfrwt beam="2">  1       21 0.44383004E-01 0.45506861E+03</pdfrwt>
<totfact> 0.67151248E+04</totfact>
</mgrwt>
</event>
<event>
 7    0  0.4737014E-002  0.4566119E+03  0.7546771E-02  0.1025768E+00
         21   -1    0    0  502  501  0.00000000000E+00  0.00000000000E+00  0.43801674083E+03  0.43801674083E+03  0.00000000000E+00 0.  1.
         21   -1    0    0  501  502 -0.00000000000E+00 -0.00000000000E+00 -0.11899914588E+03  0.11899914588E+03  0.00000000000E+00 0.  1.
      99926    2    1    2    0    0  0.14210854715E-13  0.00000000000E+00  0.31901759495E+03  0.55701588671E+03  0.45661194920E+03 0.  0.
      99925    2    3    3    0    0  0.93781853391E+02 -0.65499834230E+02  0.20927799097E+03  0.35508631212E+03  0.26306605110E+03 0.  0.
         25    1    3    3    0    0 -0.93781853391E+02  0.65499834230E+02  0.10973960399E+03  0.20192957459E+03  0.12509000000E+03 0.  0.
         25    1    4    4    0    0  0.28759404647E+02 -0.41916022239E+02  0.14569929751E+03  0.19864503435E+03  0.12509000000E+03 0.  0.
         25    1    4    4    0    0  0.65022448744E+02 -0.23583811991E+02  0.63578693454E+02  0.15644127777E+03  0.12509000000E+03 0.  0.
<mgrwt>
<rscale>  2 0.45661195E+03</rscale>
<asrwt>0</asrwt>
<pdfrwt beam="1">  1       21 0.64414226E-01 0.45661195E+03</pdfrwt>
<pdfrwt beam="2">  1       21 0.17499874E-01 0.45661195E+03</pdfrwt>
<totfact> 0.60628463E+04</totfact>
</mgrwt>
</event>
<event>
 6    0  0.4737014E-002  0.4511060E+03  0.7546771E-02  0.1027393E+00
         21   -1    0    0  502  501  0.00000000000E+00  0.00000000000E+00  0.12891229080E+03  0.12891229080E+03  0.00000000000E+00 0.  1.
         21   -1    0    0  501  502 -0.00000000000E+00 -0.00000000000E+00 -0.39464158443E+03  0.39464158443E+03  0.00000000000E+00 0.  1.
      99926    2    1    2    0    0 -0.14210854715E-13 -0.71054273576E-14 -0.26572929363E+03  0.52355387523E+03  0.45110597732E+03 0.  0.
         25    1    3    3    0    0 -0.95595851025E+02 -0.43861878468E+02 -0.41712204658E+02  0.16867082508E+03  0.12509000000E+03 0.  0.
         25    1    3    3    0    0  0.71236524406E+02  0.17006230681E+02 -0.11459579107E+03  0.18477975463E+03  0.12509000000E+03 0.  0.
         25    1    3    3    0    0  0.24359326619E+02  0.26855647787E+02 -0.10942129791E+03  0.17010329552E+03  0.12509000000E+03 0.  0.
<mgrwt>
<rscale>  2 0.45110598E+03</rscale>
<asrwt>0</asrwt>
<pdfrwt beam="1">  1       21 0.18957690E-01 0.45110598E+03</pdfrwt>
<pdfrwt beam="2">  1       21 0.58035527E-01 0.45110598E+03</pdfrwt>
<totfact> 0.65648144E+04</totfact>
</mgrwt>
</event>
<event>
 7    0  0.4737014E-002  0.4595734E+03  0.7546771E-02  0.1024905E+00
         21   -1    0    0  502  501  0.00000000000E+00  0.00000000000E+00  0.12842028577E+03  0.12842028577E+03  0.00000000000E+00 0. -1.
         21   -1    0    0  501  502 -0.00000000000E+00 -0.00000000000E+00 -0.41116507960E+03  0.41116507960E+03  0.00000000000E+00 0. -1.
      99926    2    1    2    0    0  0.00000000000E+00 -0.14210854715E-13 -0.28274479384E+03  0.53958536537E+03  0.45957344144E+03 0.  0.
      99925    2    3    3    0    0 -0.57692750684E+01  0.11452482496E+03 -0.20647439882E+03  0.35353724975E+03  0.26307354395E+03 0.  0.
         25    1    4    4    0    0  0.62466030253E+01  0.99045601719E+02 -0.12724434643E+03  0.20417561820E+03  0.12509000000E+03 0.  0.
         25    1    3    3    0    0  0.57692750684E+01 -0.11452482496E+03 -0.76270395017E+02  0.18604811561E+03  0.12509000000E+03 0.  0.
         25    1    4    4    0    0 -0.12015878094E+02  0.15479223245E+02 -0.79230052390E+02  0.14936163155E+03  0.12509000000E+03 0.  0.
<mgrwt>
<rscale>  2 0.45957344E+03</rscale>
<asrwt>0</asrwt>
<pdfrwt beam="1">  1       21 0.18885336E-01 0.45957344E+03</pdfrwt>
<pdfrwt beam="2">  1       21 0.60465452E-01 0.45957344E+03</pdfrwt>
<totfact> 0.60345250E+04</totfact>
</mgrwt>
</event>
<event>
 7    0  0.4737014E-002  0.4546730E+03  0.7546771E-02  0.1026338E+00
         21   -1    0    0  502  501  0.00000000000E+00  0.00000000000E+00  0.11954931148E+04  0.11954931148E+04  0.00000000000E+00 0. -1.
         21   -1    0    0  501  502 -0.00000000000E+00 -0.00000000000E+00 -0.43230603354E+02  0.43230603354E+02  0.00000000000E+00 0. -1.
      99926    2    1    2    0    0  0.14210854715E-13  0.35527136788E-14  0.11522625114E+04  0.12387237181E+04  0.45467301947E+03 0.  0.
      99925    2    3    3    0    0 -0.91400123253E+02 -0.22615521011E+02  0.89513663498E+03  0.93768108202E+03  0.26288927702E+03 0.  0.
         25    1    3    3    0    0  0.91400123253E+02  0.22615521011E+02  0.25712587646E+03  0.30104263612E+03  0.12509000000E+03 0.  0.
         25    1    4    4    0    0 -0.20901140462E+02 -0.43548567628E+02  0.42166341249E+03  0.44247132895E+03  0.12509000000E+03 0.  0.
         25    1    4    4    0    0 -0.70498982791E+02  0.20933046618E+02  0.47347322249E+03  0.49520975307E+03  0.12509000000E+03 0.  0.
<mgrwt>
<rscale>  2 0.45467302E+03</rscale>
<asrwt>0</asrwt>
<pdfrwt beam="1">  1       21 0.17580779E+00 0.45467302E+03</pdfrwt>
<pdfrwt beam="2">  1       21 0.63574425E-02 0.45467302E+03</pdfrwt>
<totfact> 0.31026410E+04</totfact>
</mgrwt>
</event>
<event>
 7    0  0.4737014E-002  0.4506104E+03  0.7546771E-02  0.1027540E+00
         21   -1    0    0  502  501  0.00000000000E+00  0.00000000000E+00  0.82338475363E+02  0.82338475363E+02  0.00000000000E+00 0. -1.
         21   -1    0    0  501  502 -0.00000000000E+00 -0.00000000000E+00 -0.61650935222E+03  0.61650935222E+03  0.00000000000E+00 0. -1.
      99926    2    1    2    0    0  0.00000000000E+00  0.00000000000E+00 -0.53417087685E+03  0.69884782758E+03  0.45061043090E+03 0.  0.
      99925    2    3    3    0    0  0.73137709844E+02 -0.46943818934E+02 -0.23560990792E+03  0.36367771106E+03  0.26305247020E+03 0.  0.
         25    1    4    4    0    0  0.64160781033E+02  0.63845732254E+01 -0.11711501231E+03  0.18308687230E+03  0.12509000000E+03 0.  0.
         25    1    4    4    0    0  0.89769288106E+01 -0.53328392159E+02 -0.11849489561E+03  0.18059083877E+03  0.12509000000E+03 0.  0.
         25    1    3    3    0    0 -0.73137709844E+02  0.46943818934E+02 -0.29856096893E+03  0.33517011652E+03  0.12509000000E+03 0.  0.
<mgrwt>
<rscale>  2 0.45061043E+03</rscale>
<asrwt>0</asrwt>
<pdfrwt beam="1">  1       21 0.12108599E-01 0.45061043E+03</pdfrwt>
<pdfrwt beam="2">  1       21 0.90663140E-01 0.45061043E+03</pdfrwt>
<totfact> 0.54835480E+04</totfact>
</mgrwt>
</event>
<event>
 7    0  0.4737014E-002  0.4559921E+03  0.7546771E-02  0.1025950E+00
         21   -1    0    0  502  501  0.00000000000E+00  0.00000000000E+00  0.12289609556E+03  0.12289609556E+03  0.00000000000E+00 0.  1.
         21   -1    0    0  501  502 -0.00000000000E+00 -0.00000000000E+00 -0.42297680449E+03  0.42297680449E+03  0.00000000000E+00 0.  1.
      99926    2    1    2    0    0 -0.14210854715E-13  0.00000000000E+00 -0.30008070893E+03  0.54587290004E+03  0.45599209547E+03 0.  0.
      99925    2    3    3    0    0  0.11173861232E+03 -0.11974541632E+02 -0.16857991587E+03  0.33240422833E+03  0.26352319792E+03 0.  0.
         25    1    4    4    0    0  0.96696657556E+02  0.67886440706E+01 -0.10607586303E+03  0.19051489729E+03  0.12509000000E+03 0.  0.
         25    1    3    3    0    0 -0.11173861232E+03  0.11974541632E+02 -0.13150079306E+03  0.21346867172E+03  0.12509000000E+03 0.  0.
         25    1    4    4    0    0  0.15041954764E+02 -0.18763185703E+02 -0.62504052842E+02  0.14188933104E+03  0.12509000000E+03 0.  0.
<mgrwt>
<rscale>  2 0.45599210E+03</rscale>
<asrwt>0</asrwt>
<pdfrwt beam="1">  1       21 0.18072955E-01 0.45599210E+03</pdfrwt>
<pdfrwt beam="2">  1       21 0.62202471E-01 0.45599210E+03</pdfrwt>
<totfact> 0.61654632E+04</totfact>
</mgrwt>
</event>
<event>
 7    0  0.4737014E-002  0.4552588E+03  0.7546771E-02  0.1026165E+00
         21   -1    0    0  502  501  0.00000000000E+00  0.00000000000E+00  0.30351809234E+03  0.30351809234E+03  0.00000000000E+00 0. -1.
         21   -1    0    0  501  502 -0.00000000000E+00 -0.00000000000E+00 -0.17071515642E+03  0.17071515642E+03  0.00000000000E+00 0. -1.
      99926    2    1    2    0    0 -0.14210854715E-13 -0.35527136788E-14  0.13280293592E+03  0.47423324875E+03  0.45525877744E+03 0.  0.
      99925    2    3    3    0    0 -0.11095085153E+03 -0.22714258195E+02  0.80784407324E+02  0.29765617097E+03  0.26314833587E+03 0.  0.
         25    1    4    4    0    0 -0.27917871993E+02  0.19599538917E+02  0.25364097718E+02  0.13211508262E+03  0.12509000000E+03 0.  0.
         25    1    4    4    0    0 -0.83032979534E+02 -0.42313797112E+02  0.55420309607E+02  0.16554108835E+03  0.12509000000E+03 0.  0.
         25    1    3    3    0    0  0.11095085153E+03  0.22714258195E+02  0.52018528595E+02  0.17657707778E+03  0.12509000000E+03 0.  0.
<mgrwt>
<rscale>  2 0.45525878E+03</rscale>
<asrwt>0</asrwt>
<pdfrwt beam="1">  1       21 0.44635013E-01 0.45525878E+03</pdfrwt>
<pdfrwt beam="2">  1       21 0.25105170E-01 0.45525878E+03</pdfrwt>
<totfact> 0.66984691E+04</totfact>
</mgrwt>
</event>
<event>
 7    0  0.4737014E-002  0.4545000E+03  0.7546771E-02  0.1026389E+00
         21   -1    0    0  502  501  0.00000000000E+00  0.00000000000E+00  0.93177349114E+02  0.93177349114E+02  0.00000000000E+00 0.  1.
         21   -1    0    0  501  502 -0.00000000000E+00 -0.00000000000E+00 -0.55423933683E+03  0.55423933683E+03  0.00000000000E+00 0.  1.
      99926    2    1    2    0    0 -0.35527136788E-14  0.35527136788E-14 -0.46106198772E+03  0.64741668595E+03  0.45449995459E+03 0.  0.
      99925    2    3    3    0    0  0.27240219322E+02 -0.16005165684E+02 -0.13622729818E+03  0.29789804766E+03  0.26303455126E+03 0.  0.
         25    1    4    4    0    0 -0.95845694838E+01 -0.27354793717E+02 -0.98031113299E+02  0.16154799902E+03  0.12509000000E+03 0.  0.
         25    1    3    3    0    0 -0.27240219322E+02  0.16005165684E+02 -0.32483468954E+03  0.34951863828E+03  0.12509000000E+03 0.  0.
         25    1    4    4    0    0  0.36824788805E+02  0.11349628033E+02 -0.38196184879E+02  0.13635004865E+03  0.12509000000E+03 0.  0.
<mgrwt>
<rscale>  2 0.45449995E+03</rscale>
<asrwt>0</asrwt>
<pdfrwt beam="1">  1       21 0.13702551E-01 0.45449995E+03</pdfrwt>
<pdfrwt beam="2">  1       21 0.81505787E-01 0.45449995E+03</pdfrwt>
<totfact> 0.56071442E+04</totfact>
</mgrwt>
</event>
<event>
 7    0  0.4737014E-002  0.4533870E+03  0.7546771E-02  0.1026717E+00
         21   -1    0    0  502  501  0.00000000000E+00  0.00000000000E+00  0.13421625572E+03  0.13421625572E+03  0.00000000000E+00 0. -1.
         21   -1    0    0  501  502 -0.00000000000E+00 -0.00000000000E+00 -0.38288915912E+03  0.38288915912E+03  0.00000000000E+00 0. -1.
      99926    2    1    2    0    0 -0.14210854715E-13 -0.35527136788E-14 -0.24867290340E+03  0.51710541484E+03  0.45338702801E+03 0.  0.
      99925    2    3    3    0    0 -0.11058215977E+03  0.15782799415E+02 -0.16376244420E+03  0.32912987122E+03  0.26273717510E+03 0.  0.
         25    1    3    3    0    0  0.11058215977E+03 -0.15782799415E+02 -0.84910459194E+02  0.18797554362E+03  0.12509000000E+03 0.  0.
         25    1    4    4    0    0 -0.69222558916E+02  0.33338169476E+02 -0.52875056486E+02  0.15603357301E+03  0.12509000000E+03 0.  0.
         25    1    4    4    0    0 -0.41359600856E+02 -0.17555370061E+02 -0.11088738772E+03  0.17309629821E+03  0.12509000000E+03 0.  0.
<mgrwt>
<rscale>  2 0.45338703E+03</rscale>
<asrwt>0</asrwt>
<pdfrwt beam="1">  1       21 0.19737684E-01 0.45338703E+03</pdfrwt>
<pdfrwt beam="2">  1       21 0.56307230E-01 0.45338703E+03</pdfrwt>
<totfact> 0.64911669E+04</totfact>
</mgrwt>
</event>
<event>
 7    0  0.4737014E-002  0.4515082E+03  0.7546771E-02  0.1027273E+00
         21   -1    0    0  502  501  0.00000000000E+00  0.00000000000E+00  0.32714177667E+02  0.32714177667E+02  0.00000000000E+00 0.  1.
         21   -1    0    0  501  502 -0.00000000000E+00 -0.00000000000E+00 -0.15578845929E+04  0.15578845929E+04  0.00000000000E+00 0.  1.
      99926    2    1    2    0    0 -0.17763568394E-14  0.00000000000E+00 -0.15251704153E+04  0.15905987706E+04  0.45150819863E+03 0.  0.
      99925    2    3    3    0    0  0.12941482460E+02 -0.86088991242E+01 -0.58152367628E+03  0.63857026724E+03  0.26336401617E+03 0.  0.
         25    1    4    4    0    0  0.30288850023E+02 -0.33977299253E+01 -0.21205798131E+03  0.24808275745E+03  0.12509000000E+03 0.  0.
         25    1    3    3    0    0 -0.12941482460E+02  0.86088991242E+01 -0.94364673900E+03  0.95202850337E+03  0.12509000000E+03 0.  0.
         25    1    4    4    0    0 -0.17347367562E+02 -0.52111691989E+01 -0.36946569496E+03  0.39048750979E+03  0.12509000000E+03 0.  0.
<mgrwt>
<rscale>  2 0.45150820E+03</rscale>
<asrwt>0</asrwt>
<pdfrwt beam="1">  1       21 0.48109100E-02 0.45150820E+03</pdfrwt>
<pdfrwt beam="2">  1       21 0.22910060E+00 0.45150820E+03</pdfrwt>
<totfact> 0.22239996E+04</totfact>
</mgrwt>
</event>
<event>
 7    0  0.4737014E-002  0.4523731E+03  0.7546771E-02  0.1027017E+00
         21   -1    0    0  502  501  0.00000000000E+00  0.00000000000E+00  0.47489107919E+03  0.47489107919E+03  0.00000000000E+00 0. -1.
         21   -1    0    0  501  502 -0.00000000000E+00 -0.00000000000E+00 -0.10773071876E+03  0.10773071876E+03  0.00000000000E+00 0. -1.
      99926    2    1    2    0    0  0.00000000000E+00  0.88817841970E-15  0.36716036043E+03  0.58262179795E+03  0.45237310837E+03 0.  0.
      99925    2    3    3    0    0 -0.10520153734E+03  0.79841468585E+01  0.18903542151E+03  0.34073936365E+03  0.26313079124E+03 0.  0.
         25    1    3    3    0    0  0.10520153734E+03 -0.79841468585E+01  0.17812493892E+03  0.24188243430E+03  0.12509000000E+03 0.  0.
         25    1    4    4    0    0 -0.52479679865E+02 -0.68378357723E+01  0.47044399837E+02  0.14374128305E+03  0.12509000000E+03 0.  0.
         25    1    4    4    0    0 -0.52721857473E+02  0.14821982631E+02  0.14199102167E+03  0.19699808060E+03  0.12509000000E+03 0.  0.
<mgrwt>
<rscale>  2 0.45237311E+03</rscale>
<asrwt>0</asrwt>
<pdfrwt beam="1">  1       21 0.69836922E-01 0.45237311E+03</pdfrwt>
<pdfrwt beam="2">  1       21 0.15842753E-01 0.45237311E+03</pdfrwt>
<totfact> 0.61018147E+04</totfact>
</mgrwt>
</event>
<event>
 7    0  0.4737014E-002  0.4034126E+03  0.7546771E-02  0.1042604E+00
         21   -1    0    0  502  501  0.00000000000E+00  0.00000000000E+00  0.27057747832E+03  0.27057747832E+03  0.00000000000E+00 0. -1.
         21   -1    0    0  501  502 -0.00000000000E+00 -0.00000000000E+00 -0.15036519411E+03  0.15036519411E+03  0.00000000000E+00 0. -1.
      99926    2    1    2    0    0  0.91593399532E-15  0.00000000000E+00  0.12021228421E+03  0.42094267243E+03  0.40341261780E+03 0.  0.
      99925    2    3    3    0    0 -0.23305746891E+00 -0.17357664327E+02  0.13065481404E+03  0.29422291329E+03  0.26304961405E+03 0.  0.
         25    1    4    4    0    0  0.12487106385E+02 -0.35628572193E+02  0.97155914586E+02  0.16282537524E+03  0.12509000000E+03 0.  0.
         25    1    3    3    0    0  0.23305746891E+00  0.17357664327E+02 -0.10442529831E+02  0.12671975914E+03  0.12509000000E+03 0.  0.
         25    1    4    4    0    0 -0.12720163854E+02  0.18270907866E+02  0.33498899454E+02  0.13139753806E+03  0.12509000000E+03 0.  0.
<mgrwt>
<rscale>  2 0.40341262E+03</rscale>
<asrwt>0</asrwt>
<pdfrwt beam="1">  1       21 0.39790805E-01 0.40341262E+03</pdfrwt>
<pdfrwt beam="2">  1       21 0.22112529E-01 0.40341262E+03</pdfrwt>
<totfact> 0.10976232E+05</totfact>
</mgrwt>
</event>
<event>
 7    0  0.4737014E-002  0.4462353E+03  0.7546771E-02  0.1028851E+00
         21   -1    0    0  502  501  0.00000000000E+00  0.00000000000E+00  0.43608026836E+03  0.43608026836E+03  0.00000000000E+00 0.  1.
         21   -1    0    0  501  502 -0.00000000000E+00 -0.00000000000E+00 -0.11415669250E+03  0.11415669250E+03  0.00000000000E+00 0.  1.
      99926    2    1    2    0    0  0.00000000000E+00 -0.14210854715E-13  0.32192357587E+03  0.55023696086E+03  0.44623527919E+03 0.  0.
      99925    2    3    3    0    0  0.72964361190E+02 -0.74506196363E+02  0.19212736542E+03  0.34198342392E+03  0.26299195120E+03 0.  0.
         25    1    4    4    0    0  0.32295123684E+02 -0.62584278190E+02  0.13838586211E+03  0.19939388612E+03  0.12509000000E+03 0.  0.
         25    1    4    4    0    0  0.40669237506E+02 -0.11921918173E+02  0.53741503310E+02  0.14258953780E+03  0.12509000000E+03 0.  0.
         25    1    3    3    0    0 -0.72964361190E+02  0.74506196363E+02  0.12979621044E+03  0.20825353694E+03  0.12509000000E+03 0.  0.
<mgrwt>
<rscale>  2 0.44623528E+03</rscale>
<asrwt>0</asrwt>
<pdfrwt beam="1">  1       21 0.64129451E-01 0.44623528E+03</pdfrwt>
<pdfrwt beam="2">  1       21 0.16787749E-01 0.44623528E+03</pdfrwt>
<totfact> 0.66332339E+04</totfact>
</mgrwt>
</event>
<event>
 7    0  0.4737014E-002  0.4579107E+03  0.7546771E-02  0.1025389E+00
         21   -1    0    0  502  501  0.00000000000E+00  0.00000000000E+00  0.56523778601E+03  0.56523778601E+03  0.00000000000E+00 0.  1.
         21   -1    0    0  501  502 -0.00000000000E+00 -0.00000000000E+00 -0.92740722530E+02  0.92740722530E+02  0.00000000000E+00 0.  1.
      99926    2    1    2    0    0  0.00000000000E+00  0.00000000000E+00  0.47249706348E+03  0.65797850854E+03  0.45791073661E+03 0.  0.
      99925    2    3    3    0    0  0.31377696888E+02 -0.10632707408E+03  0.34484848728E+03  0.44766523352E+03  0.26304690757E+03 0.  0.
         25    1    3    3    0    0 -0.31377696888E+02  0.10632707408E+03  0.12764857621E+03  0.21031327503E+03  0.12509000000E+03 0.  0.
         25    1    4    4    0    0  0.37262694236E+02 -0.79218138186E+02  0.22707244437E+03  0.27363008770E+03  0.12509000000E+03 0.  0.
         25    1    4    4    0    0 -0.58849973476E+01 -0.27108935895E+02  0.11777604290E+03  0.17403514582E+03  0.12509000000E+03 0.  0.
<mgrwt>
<rscale>  2 0.45791074E+03</rscale>
<asrwt>0</asrwt>
<pdfrwt beam="1">  1       21 0.83123202E-01 0.45791074E+03</pdfrwt>
<pdfrwt beam="2">  1       21 0.13638342E-01 0.45791074E+03</pdfrwt>
<totfact> 0.53993849E+04</totfact>
</mgrwt>
</event>
<event>
 7    0  0.4737014E-002  0.4239873E+03  0.7546771E-02  0.1035776E+00
         21   -1    0    0  502  501  0.00000000000E+00  0.00000000000E+00  0.11556403255E+03  0.11556403255E+03  0.00000000000E+00 0.  1.
         21   -1    0    0  501  502 -0.00000000000E+00 -0.00000000000E+00 -0.38888659901E+03  0.38888659901E+03  0.00000000000E+00 0.  1.
      99926    2    1    2    0    0  0.00000000000E+00  0.00000000000E+00 -0.27332256646E+03  0.50445063156E+03  0.42398728087E+03 0.  0.
      99925    2    3    3    0    0 -0.64959147777E+02  0.43293773738E+02 -0.20193837235E+03  0.34062983619E+03  0.26297440437E+03 0.  0.
         25    1    3    3    0    0  0.64959147777E+02 -0.43293773738E+02 -0.71384194116E+02  0.16382079536E+03  0.12509000000E+03 0.  0.
         25    1    4    4    0    0 -0.41654630493E+02  0.27320167598E+02 -0.15186880114E+03  0.20296093382E+03  0.12509000000E+03 0.  0.
         25    1    4    4    0    0 -0.23304517284E+02  0.15973606140E+02 -0.50069571208E+02  0.13766890237E+03  0.12509000000E+03 0.  0.
<mgrwt>
<rscale>  2 0.42398728E+03</rscale>
<asrwt>0</asrwt>
<pdfrwt beam="1">  1       21 0.16994711E-01 0.42398728E+03</pdfrwt>
<pdfrwt beam="2">  1       21 0.57189204E-01 0.42398728E+03</pdfrwt>
<totfact> 0.83730347E+04</totfact>
</mgrwt>
</event>
<event>
 7    0  0.4737014E-002  0.4896286E+03  0.7546771E-02  0.1016522E+00
         21   -1    0    0  502  501  0.00000000000E+00  0.00000000000E+00  0.49554699956E+03  0.49554699956E+03  0.00000000000E+00 0.  1.
         21   -1    0    0  501  502 -0.00000000000E+00 -0.00000000000E+00 -0.12094520688E+03  0.12094520688E+03  0.00000000000E+00 0.  1.
      99926    2    1    2    0    0  0.00000000000E+00  0.17763568394E-14  0.37460179268E+03  0.61649220645E+03  0.48962857099E+03 0.  0.
      99925    2    3    3    0    0 -0.13027834878E+03 -0.99981687733E+01  0.30294263353E+03  0.42192870851E+03  0.26301555908E+03 0.  0.
         25    1    3    3    0    0  0.13027834878E+03  0.99981687733E+01  0.71659159150E+02  0.19456349793E+03  0.12509000000E+03 0.  0.
         25    1    4    4    0    0 -0.83921470846E+02  0.21512709887E+02  0.12261000083E+03  0.19541322975E+03  0.12509000000E+03 0.  0.
         25    1    4    4    0    0 -0.46356877930E+02 -0.31510878661E+02  0.18033263270E+03  0.22651547877E+03  0.12509000000E+03 0.  0.
<mgrwt>
<rscale>  2 0.48962857E+03</rscale>
<asrwt>0</asrwt>
<pdfrwt beam="1">  1       21 0.72874558E-01 0.48962857E+03</pdfrwt>
<pdfrwt beam="2">  1       21 0.17786060E-01 0.48962857E+03</pdfrwt>
<totfact> 0.44265589E+04</totfact>
</mgrwt>
</event>
<event>
 7    0  0.4737014E-002  0.4512045E+03  0.7546771E-02  0.1027363E+00
         21   -1    0    0  502  501  0.00000000000E+00  0.00000000000E+00  0.25166942735E+03  0.25166942735E+03  0.00000000000E+00 0.  1.
         21   -1    0    0  501  502 -0.00000000000E+00 -0.00000000000E+00 -0.20223499375E+03  0.20223499375E+03  0.00000000000E+00 0.  1.
      99926    2    1    2    0    0 -0.71054273576E-14  0.00000000000E+00  0.49434433604E+02  0.45390442111E+03  0.45120445507E+03 0.  0.
      99925    2    3    3    0    0 -0.61947363227E+02 -0.90458834544E+02  0.28583500171E+02  0.28626628081E+03  0.26288988282E+03 0.  0.
         25    1    3    3    0    0  0.61947363227E+02  0.90458834544E+02  0.20850933433E+02  0.16763814030E+03  0.12509000000E+03 0.  0.
         25    1    4    4    0    0 -0.49622721177E+02 -0.35191930437E+02  0.48938792845E+02  0.14745643414E+03  0.12509000000E+03 0.  0.
         25    1    4    4    0    0 -0.12324642051E+02 -0.55266904106E+02 -0.20355292675E+02  0.13880984666E+03  0.12509000000E+03 0.  0.
<mgrwt>
<rscale>  2 0.45120446E+03</rscale>
<asrwt>0</asrwt>
<pdfrwt beam="1">  1       21 0.37010210E-01 0.45120446E+03</pdfrwt>
<pdfrwt beam="2">  1       21 0.29740440E-01 0.45120446E+03</pdfrwt>
<totfact> 0.70744252E+04</totfact>
</mgrwt>
</event>
<event>
 7    0  0.4737014E-002  0.4474841E+03  0.7546771E-02  0.1028475E+00
         21   -1    0    0  502  501  0.00000000000E+00  0.00000000000E+00  0.22429388291E+03  0.22429388291E+03  0.00000000000E+00 0. -1.
         21   -1    0    0  501  502 -0.00000000000E+00 -0.00000000000E+00 -0.22319153000E+03  0.22319153000E+03  0.00000000000E+00 0. -1.
      99926    2    1    2    0    0 -0.17763568394E-14  0.00000000000E+00  0.11023529077E+01  0.44748541292E+03  0.44748405513E+03 0.  0.
      99925    2    3    3    0    0  0.12559732374E+02  0.78318595398E+02 -0.69545926318E+02  0.28338106587E+03  0.26301453071E+03 0.  0.
         25    1    4    4    0    0 -0.23544372874E+02  0.12035769050E+02 -0.21939191704E+02  0.12972291033E+03  0.12509000000E+03 0.  0.
         25    1    4    4    0    0  0.36104105248E+02  0.66282826349E+02 -0.47606734615E+02  0.15365815554E+03  0.12509000000E+03 0.  0.
         25    1    3    3    0    0 -0.12559732374E+02 -0.78318595398E+02  0.70648279226E+02  0.16410434705E+03  0.12509000000E+03 0.  0.
<mgrwt>
<rscale>  2 0.44748406E+03</rscale>
<asrwt>0</asrwt>
<pdfrwt beam="1">  1       21 0.32984395E-01 0.44748406E+03</pdfrwt>
<pdfrwt beam="2">  1       21 0.32822284E-01 0.44748406E+03</pdfrwt>
<totfact> 0.73404065E+04</totfact>
</mgrwt>
</event>
<event>
 7    0  0.4737014E-002  0.4562100E+03  0.7546771E-02  0.1025886E+00
         21   -1    0    0  502  501  0.00000000000E+00  0.00000000000E+00  0.74267883196E+03  0.74267883196E+03  0.00000000000E+00 0. -1.
         21   -1    0    0  501  502 -0.00000000000E+00 -0.00000000000E+00 -0.70059753909E+02  0.70059753909E+02  0.00000000000E+00 0. -1.
      99926    2    1    2    0    0  0.00000000000E+00 -0.44408920985E-15  0.67261907805E+03  0.81273858587E+03  0.45621002269E+03 0.  0.
      99925    2    3    3    0    0 -0.11426905243E+03  0.27606547266E+01  0.42701023852E+03  0.51434916294E+03  0.26296821112E+03 0.  0.
         25    1    3    3    0    0  0.11426905243E+03 -0.27606547266E+01  0.24560883953E+03  0.29838942293E+03  0.12509000000E+03 0.  0.
         25    1    4    4    0    0 -0.94952767738E+02 -0.51096755694E+01  0.27143911020E+03  0.31363806454E+03  0.12509000000E+03 0.  0.
         25    1    4    4    0    0 -0.19316284697E+02  0.78703302960E+01  0.15557112833E+03  0.20071109840E+03  0.12509000000E+03 0.  0.
<mgrwt>
<rscale>  2 0.45621002E+03</rscale>
<asrwt>0</asrwt>
<pdfrwt beam="1">  1       21 0.10921747E+00 0.45621002E+03</pdfrwt>
<pdfrwt beam="2">  1       21 0.10302905E-01 0.45621002E+03</pdfrwt>
<totfact> 0.46709730E+04</totfact>
</mgrwt>
</event>
<event>
 7    0  0.4737014E-002  0.4593692E+03  0.7546771E-02  0.1024964E+00
         21   -1    0    0  502  501  0.00000000000E+00  0.00000000000E+00  0.36953270133E+03  0.36953270133E+03  0.00000000000E+00 0. -1.
         21   -1    0    0  501  502 -0.00000000000E+00 -0.00000000000E+00 -0.14276140585E+03  0.14276140585E+03  0.00000000000E+00 0. -1.
      99926    2    1    2    0    0  0.35527136788E-14  0.13322676296E-14  0.22677129547E+03  0.51229410718E+03  0.45936916723E+03 0.  0.
      99925    2    3    3    0    0  0.22604812425E+02  0.29577902517E+01  0.27056569341E+03  0.37781294323E+03  0.26271105716E+03 0.  0.
         25    1    3    3    0    0 -0.22604812425E+02 -0.29577902517E+01 -0.43794397937E+02  0.13448116395E+03  0.12509000000E+03 0.  0.
         25    1    4    4    0    0  0.43845943355E+02  0.24571652180E+02  0.14538658861E+03  0.19827002065E+03  0.12509000000E+03 0.  0.
         25    1    4    4    0    0 -0.21241130930E+02 -0.21613861929E+02  0.12517910480E+03  0.17954292258E+03  0.12509000000E+03 0.  0.
<mgrwt>
<rscale>  2 0.45936917E+03</rscale>
<asrwt>0</asrwt>
<pdfrwt beam="1">  1       21 0.54343044E-01 0.45936917E+03</pdfrwt>
<pdfrwt beam="2">  1       21 0.20994324E-01 0.45936917E+03</pdfrwt>
<totfact> 0.62229338E+04</totfact>
</mgrwt>
</event>
<event>
 7    0  0.4737014E-002  0.4727733E+03  0.7546771E-02  0.1021140E+00
         21   -1    0    0  502  501  0.00000000000E+00  0.00000000000E+00  0.93195995650E+02  0.93195995650E+02  0.00000000000E+00 0.  1.
         21   -1    0    0  501  502 -0.00000000000E+00 -0.00000000000E+00 -0.59958209709E+03  0.59958209709E+03  0.00000000000E+00 0.  1.
      99926    2    1    2    0    0  0.00000000000E+00  0.00000000000E+00 -0.50638610144E+03  0.69277809274E+03  0.47277330937E+03 0.  0.
      99925    2    3    3    0    0  0.97298223647E+02  0.84863539297E+02 -0.30822799575E+03  0.42522827013E+03  0.26295592735E+03 0.  0.
         25    1    3    3    0    0 -0.97298223647E+02 -0.84863539297E+02 -0.19815810569E+03  0.26754982261E+03  0.12509000000E+03 0.  0.
         25    1    4    4    0    0  0.79707336032E+02  0.21089292846E+02 -0.18075816072E+03  0.23477444166E+03  0.12509000000E+03 0.  0.
         25    1    4    4    0    0  0.17590887615E+02  0.63774246451E+02 -0.12746983503E+03  0.19045382847E+03  0.12509000000E+03 0.  0.
<mgrwt>
<rscale>  2 0.47277331E+03</rscale>
<asrwt>0</asrwt>
<pdfrwt beam="1">  1       21 0.13705294E-01 0.47277331E+03</pdfrwt>
<pdfrwt beam="2">  1       21 0.88173833E-01 0.47277331E+03</pdfrwt>
<totfact> 0.46445314E+04</totfact>
</mgrwt>
</event>
<event>
 7    0  0.4737014E-002  0.4585536E+03  0.7546771E-02  0.1025202E+00
         21   -1    0    0  502  501  0.00000000000E+00  0.00000000000E+00  0.39360510678E+03  0.39360510678E+03  0.00000000000E+00 0. -1.
         21   -1    0    0  501  502 -0.00000000000E+00 -0.00000000000E+00 -0.13355482436E+03  0.13355482436E+03  0.00000000000E+00 0. -1.
      99926    2    1    2    0    0  0.00000000000E+00 -0.35527136788E-14  0.26005028242E+03  0.52715993114E+03  0.45855364311E+03 0.  0.
      99925    2    3    3    0    0 -0.28741712880E+02  0.22399194959E+02  0.35901938390E+02  0.26789597640E+03  0.26296671843E+03 0.  0.
         25    1    4    4    0    0 -0.16033550512E+02  0.19541392937E+02 -0.21898086754E+02  0.12948349348E+03  0.12509000000E+03 0.  0.
         25    1    4    4    0    0 -0.12708162367E+02  0.28578020215E+01  0.57800025144E+02  0.13841248293E+03  0.12509000000E+03 0.  0.
         25    1    3    3    0    0  0.28741712880E+02 -0.22399194959E+02  0.22414834403E+03  0.25926395473E+03  0.12509000000E+03 0.  0.
<mgrwt>
<rscale>  2 0.45855364E+03</rscale>
<asrwt>0</asrwt>
<pdfrwt beam="1">  1       21 0.57883104E-01 0.45855364E+03</pdfrwt>
<pdfrwt beam="2">  1       21 0.19640415E-01 0.45855364E+03</pdfrwt>
<totfact> 0.61644246E+04</totfact>
</mgrwt>
</event>
<event>
 7    0  0.4737014E-002  0.4518489E+03  0.7546771E-02  0.1027172E+00
         21   -1    0    0  502  501  0.00000000000E+00  0.00000000000E+00  0.11908319519E+04  0.11908319519E+04  0.00000000000E+00 0. -1.
         21   -1    0    0  501  502 -0.00000000000E+00 -0.00000000000E+00 -0.42862355351E+02  0.42862355351E+02  0.00000000000E+00 0. -1.
      99926    2    1    2    0    0  0.35527136788E-14  0.14210854715E-13  0.11479695966E+04  0.12336943073E+04  0.45184892292E+03 0.  0.
      99925    2    3    3    0    0 -0.19194891124E+02 -0.71298166090E+02  0.50136058192E+03  0.57097068595E+03  0.26304603927E+03 0.  0.
         25    1    3    3    0    0  0.19194891124E+02  0.71298166090E+02  0.64660901465E+03  0.66272362132E+03  0.12509000000E+03 0.  0.
         25    1    4    4    0    0  0.20881653948E+02 -0.44363569505E+02  0.30403623712E+03  0.33239992683E+03  0.12509000000E+03 0.  0.
         25    1    4    4    0    0 -0.40076545071E+02 -0.26934596586E+02  0.19732434480E+03  0.23857075912E+03  0.12509000000E+03 0.  0.
<mgrwt>
<rscale>  2 0.45184892E+03</rscale>
<asrwt>0</asrwt>
<pdfrwt beam="1">  1       21 0.17512232E+00 0.45184892E+03</pdfrwt>
<pdfrwt beam="2">  1       21 0.63032884E-02 0.45184892E+03</pdfrwt>
<totfact> 0.31877688E+04</totfact>
</mgrwt>
</event>
<event>
 7    0  0.4737014E-002  0.4587065E+03  0.7546771E-02  0.1025157E+00
         21   -1    0    0  502  501  0.00000000000E+00  0.00000000000E+00  0.34334902578E+02  0.34334902578E+02  0.00000000000E+00 0.  1.
         21   -1    0    0  501  502 -0.00000000000E+00 -0.00000000000E+00 -0.15320538816E+04  0.15320538816E+04  0.00000000000E+00 0.  1.
      99926    2    1    2    0    0  0.00000000000E+00  0.00000000000E+00 -0.14977189790E+04  0.15663887842E+04  0.45870653263E+03 0.  0.
      99925    2    3    3    0    0  0.47726648923E+02  0.46541989817E+02 -0.12659965089E+04  0.12947515241E+04  0.26304060264E+03 0.  0.
         25    1    4    4    0    0  0.43765420142E+02  0.50037752618E+02 -0.78791465077E+03  0.80054743375E+03  0.12509000000E+03 0.  0.
         25    1    3    3    0    0 -0.47726648923E+02 -0.46541989817E+02 -0.23172247013E+03  0.27163726014E+03  0.12509000000E+03 0.  0.
         25    1    4    4    0    0  0.39612287808E+01 -0.34957628011E+01 -0.47808185814E+03  0.49420409030E+03  0.12509000000E+03 0.  0.
<mgrwt>
<rscale>  2 0.45870653E+03</rscale>
<asrwt>0</asrwt>
<pdfrwt beam="1">  1       21 0.50492500E-02 0.45870653E+03</pdfrwt>
<pdfrwt beam="2">  1       21 0.22530206E+00 0.45870653E+03</pdfrwt>
<totfact> 0.21570338E+04</totfact>
</mgrwt>
</event>
<event>
 7    0  0.4737014E-002  0.4522504E+03  0.7546771E-02  0.1027053E+00
         21   -1    0    0  502  501  0.00000000000E+00  0.00000000000E+00  0.57968657533E+03  0.57968657533E+03  0.00000000000E+00 0.  1.
         21   -1    0    0  501  502 -0.00000000000E+00 -0.00000000000E+00 -0.88207336313E+02  0.88207336313E+02  0.00000000000E+00 0.  1.
      99926    2    1    2    0    0  0.00000000000E+00  0.00000000000E+00  0.49147923901E+03  0.66789391164E+03  0.45225041164E+03 0.  0.
      99925    2    3    3    0    0 -0.94551775815E+02  0.53852828320E+02  0.33949015645E+03  0.44297536028E+03  0.26293238306E+03 0.  0.
         25    1    4    4    0    0 -0.19122343545E+02 -0.57716717216E+01  0.15735914108E+03  0.20201085020E+03  0.12509000000E+03 0.  0.
         25    1    4    4    0    0 -0.75429432270E+02  0.59624500041E+02  0.18213101537E+03  0.24096451008E+03  0.12509000000E+03 0.  0.
         25    1    3    3    0    0  0.94551775815E+02 -0.53852828320E+02  0.15198908256E+03  0.22491855136E+03  0.12509000000E+03 0.  0.
<mgrwt>
<rscale>  2 0.45225041E+03</rscale>
<asrwt>0</asrwt>
<pdfrwt beam="1">  1       21 0.85248024E-01 0.45225041E+03</pdfrwt>
<pdfrwt beam="2">  1       21 0.12971667E-01 0.45225041E+03</pdfrwt>
<totfact> 0.55882461E+04</totfact>
</mgrwt>
</event>
<event>
 7    0  0.4737014E-002  0.4493545E+03  0.7546771E-02  0.1027915E+00
         21   -1    0    0  502  501  0.00000000000E+00  0.00000000000E+00  0.18679024209E+03  0.18679024209E+03  0.00000000000E+00 0. -1.
         21   -1    0    0  501  502 -0.00000000000E+00 -0.00000000000E+00 -0.27024890425E+03  0.27024890425E+03  0.00000000000E+00 0. -1.
      99926    2    1    2    0    0  0.00000000000E+00 -0.17763568394E-14 -0.83458662162E+02  0.45703914634E+03  0.44935446253E+03 0.  0.
      99925    2    3    3    0    0  0.32012279563E+02 -0.15536458276E+02  0.50659071986E+02  0.27022040453E+03  0.26303337786E+03 0.  0.
         25    1    4    4    0    0 -0.11925096269E+01 -0.25478418957E+02  0.57974686628E+02  0.14021107054E+03  0.12509000000E+03 0.  0.
         25    1    3    3    0    0 -0.32012279563E+02  0.15536458276E+02 -0.13411773415E+03  0.18681874181E+03  0.12509000000E+03 0.  0.
         25    1    4    4    0    0  0.33204789190E+02  0.99419606814E+01 -0.73156146417E+01  0.13000933399E+03  0.12509000000E+03 0.  0.
<mgrwt>
<rscale>  2 0.44935446E+03</rscale>
<asrwt>0</asrwt>
<pdfrwt beam="1">  1       21 0.27469153E-01 0.44935446E+03</pdfrwt>
<pdfrwt beam="2">  1       21 0.39742486E-01 0.44935446E+03</pdfrwt>
<totfact> 0.71563331E+04</totfact>
</mgrwt>
</event>
<event>
 7    0  0.4737014E-002  0.4457865E+03  0.7546771E-02  0.1028986E+00
         21   -1    0    0  502  501  0.00000000000E+00  0.00000000000E+00  0.25685780610E+03  0.25685780610E+03  0.00000000000E+00 0. -1.
         21   -1    0    0  501  502 -0.00000000000E+00 -0.00000000000E+00 -0.19341986915E+03  0.19341986915E+03  0.00000000000E+00 0. -1.
      99926    2    1    2    0    0 -0.71054273576E-14  0.00000000000E+00  0.63437936949E+02  0.45027767524E+03  0.44578651054E+03 0.  0.
      99925    2    3    3    0    0  0.47109884625E+02  0.92797840143E+02  0.34569514634E+02  0.28501523465E+03  0.26307385327E+03 0.  0.
         25    1    3    3    0    0 -0.47109884625E+02 -0.92797840143E+02  0.28868422316E+02  0.16526244060E+03  0.12509000000E+03 0.  0.
         25    1    4    4    0    0  0.33087332062E+02  0.70796216803E+01  0.37509952803E+01  0.12963977265E+03  0.12509000000E+03 0.  0.
         25    1    4    4    0    0  0.14022552562E+02  0.85718218462E+02  0.30818519353E+02  0.15537546200E+03  0.12509000000E+03 0.  0.
<mgrwt>
<rscale>  2 0.44578651E+03</rscale>
<asrwt>0</asrwt>
<pdfrwt beam="1">  1       21 0.37773207E-01 0.44578651E+03</pdfrwt>
<pdfrwt beam="2">  1       21 0.28444098E-01 0.44578651E+03</pdfrwt>
<totfact> 0.74198699E+04</totfact>
</mgrwt>
</event>
<event>
 7    0  0.4737014E-002  0.4573425E+03  0.7546771E-02  0.1025555E+00
         21   -1    0    0  502  501  0.00000000000E+00  0.00000000000E+00  0.15070004251E+03  0.15070004251E+03  0.00000000000E+00 0.  1.
         21   -1    0    0  501  502 -0.00000000000E+00 -0.00000000000E+00 -0.34698418585E+03  0.34698418585E+03  0.00000000000E+00 0.  1.
      99926    2    1    2    0    0  0.00000000000E+00  0.00000000000E+00 -0.19628414334E+03  0.49768422836E+03  0.45734246055E+03 0.  0.
      99925    2    3    3    0    0  0.65569044954E+02  0.13557137427E+02 -0.21207410936E+02  0.27233457568E+03  0.26312216022E+03 0.  0.
         25    1    4    4    0    0  0.20730133035E+01  0.27495303567E+02 -0.28303334315E+02  0.13118260531E+03  0.12509000000E+03 0.  0.
         25    1    3    3    0    0 -0.65569044954E+02 -0.13557137427E+02 -0.17507673241E+03  0.22534965268E+03  0.12509000000E+03 0.  0.
         25    1    4    4    0    0  0.63496031650E+02 -0.13938166140E+02  0.70959233789E+01  0.14115197037E+03  0.12509000000E+03 0.  0.
<mgrwt>
<rscale>  2 0.45734246E+03</rscale>
<asrwt>0</asrwt>
<pdfrwt beam="1">  1       21 0.22161771E-01 0.45734246E+03</pdfrwt>
<pdfrwt beam="2">  1       21 0.51027085E-01 0.45734246E+03</pdfrwt>
<totfact> 0.64230918E+04</totfact>
</mgrwt>
</event>
<event>
 7    0  0.4737014E-002  0.4554591E+03  0.7546771E-02  0.1026106E+00
         21   -1    0    0  502  501  0.00000000000E+00  0.00000000000E+00  0.15569505140E+03  0.15569505140E+03  0.00000000000E+00 0.  1.
         21   -1    0    0  501  502 -0.00000000000E+00 -0.00000000000E+00 -0.33309177037E+03  0.33309177037E+03  0.00000000000E+00 0.  1.
      99926    2    1    2    0    0  0.00000000000E+00  0.00000000000E+00 -0.17739671897E+03  0.48878682177E+03  0.45545906647E+03 0.  0.
      99925    2    3    3    0    0  0.46833422915E+02  0.40651833405E+02 -0.88334642240E+01  0.26991009844E+03  0.26254045420E+03 0.  0.
         25    1    3    3    0    0 -0.46833422915E+02 -0.40651833405E+02 -0.16856325475E+03  0.21887672332E+03  0.12509000000E+03 0.  0.
         25    1    4    4    0    0 -0.89295167711E+01  0.26324360278E+02  0.18647511108E+02  0.12949110388E+03  0.12509000000E+03 0.  0.
         25    1    4    4    0    0  0.55762939686E+02  0.14327473128E+02 -0.27480975332E+02  0.14041899456E+03  0.12509000000E+03 0.  0.
<mgrwt>
<rscale>  2 0.45545907E+03</rscale>
<asrwt>0</asrwt>
<pdfrwt beam="1">  1       21 0.22896331E-01 0.45545907E+03</pdfrwt>
<pdfrwt beam="2">  1       21 0.48984084E-01 0.45545907E+03</pdfrwt>
<totfact> 0.65825613E+04</totfact>
</mgrwt>
</event>
<event>
 7    0  0.4737014E-002  0.4510180E+03  0.7546771E-02  0.1027419E+00
         21   -1    0    0  502  501  0.00000000000E+00  0.00000000000E+00  0.19244150234E+03  0.19244150234E+03  0.00000000000E+00 0. -1.
         21   -1    0    0  501  502 -0.00000000000E+00 -0.00000000000E+00 -0.26425852914E+03  0.26425852914E+03  0.00000000000E+00 0. -1.
      99926    2    1    2    0    0  0.00000000000E+00 -0.35527136788E-14 -0.71817026798E+02  0.45670003148E+03  0.45101799677E+03 0.  0.
      99925    2    3    3    0    0 -0.10456975817E+03  0.19275830386E+02 -0.71936059352E+02  0.29252355865E+03  0.26284756756E+03 0.  0.
         25    1    3    3    0    0  0.10456975817E+03 -0.19275830386E+02  0.11903255436E+00  0.16417647283E+03  0.12509000000E+03 0.  0.
         25    1    4    4    0    0 -0.46489873742E+02 -0.19184920835E+02 -0.61681192264E+01  0.13496267389E+03  0.12509000000E+03 0.  0.
         25    1    4    4    0    0 -0.58079884428E+02  0.38460751221E+02 -0.65767940126E+02  0.15756088477E+03  0.12509000000E+03 0.  0.
<mgrwt>
<rscale>  2 0.45101800E+03</rscale>
<asrwt>0</asrwt>
<pdfrwt beam="1">  1       21 0.28300221E-01 0.45101800E+03</pdfrwt>
<pdfrwt beam="2">  1       21 0.38861548E-01 0.45101800E+03</pdfrwt>
<totfact> 0.70638285E+04</totfact>
</mgrwt>
</event>
<event>
 7    0  0.4737014E-002  0.4527139E+03  0.7546771E-02  0.1026916E+00
         21   -1    0    0  502  501  0.00000000000E+00  0.00000000000E+00  0.78334047623E+02  0.78334047623E+02  0.00000000000E+00 0. -1.
         21   -1    0    0  501  502 -0.00000000000E+00 -0.00000000000E+00 -0.65408938468E+03  0.65408938468E+03  0.00000000000E+00 0. -1.
      99926    2    1    2    0    0  0.00000000000E+00  0.00000000000E+00 -0.57575533705E+03  0.73242343230E+03  0.45271390086E+03 0.  0.
      99925    2    3    3    0    0 -0.63330189835E+02 -0.25646213776E+02 -0.50473483967E+03  0.57317563679E+03  0.26287755897E+03 0.  0.
         25    1    3    3    0    0  0.63330189835E+02  0.25646213776E+02 -0.71020497387E+02  0.15924779551E+03  0.12509000000E+03 0.  0.
         25    1    4    4    0    0 -0.59735841465E+02 -0.14906254568E+01 -0.20504963292E+03  0.24751455065E+03  0.12509000000E+03 0.  0.
         25    1    4    4    0    0 -0.35943483702E+01 -0.24155588319E+02 -0.29968520674E+03  0.32566108614E+03  0.12509000000E+03 0.  0.
<mgrwt>
<rscale>  2 0.45271390E+03</rscale>
<asrwt>0</asrwt>
<pdfrwt beam="1">  1       21 0.11519713E-01 0.45271390E+03</pdfrwt>
<pdfrwt beam="2">  1       21 0.96189614E-01 0.45271390E+03</pdfrwt>
<totfact> 0.52108082E+04</totfact>
</mgrwt>
</event>
<event>
 7    0  0.4737014E-002  0.4568850E+03  0.7546771E-02  0.1025689E+00
         21   -1    0    0  502  501  0.00000000000E+00  0.00000000000E+00  0.30314383647E+03  0.30314383647E+03  0.00000000000E+00 0. -1.
         21   -1    0    0  501  502 -0.00000000000E+00 -0.00000000000E+00 -0.17214924026E+03  0.17214924026E+03  0.00000000000E+00 0. -1.
      99926    2    1    2    0    0  0.71054273576E-14  0.00000000000E+00  0.13099459621E+03  0.47529307673E+03  0.45688502334E+03 0.  0.
      99925    2    3    3    0    0  0.43852209919E+02 -0.24450571941E+02  0.18985864997E+03  0.32821033911E+03  0.26297314111E+03 0.  0.
         25    1    4    4    0    0 -0.27918409317E+01 -0.43986299669E+02  0.88262795059E+02  0.15931232854E+03  0.12509000000E+03 0.  0.
         25    1    3    3    0    0 -0.43852209919E+02  0.24450571941E+02 -0.58864053753E+02  0.14708273763E+03  0.12509000000E+03 0.  0.
         25    1    4    4    0    0  0.46644050851E+02  0.19535727728E+02  0.10159585491E+03  0.16889801056E+03  0.12509000000E+03 0.  0.
<mgrwt>
<rscale>  2 0.45688502E+03</rscale>
<asrwt>0</asrwt>
<pdfrwt beam="1">  1       21 0.44579976E-01 0.45688502E+03</pdfrwt>
<pdfrwt beam="2">  1       21 0.25316065E-01 0.45688502E+03</pdfrwt>
<totfact> 0.66050806E+04</totfact>
</mgrwt>
</event>
<event>
 7    0  0.4737014E-002  0.4405105E+03  0.7546771E-02  0.1030590E+00
         21   -1    0    0  502  501  0.00000000000E+00  0.00000000000E+00  0.11072396063E+04  0.11072396063E+04  0.00000000000E+00 0. -1.
         21   -1    0    0  501  502 -0.00000000000E+00 -0.00000000000E+00 -0.43813792063E+02  0.43813792063E+02  0.00000000000E+00 0. -1.
      99926    2    1    2    0    0  0.00000000000E+00 -0.35527136788E-14  0.10634258143E+04  0.11510533984E+04  0.44051045788E+03 0.  0.
      99925    2    3    3    0    0 -0.40537670267E+02  0.23663246659E+02  0.90603473224E+03  0.94460070949E+03  0.26299869275E+03 0.  0.
         25    1    3    3    0    0  0.40537670267E+02 -0.23663246659E+02  0.15739108202E+03  0.20645268890E+03  0.12509000000E+03 0.  0.
         25    1    4    4    0    0 -0.12840902455E+02  0.20267650853E+02  0.58950546937E+03  0.60310850845E+03  0.12509000000E+03 0.  0.
         25    1    4    4    0    0 -0.27696767813E+02  0.33955958067E+01  0.31652926287E+03  0.34149220104E+03  0.12509000000E+03 0.  0.
<mgrwt>
<rscale>  2 0.44051046E+03</rscale>
<asrwt>0</asrwt>
<pdfrwt beam="1">  1       21 0.16282934E+00 0.44051046E+03</pdfrwt>
<pdfrwt beam="2">  1       21 0.64432054E-02 0.44051046E+03</pdfrwt>
<totfact> 0.37843481E+04</totfact>
</mgrwt>
</event>
<event>
 7    0  0.4737014E-002  0.4094346E+03  0.7546771E-02  0.1040561E+00
         21   -1    0    0  502  501  0.00000000000E+00  0.00000000000E+00  0.27183044955E+03  0.27183044955E+03  0.00000000000E+00 0.  1.
         21   -1    0    0  501  502 -0.00000000000E+00 -0.00000000000E+00 -0.15417392546E+03  0.15417392546E+03  0.00000000000E+00 0.  1.
      99926    2    1    2    0    0  0.00000000000E+00 -0.71054273576E-14  0.11765652409E+03  0.42600437501E+03  0.40943457337E+03 0.  0.
      99925    2    3    3    0    0 -0.42631257461E+02 -0.39619545421E+02  0.58423782006E+02  0.27586058284E+03  0.26324625424E+03 0.  0.
         25    1    4    4    0    0 -0.62700029406E+02 -0.19838931473E+02  0.33404827736E+02  0.14521799994E+03  0.12509000000E+03 0.  0.
         25    1    4    4    0    0  0.20068771945E+02 -0.19780613948E+02  0.25018954271E+02  0.13064258291E+03  0.12509000000E+03 0.  0.
         25    1    3    3    0    0  0.42631257461E+02  0.39619545421E+02  0.59232742080E+02  0.15014379217E+03  0.12509000000E+03 0.  0.
<mgrwt>
<rscale>  2 0.40943457E+03</rscale>
<asrwt>0</asrwt>
<pdfrwt beam="1">  1       21 0.39975066E-01 0.40943457E+03</pdfrwt>
<pdfrwt beam="2">  1       21 0.22672636E-01 0.40943457E+03</pdfrwt>
<totfact> 0.10350089E+05</totfact>
</mgrwt>
</event>
<event>
 7    0  0.4737014E-002  0.4561497E+03  0.7546771E-02  0.1025904E+00
         21   -1    0    0  502  501  0.00000000000E+00  0.00000000000E+00  0.98002010644E+02  0.98002010644E+02  0.00000000000E+00 0. -1.
         21   -1    0    0  501  502 -0.00000000000E+00 -0.00000000000E+00 -0.53078631977E+03  0.53078631977E+03  0.00000000000E+00 0. -1.
      99926    2    1    2    0    0 -0.14210854715E-13  0.00000000000E+00 -0.43278430912E+03  0.62878833041E+03  0.45614965334E+03 0.  0.
      99925    2    3    3    0    0  0.75824054494E+02 -0.59240062651E+01 -0.15437196857E+03  0.31423257929E+03  0.26292019344E+03 0.  0.
         25    1    4    4    0    0  0.63044799677E+02 -0.57255029010E+01 -0.44045944674E+02  0.14695231026E+03  0.12509000000E+03 0.  0.
         25    1    4    4    0    0  0.12779254817E+02 -0.19850336417E+00 -0.11032602389E+03  0.16728026903E+03  0.12509000000E+03 0.  0.
         25    1    3    3    0    0 -0.75824054494E+02  0.59240062651E+01 -0.27841234056E+03  0.31455575112E+03  0.12509000000E+03 0.  0.
<mgrwt>
<rscale>  2 0.45614965E+03</rscale>
<asrwt>0</asrwt>
<pdfrwt beam="1">  1       21 0.14412061E-01 0.45614965E+03</pdfrwt>
<pdfrwt beam="2">  1       21 0.78056811E-01 0.45614965E+03</pdfrwt>
<totfact> 0.56426490E+04</totfact>
</mgrwt>
</event>
<event>
 7    0  0.4737014E-002  0.4451065E+03  0.7546771E-02  0.1029191E+00
         21   -1    0    0  502  501  0.00000000000E+00  0.00000000000E+00  0.94698534521E+02  0.94698534521E+02  0.00000000000E+00 0.  1.
         21   -1    0    0  501  502 -0.00000000000E+00 -0.00000000000E+00 -0.52302768742E+03  0.52302768742E+03  0.00000000000E+00 0.  1.
      99926    2    1    2    0    0 -0.14210854715E-13 -0.71054273576E-14 -0.42832915289E+03  0.61772622194E+03  0.44510652888E+03 0.  0.
      99925    2    3    3    0    0 -0.81361402682E+02 -0.41393166580E+02 -0.20841938563E+03  0.34876361129E+03  0.26431864136E+03 0.  0.
         25    1    4    4    0    0 -0.83336814251E+02 -0.13251436642E+02 -0.12318392873E+03  0.19478812484E+03  0.12509000000E+03 0.  0.
         25    1    3    3    0    0  0.81361402682E+02  0.41393166580E+02 -0.21990976726E+03  0.26896261064E+03  0.12509000000E+03 0.  0.
         25    1    4    4    0    0  0.19754115695E+01 -0.28141729938E+02 -0.85235456899E+02  0.15397548645E+03  0.12509000000E+03 0.  0.
<mgrwt>
<rscale>  2 0.44510653E+03</rscale>
<asrwt>0</asrwt>
<pdfrwt beam="1">  1       21 0.13926255E-01 0.44510653E+03</pdfrwt>
<pdfrwt beam="2">  1       21 0.76915838E-01 0.44510653E+03</pdfrwt>
<totfact> 0.62328774E+04</totfact>
</mgrwt>
</event>
<event>
 7    0  0.4737014E-002  0.4560981E+03  0.7546771E-02  0.1025919E+00
         21   -1    0    0  502  501  0.00000000000E+00  0.00000000000E+00  0.51701645654E+03  0.51701645654E+03  0.00000000000E+00 0.  1.
         21   -1    0    0  501  502 -0.00000000000E+00 -0.00000000000E+00 -0.10058936905E+03  0.10058936905E+03  0.00000000000E+00 0.  1.
      99926    2    1    2    0    0  0.00000000000E+00 -0.14210854715E-13  0.41642708750E+03  0.61760582559E+03  0.45609805590E+03 0.  0.
      99925    2    3    3    0    0 -0.18439775119E+02  0.89385541078E+02  0.16917687156E+03  0.32586968172E+03  0.26313577357E+03 0.  0.
         25    1    3    3    0    0  0.18439775119E+02 -0.89385541078E+02  0.24725021594E+03  0.29173614387E+03  0.12509000000E+03 0.  0.
         25    1    4    4    0    0 -0.49293920699E+02  0.38537210904E+02  0.79867797803E+02  0.16106328094E+03  0.12509000000E+03 0.  0.
         25    1    4    4    0    0  0.30854145580E+02  0.50848330174E+02  0.89309073760E+02  0.16480640078E+03  0.12509000000E+03 0.  0.
<mgrwt>
<rscale>  2 0.45609806E+03</rscale>
<asrwt>0</asrwt>
<pdfrwt beam="1">  1       21 0.76031831E-01 0.45609806E+03</pdfrwt>
<pdfrwt beam="2">  1       21 0.14792555E-01 0.45609806E+03</pdfrwt>
<totfact> 0.57110615E+04</totfact>
</mgrwt>
</event>
<event>
 7    0  0.4737014E-002  0.4544634E+03  0.7546771E-02  0.1026399E+00
         21   -1    0    0  502  501  0.00000000000E+00  0.00000000000E+00  0.18206609244E+03  0.18206609244E+03  0.00000000000E+00 0.  1.
         21   -1    0    0  501  502 -0.00000000000E+00 -0.00000000000E+00 -0.28360161795E+03  0.28360161795E+03  0.00000000000E+00 0.  1.
      99926    2    1    2    0    0  0.00000000000E+00  0.00000000000E+00 -0.10153552551E+03  0.46566771039E+03  0.45446336877E+03 0.  0.
      99925    2    3    3    0    0  0.40725181647E+02  0.82660717285E+02 -0.13038175034E+03  0.30764572651E+03  0.26297368236E+03 0.  0.
         25    1    4    4    0    0 -0.18893983753E+02  0.39447463594E+02 -0.49355604952E+02  0.14140922476E+03  0.12509000000E+03 0.  0.
         25    1    3    3    0    0 -0.40725181647E+02 -0.82660717285E+02  0.28846224834E+02  0.15802198388E+03  0.12509000000E+03 0.  0.
         25    1    4    4    0    0  0.59619165399E+02  0.43213253691E+02 -0.81026145388E+02  0.16623650175E+03  0.12509000000E+03 0.  0.
<mgrwt>
<rscale>  2 0.45446337E+03</rscale>
<asrwt>0</asrwt>
<pdfrwt beam="1">  1       21 0.26774426E-01 0.45446337E+03</pdfrwt>
<pdfrwt beam="2">  1       21 0.41706120E-01 0.45446337E+03</pdfrwt>
<totfact> 0.68048891E+04</totfact>
</mgrwt>
</event>
<event>
 7    0  0.4737014E-002  0.4477838E+03  0.7546771E-02  0.1028385E+00
         21   -1    0    0  502  501  0.00000000000E+00  0.00000000000E+00  0.10087794094E+04  0.10087794094E+04  0.00000000000E+00 0.  1.
         21   -1    0    0  501  502 -0.00000000000E+00 -0.00000000000E+00 -0.49691312265E+02  0.49691312265E+02  0.00000000000E+00 0.  1.
      99926    2    1    2    0    0  0.00000000000E+00  0.00000000000E+00  0.95908809718E+03  0.10584707217E+04  0.44778375425E+03 0.  0.
      99925    2    3    3    0    0  0.52976268372E+02 -0.66503777770E+02  0.45526420314E+03  0.53243340196E+03  0.26266060875E+03 0.  0.
         25    1    4    4    0    0  0.35202199341E+02  0.15676865866E+01  0.18012430068E+03  0.22211241360E+03  0.12509000000E+03 0.  0.
         25    1    3    3    0    0 -0.52976268372E+02  0.66503777770E+02  0.50382389403E+03  0.52603731975E+03  0.12509000000E+03 0.  0.
         25    1    4    4    0    0  0.17774069031E+02 -0.68071464356E+02  0.27513990246E+03  0.31032098836E+03  0.12509000000E+03 0.  0.
<mgrwt>
<rscale>  2 0.44778375E+03</rscale>
<asrwt>0</asrwt>
<pdfrwt beam="1">  1       21 0.14834990E+00 0.44778375E+03</pdfrwt>
<pdfrwt beam="2">  1       21 0.73075465E-02 0.44778375E+03</pdfrwt>
<totfact> 0.39125611E+04</totfact>
</mgrwt>
</event>
<event>
 7    0  0.4737014E-002  0.4563862E+03  0.7546771E-02  0.1025835E+00
         21   -1    0    0  502  501  0.00000000000E+00  0.00000000000E+00  0.56398941932E+03  0.56398941932E+03  0.00000000000E+00 0. -1.
         21   -1    0    0  501  502 -0.00000000000E+00 -0.00000000000E+00 -0.92328120001E+02  0.92328120001E+02  0.00000000000E+00 0. -1.
      99926    2    1    2    0    0  0.71054273576E-14  0.00000000000E+00  0.47166129932E+03  0.65631753932E+03  0.45638616450E+03 0.  0.
      99925    2    3    3    0    0  0.41101927035E+02 -0.32918920105E+02  0.44251660856E+03  0.51750131258E+03  0.26308484557E+03 0.  0.
         25    1    3    3    0    0 -0.41101927035E+02  0.32918920105E+02  0.29144690767E+02  0.13881622674E+03  0.12509000000E+03 0.  0.
         25    1    4    4    0    0  0.59133036288E+02 -0.71481765927E+01  0.24873146101E+03  0.28471505090E+03  0.12509000000E+03 0.  0.
         25    1    4    4    0    0 -0.18031109253E+02 -0.25770743512E+02  0.19378514754E+03  0.23278626169E+03  0.12509000000E+03 0.  0.
<mgrwt>
<rscale>  2 0.45638616E+03</rscale>
<asrwt>0</asrwt>
<pdfrwt beam="1">  1       21 0.82939619E-01 0.45638616E+03</pdfrwt>
<pdfrwt beam="2">  1       21 0.13577665E-01 0.45638616E+03</pdfrwt>
<totfact> 0.54738080E+04</totfact>
</mgrwt>
</event>
<event>
 7    0  0.4737014E-002  0.4615501E+03  0.7546771E-02  0.1024333E+00
         21   -1    0    0  502  501  0.00000000000E+00  0.00000000000E+00  0.78110702777E+02  0.78110702777E+02  0.00000000000E+00 0.  1.
         21   -1    0    0  501  502 -0.00000000000E+00 -0.00000000000E+00 -0.68181590362E+03  0.68181590362E+03  0.00000000000E+00 0.  1.
      99926    2    1    2    0    0 -0.71054273576E-14  0.00000000000E+00 -0.60370520084E+03  0.75992660639E+03  0.46155008134E+03 0.  0.
      99925    2    3    3    0    0 -0.62477456433E+02  0.39251105683E+02 -0.22363290766E+03  0.35305250055E+03  0.26304050810E+03 0.  0.
         25    1    4    4    0    0  0.71425085859E+01  0.21310658541E+02 -0.84520536422E+02  0.15263154580E+03  0.12509000000E+03 0.  0.
         25    1    4    4    0    0 -0.69619965019E+02  0.17940447142E+02 -0.13911237123E+03  0.20042095475E+03  0.12509000000E+03 0.  0.
         25    1    3    3    0    0  0.62477456433E+02 -0.39251105683E+02 -0.38007229318E+03  0.40687410584E+03  0.12509000000E+03 0.  0.
<mgrwt>
<rscale>  2 0.46155008E+03</rscale>
<asrwt>0</asrwt>
<pdfrwt beam="1">  1       21 0.11486868E-01 0.46155008E+03</pdfrwt>
<pdfrwt beam="2">  1       21 0.10026705E+00 0.46155008E+03</pdfrwt>
<totfact> 0.47284735E+04</totfact>
</mgrwt>
</event>
<event>
 7    0  0.4737014E-002  0.4630215E+03  0.7546771E-02  0.1023909E+00
         21   -1    0    0  502  501  0.00000000000E+00  0.00000000000E+00  0.13443085292E+04  0.13443085292E+04  0.00000000000E+00 0. -1.
         21   -1    0    0  501  502 -0.00000000000E+00 -0.00000000000E+00 -0.39869739798E+02  0.39869739798E+02  0.00000000000E+00 0. -1.
      99926    2    1    2    0    0  0.14210854715E-13  0.00000000000E+00  0.13044387894E+04  0.13841782690E+04  0.46302151686E+03 0.  0.
      99925    2    3    3    0    0  0.99161049398E+02 -0.47137381353E+02  0.66622591665E+03  0.72461930614E+03  0.26298539955E+03 0.  0.
         25    1    4    4    0    0  0.30711399978E+02 -0.44275041069E+02  0.40067755684E+03  0.42319437852E+03  0.12509000000E+03 0.  0.
         25    1    3    3    0    0 -0.99161049398E+02  0.47137381353E+02  0.63821287278E+03  0.65955896288E+03  0.12509000000E+03 0.  0.
         25    1    4    4    0    0  0.68449649420E+02 -0.28623402839E+01  0.26554835980E+03  0.30142492762E+03  0.12509000000E+03 0.  0.
<mgrwt>
<rscale>  2 0.46302152E+03</rscale>
<asrwt>0</asrwt>
<pdfrwt beam="1">  1       21 0.19769240E+00 0.46302152E+03</pdfrwt>
<pdfrwt beam="2">  1       21 0.58631979E-02 0.46302152E+03</pdfrwt>
<totfact> 0.25151781E+04</totfact>
</mgrwt>
</event>
<event>
 7    0  0.4737014E-002  0.4532101E+03  0.7546771E-02  0.1026769E+00
         21   -1    0    0  502  501  0.00000000000E+00  0.00000000000E+00  0.12794930918E+03  0.12794930918E+03  0.00000000000E+00 0. -1.
         21   -1    0    0  501  502 -0.00000000000E+00 -0.00000000000E+00 -0.40132954062E+03  0.40132954062E+03  0.00000000000E+00 0. -1.
      99926    2    1    2    0    0  0.00000000000E+00  0.00000000000E+00 -0.27338023144E+03  0.52927884980E+03  0.45321005053E+03 0.  0.
      99925    2    3    3    0    0  0.35645508267E+02 -0.31584778073E+02 -0.54552272687E+02  0.27276104516E+03  0.26297231192E+03 0.  0.
         25    1    3    3    0    0 -0.35645508267E+02  0.31584778073E+02 -0.21882795875E+03  0.25651780464E+03  0.12509000000E+03 0.  0.
         25    1    4    4    0    0 -0.16768997230E+02 -0.28365307458E+02 -0.44203524710E+02  0.13670131540E+03  0.12509000000E+03 0.  0.
         25    1    4    4    0    0  0.52414505497E+02 -0.32194706148E+01 -0.10348747977E+02  0.13605972976E+03  0.12509000000E+03 0.  0.
<mgrwt>
<rscale>  2 0.45321005E+03</rscale>
<asrwt>0</asrwt>
<pdfrwt beam="1">  1       21 0.18816075E-01 0.45321005E+03</pdfrwt>
<pdfrwt beam="2">  1       21 0.59019050E-01 0.45321005E+03</pdfrwt>
<totfact> 0.64160796E+04</totfact>
</mgrwt>
</event>
<event>
 7    0  0.4737014E-002  0.4525973E+03  0.7546771E-02  0.1026950E+00
         21   -1    0    0  502  501  0.00000000000E+00  0.00000000000E+00  0.73217029142E+03  0.73217029142E+03  0.00000000000E+00 0.  1.
         21   -1    0    0  501  502 -0.00000000000E+00 -0.00000000000E+00 -0.69944219134E+02  0.69944219134E+02  0.00000000000E+00 0.  1.
      99926    2    1    2    0    0 -0.14210854715E-13  0.00000000000E+00  0.66222607228E+03  0.80211451055E+03  0.45259730139E+03 0.  0.
      99925    2    3    3    0    0 -0.88302983846E+02  0.20187187378E+02  0.53086516425E+03  0.59936309687E+03  0.26308432068E+03 0.  0.
         25    1    4    4    0    0 -0.14004300314E+02  0.31633063495E+02  0.29029281336E+03  0.31798458567E+03  0.12509000000E+03 0.  0.
         25    1    3    3    0    0  0.88302983846E+02 -0.20187187378E+02  0.13136090803E+03  0.20275141368E+03  0.12509000000E+03 0.  0.
         25    1    4    4    0    0 -0.74298683532E+02 -0.11445876118E+02  0.24057235089E+03  0.28137851120E+03  0.12509000000E+03 0.  0.
<mgrwt>
<rscale>  2 0.45259730E+03</rscale>
<asrwt>0</asrwt>
<pdfrwt beam="1">  1       21 0.10767210E+00 0.45259730E+03</pdfrwt>
<pdfrwt beam="2">  1       21 0.10285915E-01 0.45259730E+03</pdfrwt>
<totfact> 0.48572104E+04</totfact>
</mgrwt>
</event>
<event>
 7    0  0.4737014E-002  0.4558184E+03  0.7546771E-02  0.1026001E+00
         21   -1    0    0  502  501  0.00000000000E+00  0.00000000000E+00  0.14540055992E+03  0.14540055992E+03  0.00000000000E+00 0.  1.
         21   -1    0    0  501  502 -0.00000000000E+00 -0.00000000000E+00 -0.35723791799E+03  0.35723791799E+03  0.00000000000E+00 0.  1.
      99926    2    1    2    0    0  0.00000000000E+00  0.00000000000E+00 -0.21183735807E+03  0.50263847791E+03  0.45581835549E+03 0.  0.
      99925    2    3    3    0    0  0.10515806308E+03  0.26590306065E+02 -0.94044074492E+02  0.29944392000E+03  0.26278719654E+03 0.  0.
         25    1    4    4    0    0  0.54210847254E+02  0.26451160405E+02 -0.87659343901E+02  0.16422590697E+03  0.12509000000E+03 0.  0.
         25    1    3    3    0    0 -0.10515806308E+03 -0.26590306065E+02 -0.11779328358E+03  0.20319455791E+03  0.12509000000E+03 0.  0.
         25    1    4    4    0    0  0.50947215830E+02  0.13914566042E+00 -0.63847305908E+01  0.13521801303E+03  0.12509000000E+03 0.  0.
<mgrwt>
<rscale>  2 0.45581836E+03</rscale>
<asrwt>0</asrwt>
<pdfrwt beam="1">  1       21 0.21382435E-01 0.45581836E+03</pdfrwt>
<pdfrwt beam="2">  1       21 0.52534987E-01 0.45581836E+03</pdfrwt>
<totfact> 0.64664619E+04</totfact>
</mgrwt>
</event>
<event>
 7    0  0.4737014E-002  0.4576421E+03  0.7546771E-02  0.1025467E+00
         21   -1    0    0  502  501  0.00000000000E+00  0.00000000000E+00  0.11930637268E+03  0.11930637268E+03  0.00000000000E+00 0.  1.
         21   -1    0    0  501  502 -0.00000000000E+00 -0.00000000000E+00 -0.43886231599E+03  0.43886231599E+03  0.00000000000E+00 0.  1.
      99926    2    1    2    0    0 -0.14210854715E-13  0.00000000000E+00 -0.31955594331E+03  0.55816868867E+03  0.45764209171E+03 0.  0.
      99925    2    3    3    0    0  0.10063519119E+03  0.24368509898E+02 -0.26342232427E+03  0.38635554230E+03  0.26297912115E+03 0.  0.
         25    1    4    4    0    0  0.86350314648E+02  0.33570266083E+02 -0.15916725570E+03  0.22263212480E+03  0.12509000000E+03 0.  0.
         25    1    3    3    0    0 -0.10063519119E+03 -0.24368509898E+02 -0.56133619036E+02  0.17181314637E+03  0.12509000000E+03 0.  0.
         25    1    4    4    0    0  0.14284876540E+02 -0.92017561846E+01 -0.10425506857E+03  0.16372341750E+03  0.12509000000E+03 0.  0.
<mgrwt>
<rscale>  2 0.45764209E+03</rscale>
<asrwt>0</asrwt>
<pdfrwt beam="1">  1       21 0.17545055E-01 0.45764209E+03</pdfrwt>
<pdfrwt beam="2">  1       21 0.64538575E-01 0.45764209E+03</pdfrwt>
<totfact> 0.60064710E+04</totfact>
</mgrwt>
</event>
<event>
 7    0  0.4737014E-002  0.4533389E+03  0.7546771E-02  0.1026731E+00
         21   -1    0    0  502  501  0.00000000000E+00  0.00000000000E+00  0.51735800836E+03  0.51735800836E+03  0.00000000000E+00 0.  1.
         21   -1    0    0  501  502 -0.00000000000E+00 -0.00000000000E+00 -0.99310428234E+02  0.99310428234E+02  0.00000000000E+00 0.  1.
      99926    2    1    2    0    0  0.00000000000E+00  0.00000000000E+00  0.41804758012E+03  0.61666843659E+03  0.45333892557E+03 0.  0.
      99925    2    3    3    0    0 -0.17090023174E+02 -0.10097478536E+03  0.20309461158E+03  0.34770698404E+03  0.26299191875E+03 0.  0.
         25    1    4    4    0    0 -0.27525214768E+02 -0.76848544243E+02  0.76554485633E+02  0.16784347938E+03  0.12509000000E+03 0.  0.
         25    1    4    4    0    0  0.10435191594E+02 -0.24126241121E+02  0.12654012595E+03  0.17986350466E+03  0.12509000000E+03 0.  0.
         25    1    3    3    0    0  0.17090023174E+02  0.10097478536E+03  0.21495296854E+03  0.26896145255E+03  0.12509000000E+03 0.  0.
<mgrwt>
<rscale>  2 0.45333893E+03</rscale>
<asrwt>0</asrwt>
<pdfrwt beam="1">  1       21 0.76082059E-01 0.45333893E+03</pdfrwt>
<pdfrwt beam="2">  1       21 0.14604475E-01 0.45333893E+03</pdfrwt>
<totfact> 0.58426509E+04</totfact>
</mgrwt>
</event>
<event>
 7    0  0.4737014E-002  0.4566731E+03  0.7546771E-02  0.1025751E+00
         21   -1    0    0  502  501  0.00000000000E+00  0.00000000000E+00  0.12460230782E+04  0.12460230782E+04  0.00000000000E+00 0. -1.
         21   -1    0    0  501  502 -0.00000000000E+00 -0.00000000000E+00 -0.41843194212E+02  0.41843194212E+02  0.00000000000E+00 0. -1.
      99926    2    1    2    0    0  0.00000000000E+00  0.00000000000E+00  0.12041798840E+04  0.12878662724E+04  0.45667312447E+03 0.  0.
      99925    2    3    3    0    0  0.19933502919E+02  0.10758862526E+03  0.65878238192E+03  0.71770962711E+03  0.26294528953E+03 0.  0.
         25    1    3    3    0    0 -0.19933502919E+02 -0.10758862526E+03  0.54539750208E+03  0.57015664532E+03  0.12509000000E+03 0.  0.
         25    1    4    4    0    0 -0.33677225625E+01  0.25529746314E+02  0.37361781510E+03  0.39484286667E+03  0.12509000000E+03 0.  0.
         25    1    4    4    0    0  0.23301225481E+02  0.82058878948E+02  0.28516456682E+03  0.32286676043E+03  0.12509000000E+03 0.  0.
<mgrwt>
<rscale>  2 0.45667312E+03</rscale>
<asrwt>0</asrwt>
<pdfrwt beam="1">  1       21 0.18323866E+00 0.45667312E+03</pdfrwt>
<pdfrwt beam="2">  1       21 0.61534117E-02 0.45667312E+03</pdfrwt>
<totfact> 0.29088733E+04</totfact>
</mgrwt>
</event>
<event>
 7    0  0.4737014E-002  0.4286524E+03  0.7546771E-02  0.1034287E+00
         21   -1    0    0  502  501  0.00000000000E+00  0.00000000000E+00  0.14585085240E+03  0.14585085240E+03  0.00000000000E+00 0.  1.
         21   -1    0    0  501  502 -0.00000000000E+00 -0.00000000000E+00 -0.31494996869E+03  0.31494996869E+03  0.00000000000E+00 0.  1.
      99926    2    1    2    0    0  0.00000000000E+00 -0.35527136788E-14 -0.16909911629E+03  0.46080082109E+03  0.42865240648E+03 0.  0.
      99925    2    3    3    0    0  0.81761330858E+02  0.20654397654E+02 -0.90000349554E+02  0.29046103605E+03  0.26297534329E+03 0.  0.
         25    1    4    4    0    0  0.61013654429E+02  0.42656459817E+02 -0.64728253683E+02  0.15930943009E+03  0.12509000000E+03 0.  0.
         25    1    4    4    0    0  0.20747676429E+02 -0.22002062162E+02 -0.25272095870E+02  0.13115160596E+03  0.12509000000E+03 0.  0.
         25    1    3    3    0    0 -0.81761330858E+02 -0.20654397654E+02 -0.79098766740E+02  0.17033978504E+03  0.12509000000E+03 0.  0.
<mgrwt>
<rscale>  2 0.42865241E+03</rscale>
<asrwt>0</asrwt>
<pdfrwt beam="1">  1       21 0.21448655E-01 0.42865241E+03</pdfrwt>
<pdfrwt beam="2">  1       21 0.46316172E-01 0.42865241E+03</pdfrwt>
<totfact> 0.84450244E+04</totfact>
</mgrwt>
</event>
<event>
 7    0  0.4737014E-002  0.4528960E+03  0.7546771E-02  0.1026862E+00
         21   -1    0    0  502  501  0.00000000000E+00  0.00000000000E+00  0.12062620664E+03  0.12062620664E+03  0.00000000000E+00 0. -1.
         21   -1    0    0  501  502 -0.00000000000E+00 -0.00000000000E+00 -0.42510410153E+03  0.42510410153E+03  0.00000000000E+00 0. -1.
      99926    2    1    2    0    0  0.00000000000E+00  0.00000000000E+00 -0.30447789489E+03  0.54573030817E+03  0.45289599334E+03 0.  0.
      99925    2    3    3    0    0 -0.91392150114E+02  0.56035268369E+02 -0.15651592246E+03  0.32429695524E+03  0.26301863963E+03 0.  0.
         25    1    4    4    0    0 -0.78293523568E+02  0.43599683550E+02 -0.59551666008E+02  0.16499914322E+03  0.12509000000E+03 0.  0.
         25    1    3    3    0    0  0.91392150114E+02 -0.56035268369E+02 -0.14796197243E+03  0.22143335293E+03  0.12509000000E+03 0.  0.
         25    1    4    4    0    0 -0.13098626546E+02  0.12435584819E+02 -0.96964256447E+02  0.15929781202E+03  0.12509000000E+03 0.  0.
<mgrwt>
<rscale>  2 0.45289599E+03</rscale>
<asrwt>0</asrwt>
<pdfrwt beam="1">  1       21 0.17739148E-01 0.45289599E+03</pdfrwt>
<pdfrwt beam="2">  1       21 0.62515310E-01 0.45289599E+03</pdfrwt>
<totfact> 0.63195087E+04</totfact>
</mgrwt>
</event>
<event>
 7    0  0.4737014E-002  0.4563500E+03  0.7546771E-02  0.1025845E+00
         21   -1    0    0  502  501  0.00000000000E+00  0.00000000000E+00  0.35668236358E+03  0.35668236358E+03  0.00000000000E+00 0. -1.
         21   -1    0    0  501  502 -0.00000000000E+00 -0.00000000000E+00 -0.14596695804E+03  0.14596695804E+03  0.00000000000E+00 0. -1.
      99926    2    1    2    0    0 -0.71054273576E-14 -0.14210854715E-13  0.21071540554E+03  0.50264932162E+03  0.45635003933E+03 0.  0.
      99925    2    3    3    0    0  0.41756091789E+02  0.71533929271E+02  0.21979378361E+03  0.35234762740E+03  0.26263828544E+03 0.  0.
         25    1    4    4    0    0  0.47434819351E+02  0.24991602462E+02  0.14654902285E+03  0.19999691617E+03  0.12509000000E+03 0.  0.
         25    1    4    4    0    0 -0.56787275615E+01  0.46542326808E+02  0.73244760758E+02  0.15235071122E+03  0.12509000000E+03 0.  0.
         25    1    3    3    0    0 -0.41756091789E+02 -0.71533929271E+02 -0.90783780724E+01  0.15030169422E+03  0.12509000000E+03 0.  0.
<mgrwt>
<rscale>  2 0.45635004E+03</rscale>
<asrwt>0</asrwt>
<pdfrwt beam="1">  1       21 0.52453289E-01 0.45635004E+03</pdfrwt>
<pdfrwt beam="2">  1       21 0.21465729E-01 0.45635004E+03</pdfrwt>
<totfact> 0.64392119E+04</totfact>
</mgrwt>
</event>
<event>
 7    0  0.4737014E-002  0.4203306E+03  0.7546771E-02  0.1036959E+00
         21   -1    0    0  502  501  0.00000000000E+00  0.00000000000E+00  0.14224326174E+04  0.14224326174E+04  0.00000000000E+00 0.  1.
         21   -1    0    0  501  502 -0.00000000000E+00 -0.00000000000E+00 -0.31052051545E+02  0.31052051545E+02  0.00000000000E+00 0.  1.
      99926    2    1    2    0    0  0.00000000000E+00  0.00000000000E+00  0.13913805659E+04  0.14534846690E+04  0.42033058873E+03 0.  0.
      99925    2    3    3    0    0 -0.32957654557E+02 -0.41654363885E+02  0.10956723350E+04  0.11280431859E+04  0.26298720585E+03 0.  0.
         25    1    4    4    0    0  0.28381041701E+01 -0.38385343735E+02  0.67966696420E+03  0.69215329211E+03  0.12509000000E+03 0.  0.
         25    1    3    3    0    0  0.32957654557E+02  0.41654363885E+02  0.29570823088E+03  0.32544148312E+03  0.12509000000E+03 0.  0.
         25    1    4    4    0    0 -0.35795758727E+02 -0.32690201499E+01  0.41600537082E+03  0.43588989377E+03  0.12509000000E+03 0.  0.
<mgrwt>
<rscale>  2 0.42033059E+03</rscale>
<asrwt>0</asrwt>
<pdfrwt beam="1">  1       21 0.20918122E+00 0.42033059E+03</pdfrwt>
<pdfrwt beam="2">  1       21 0.45664791E-02 0.42033059E+03</pdfrwt>
<totfact> 0.32966984E+04</totfact>
</mgrwt>
</event>
<event>
 7    0  0.4737014E-002  0.4552157E+03  0.7546771E-02  0.1026178E+00
         21   -1    0    0  502  501  0.00000000000E+00  0.00000000000E+00  0.40053679656E+03  0.40053679656E+03  0.00000000000E+00 0.  1.
         21   -1    0    0  501  502 -0.00000000000E+00 -0.00000000000E+00 -0.12933974462E+03  0.12933974462E+03  0.00000000000E+00 0.  1.
      99926    2    1    2    0    0  0.00000000000E+00  0.14210854715E-13  0.27119705193E+03  0.52987654118E+03  0.45521567187E+03 0.  0.
      99925    2    3    3    0    0 -0.94724284824E+01 -0.84947586827E+02  0.25742864240E+03  0.37774864561E+03  0.26290438172E+03 0.  0.
         25    1    4    4    0    0 -0.24325124029E+02 -0.73317376353E+02  0.16549740198E+03  0.22136857838E+03  0.12509000000E+03 0.  0.
         25    1    4    4    0    0  0.14852695547E+02 -0.11630210474E+02  0.91931240418E+02  0.15638006723E+03  0.12509000000E+03 0.  0.
         25    1    3    3    0    0  0.94724284824E+01  0.84947586827E+02  0.13768409537E+02  0.15212789557E+03  0.12509000000E+03 0.  0.
<mgrwt>
<rscale>  2 0.45521567E+03</rscale>
<asrwt>0</asrwt>
<pdfrwt beam="1">  1       21 0.58902470E-01 0.45521567E+03</pdfrwt>
<pdfrwt beam="2">  1       21 0.19020551E-01 0.45521567E+03</pdfrwt>
<totfact> 0.63106945E+04</totfact>
</mgrwt>
</event>
<event>
 7    0  0.4737014E-002  0.4562005E+03  0.7546771E-02  0.1025889E+00
         21   -1    0    0  502  501  0.00000000000E+00  0.00000000000E+00  0.21246036153E+02  0.21246036153E+02  0.00000000000E+00 0. -1.
         21   -1    0    0  501  502 -0.00000000000E+00 -0.00000000000E+00 -0.24489148374E+04  0.24489148374E+04  0.00000000000E+00 0. -1.
      99926    2    1    2    0    0  0.00000000000E+00 -0.35527136788E-14 -0.24276688012E+04  0.24701608735E+04  0.45620053998E+03 0.  0.
      99925    2    3    3    0    0 -0.61735147850E+02 -0.16928677544E+02 -0.10136371334E+04  0.10491644364E+04  0.26303605801E+03 0.  0.
         25    1    4    4    0    0 -0.60015391922E+02  0.77657253955E+01 -0.43552612279E+03  0.45715715623E+03  0.12509000000E+03 0.  0.
         25    1    3    3    0    0  0.61735147850E+02  0.16928677544E+02 -0.14140316678E+04  0.14209964371E+04  0.12509000000E+03 0.  0.
         25    1    4    4    0    0 -0.17197559276E+01 -0.24694402940E+02 -0.57811101064E+03  0.59200728021E+03  0.12509000000E+03 0.  0.
<mgrwt>
<rscale>  2 0.45620054E+03</rscale>
<asrwt>0</asrwt>
<pdfrwt beam="1">  1       21 0.31244167E-02 0.45620054E+03</pdfrwt>
<pdfrwt beam="2">  1       21 0.36013457E+00 0.45620054E+03</pdfrwt>
<totfact> 0.73729145E+03</totfact>
</mgrwt>
</event>
<event>
 7    0  0.4737014E-002  0.4557375E+03  0.7546771E-02  0.1026025E+00
         21   -1    0    0  502  501  0.00000000000E+00  0.00000000000E+00  0.23426813710E+03  0.23426813710E+03  0.00000000000E+00 0.  1.
         21   -1    0    0  501  502 -0.00000000000E+00 -0.00000000000E+00 -0.22164416738E+03  0.22164416738E+03  0.00000000000E+00 0.  1.
      99926    2    1    2    0    0  0.00000000000E+00 -0.88817841970E-15  0.12623969720E+02  0.45591230449E+03  0.45573749546E+03 0.  0.
      99925    2    3    3    0    0  0.10965203791E+03  0.65168618072E+01 -0.22086462615E+02  0.28585830977E+03  0.26298502339E+03 0.  0.
         25    1    4    4    0    0  0.12784889207E+02 -0.68077189032E+01 -0.31861425568E+01  0.12596609875E+03  0.12509000000E+03 0.  0.
         25    1    4    4    0    0  0.96867148703E+02  0.13324580710E+02 -0.18900320058E+02  0.15989221103E+03  0.12509000000E+03 0.  0.
         25    1    3    3    0    0 -0.10965203791E+03 -0.65168618072E+01  0.34710432335E+02  0.17005399472E+03  0.12509000000E+03 0.  0.
<mgrwt>
<rscale>  2 0.45573750E+03</rscale>
<asrwt>0</asrwt>
<pdfrwt beam="1">  1       21 0.34451197E-01 0.45573750E+03</pdfrwt>
<pdfrwt beam="2">  1       21 0.32594730E-01 0.45573750E+03</pdfrwt>
<totfact> 0.68077538E+04</totfact>
</mgrwt>
</event>
<event>
 7    0  0.4737014E-002  0.4527592E+03  0.7546771E-02  0.1026902E+00
         21   -1    0    0  502  501  0.00000000000E+00  0.00000000000E+00  0.26786141818E+03  0.26786141818E+03  0.00000000000E+00 0. -1.
         21   -1    0    0  501  502 -0.00000000000E+00 -0.00000000000E+00 -0.19132179318E+03  0.19132179318E+03  0.00000000000E+00 0. -1.
      99926    2    1    2    0    0 -0.35527136788E-14  0.00000000000E+00  0.76539624994E+02  0.45918321136E+03  0.45275921570E+03 0.  0.
      99925    2    3    3    0    0 -0.29942779056E+02  0.10687921587E+03  0.51040094662E+02  0.29001622005E+03  0.26302961777E+03 0.  0.
         25    1    3    3    0    0  0.29942779056E+02 -0.10687921587E+03  0.25499530332E+02  0.16916699132E+03  0.12509000000E+03 0.  0.
         25    1    4    4    0    0  0.74117681345E+01  0.46803968835E+02 -0.94460678635E+01  0.13409803169E+03  0.12509000000E+03 0.  0.
         25    1    4    4    0    0 -0.37354547191E+02  0.60075247040E+02  0.60486162526E+02  0.15591818835E+03  0.12509000000E+03 0.  0.
<mgrwt>
<rscale>  2 0.45275922E+03</rscale>
<asrwt>0</asrwt>
<pdfrwt beam="1">  1       21 0.39391385E-01 0.45275922E+03</pdfrwt>
<pdfrwt beam="2">  1       21 0.28135558E-01 0.45275922E+03</pdfrwt>
<totfact> 0.69473172E+04</totfact>
</mgrwt>
</event>
<event>
 7    0  0.4737014E-002  0.4537819E+03  0.7546771E-02  0.1026600E+00
         21   -1    0    0  502  501  0.00000000000E+00  0.00000000000E+00  0.60796443118E+03  0.60796443118E+03  0.00000000000E+00 0. -1.
         21   -1    0    0  501  502 -0.00000000000E+00 -0.00000000000E+00 -0.84675178760E+02  0.84675178760E+02  0.00000000000E+00 0. -1.
      99926    2    1    2    0    0  0.00000000000E+00  0.17763568394E-14  0.52328925242E+03  0.69263960994E+03  0.45378187222E+03 0.  0.
      99925    2    3    3    0    0 -0.10977718879E+03  0.15435512338E+02  0.35119146012E+03  0.45273453614E+03  0.26333217109E+03 0.  0.
         25    1    4    4    0    0 -0.82228000592E+02 -0.23766803458E+02  0.19468507833E+03  0.24673081051E+03  0.12509000000E+03 0.  0.
         25    1    4    4    0    0 -0.27549188200E+02  0.39202315796E+02  0.15650638179E+03  0.20600372563E+03  0.12509000000E+03 0.  0.
         25    1    3    3    0    0  0.10977718879E+03 -0.15435512338E+02  0.17209779229E+03  0.23990507380E+03  0.12509000000E+03 0.  0.
<mgrwt>
<rscale>  2 0.45378187E+03</rscale>
<asrwt>0</asrwt>
<pdfrwt beam="1">  1       21 0.89406532E-01 0.45378187E+03</pdfrwt>
<pdfrwt beam="2">  1       21 0.12452232E-01 0.45378187E+03</pdfrwt>
<totfact> 0.53818640E+04</totfact>
</mgrwt>
</event>
<event>
 7    0  0.4737014E-002  0.4543905E+03  0.7546771E-02  0.1026421E+00
         21   -1    0    0  502  501  0.00000000000E+00  0.00000000000E+00  0.65273914488E+03  0.65273914488E+03  0.00000000000E+00 0.  1.
         21   -1    0    0  501  502 -0.00000000000E+00 -0.00000000000E+00 -0.79078568912E+02  0.79078568912E+02  0.00000000000E+00 0.  1.
      99926    2    1    2    0    0 -0.71054273576E-14  0.00000000000E+00  0.57366057597E+03  0.73181771379E+03  0.45439048164E+03 0.  0.
      99925    2    3    3    0    0 -0.54487855923E+02 -0.88322386733E+02  0.43135604585E+03  0.51579026685E+03  0.26306233224E+03 0.  0.
         25    1    4    4    0    0 -0.20474404528E+02 -0.49363939773E+02  0.28866973696E+03  0.31911396856E+03  0.12509000000E+03 0.  0.
         25    1    4    4    0    0 -0.34013451396E+02 -0.38958446960E+02  0.14268630888E+03  0.19667629829E+03  0.12509000000E+03 0.  0.
         25    1    3    3    0    0  0.54487855923E+02  0.88322386733E+02  0.14230453012E+03  0.21602744695E+03  0.12509000000E+03 0.  0.
<mgrwt>
<rscale>  2 0.45439048E+03</rscale>
<asrwt>0</asrwt>
<pdfrwt beam="1">  1       21 0.95991048E-01 0.45439048E+03</pdfrwt>
<pdfrwt beam="2">  1       21 0.11629202E-01 0.45439048E+03</pdfrwt>
<totfact> 0.51455475E+04</totfact>
</mgrwt>
</event>
<event>
 7    0  0.4737014E-002  0.4604333E+03  0.7546771E-02  0.1024656E+00
         21   -1    0    0  502  501  0.00000000000E+00  0.00000000000E+00  0.12120019502E+03  0.12120019502E+03  0.00000000000E+00 0. -1.
         21   -1    0    0  501  502 -0.00000000000E+00 -0.00000000000E+00 -0.43729058223E+03  0.43729058223E+03  0.00000000000E+00 0. -1.
      99926    2    1    2    0    0  0.00000000000E+00  0.00000000000E+00 -0.31609038721E+03  0.55849077725E+03  0.46043329091E+03 0.  0.
      99925    2    3    3    0    0 -0.92519032659E+02 -0.41211905715E+02 -0.12428640077E+03  0.30810213954E+03  0.26310003116E+03 0.  0.
         25    1    4    4    0    0 -0.45401855831E+02 -0.59088801179E+01 -0.19499088342E+02  0.13462527966E+03  0.12509000000E+03 0.  0.
         25    1    4    4    0    0 -0.47117176828E+02 -0.35303025597E+02 -0.10478731243E+03  0.17347685988E+03  0.12509000000E+03 0.  0.
         25    1    3    3    0    0  0.92519032659E+02  0.41211905715E+02 -0.19180398644E+03  0.25038863771E+03  0.12509000000E+03 0.  0.
<mgrwt>
<rscale>  2 0.46043329E+03</rscale>
<asrwt>0</asrwt>
<pdfrwt beam="1">  1       21 0.17823558E-01 0.46043329E+03</pdfrwt>
<pdfrwt beam="2">  1       21 0.64307439E-01 0.46043329E+03</pdfrwt>
<totfact> 0.58743173E+04</totfact>
</mgrwt>
</event>
<event>
 7    0  0.4737014E-002  0.4655777E+03  0.7546771E-02  0.1023176E+00
         21   -1    0    0  502  501  0.00000000000E+00  0.00000000000E+00  0.15341565617E+04  0.15341565617E+04  0.00000000000E+00 0. -1.
         21   -1    0    0  501  502 -0.00000000000E+00 -0.00000000000E+00 -0.35322761013E+02  0.35322761013E+02  0.00000000000E+00 0. -1.
      99926    2    1    2    0    0  0.35527136788E-14  0.00000000000E+00  0.14988338007E+04  0.15694793227E+04  0.46557768669E+03 0.  0.
      99925    2    3    3    0    0  0.18486349340E+02 -0.65806916920E+02  0.59083190175E+03  0.65035623411E+03  0.26307527382E+03 0.  0.
         25    1    4    4    0    0 -0.19757471712E+02 -0.33928132476E+01  0.26343369126E+03  0.29231265225E+03  0.12509000000E+03 0.  0.
         25    1    4    4    0    0  0.38243821052E+02 -0.62414103672E+02  0.32739821049E+03  0.35804358187E+03  0.12509000000E+03 0.  0.
         25    1    3    3    0    0 -0.18486349340E+02  0.65806916920E+02  0.90800189894E+03  0.91912308860E+03  0.12509000000E+03 0.  0.
<mgrwt>
<rscale>  2 0.46557769E+03</rscale>
<asrwt>0</asrwt>
<pdfrwt beam="1">  1       21 0.22561122E+00 0.46557769E+03</pdfrwt>
<pdfrwt beam="2">  1       21 0.51945247E-02 0.46557769E+03</pdfrwt>
<totfact> 0.20398717E+04</totfact>
</mgrwt>
</event>
<event>
 7    0  0.4737014E-002  0.4572330E+03  0.7546771E-02  0.1025587E+00
         21   -1    0    0  502  501  0.00000000000E+00  0.00000000000E+00  0.27994807574E+02  0.27994807574E+02  0.00000000000E+00 0. -1.
         21   -1    0    0  501  502 -0.00000000000E+00 -0.00000000000E+00 -0.18669713525E+04  0.18669713525E+04  0.00000000000E+00 0. -1.
      99926    2    1    2    0    0  0.00000000000E+00 -0.35527136788E-14 -0.18389765449E+04  0.18949661600E+04  0.45723299862E+03 0.  0.
      99925    2    3    3    0    0  0.74692422536E+02 -0.23397080200E+02 -0.15054645956E+04  0.15302688749E+04  0.26300722353E+03 0.  0.
         25    1    3    3    0    0 -0.74692422536E+02  0.23397080200E+02 -0.33351194931E+03  0.36469728513E+03  0.12509000000E+03 0.  0.
         25    1    4    4    0    0  0.59576303377E+02 -0.24207605092E+02 -0.61144758608E+03  0.62741613200E+03  0.12509000000E+03 0.  0.
         25    1    4    4    0    0  0.15116119160E+02  0.81052489258E+00 -0.89401700948E+03  0.90285274290E+03  0.12509000000E+03 0.  0.
<mgrwt>
<rscale>  2 0.45723300E+03</rscale>
<asrwt>0</asrwt>
<pdfrwt beam="1">  1       21 0.41168825E-02 0.45723300E+03</pdfrwt>
<pdfrwt beam="2">  1       21 0.27455468E+00 0.45723300E+03</pdfrwt>
<totfact> 0.15235596E+04</totfact>
</mgrwt>
</event>
<event>
 7    0  0.4737014E-002  0.4473422E+03  0.7546771E-02  0.1028518E+00
         21   -1    0    0  502  501  0.00000000000E+00  0.00000000000E+00  0.58449741235E+03  0.58449741235E+03  0.00000000000E+00 0. -1.
         21   -1    0    0  501  502 -0.00000000000E+00 -0.00000000000E+00 -0.85592791390E+02  0.85592791390E+02  0.00000000000E+00 0. -1.
      99926    2    1    2    0    0  0.00000000000E+00  0.00000000000E+00  0.49890462096E+03  0.67009020374E+03  0.44734221837E+03 0.  0.
      99925    2    3    3    0    0 -0.10902227650E+02 -0.63181353638E+02  0.19018776108E+03  0.33087883941E+03  0.26305641960E+03 0.  0.
         25    1    4    4    0    0 -0.42078603032E+02 -0.42769438500E+02  0.11534360455E+03  0.18042031181E+03  0.12509000000E+03 0.  0.
         25    1    3    3    0    0  0.10902227650E+02  0.63181353638E+02  0.30871685988E+03  0.33921136432E+03  0.12509000000E+03 0.  0.
         25    1    4    4    0    0  0.31176375382E+02 -0.20411915138E+02  0.74844156528E+02  0.15045852760E+03  0.12509000000E+03 0.  0.
<mgrwt>
<rscale>  2 0.44734222E+03</rscale>
<asrwt>0</asrwt>
<pdfrwt beam="1">  1       21 0.85955500E-01 0.44734222E+03</pdfrwt>
<pdfrwt beam="2">  1       21 0.12587175E-01 0.44734222E+03</pdfrwt>
<totfact> 0.57976671E+04</totfact>
</mgrwt>
</event>
<event>
 7    0  0.4737014E-002  0.4670945E+03  0.7546771E-02  0.1022743E+00
         21   -1    0    0  502  501  0.00000000000E+00  0.00000000000E+00  0.27246792487E+02  0.27246792487E+02  0.00000000000E+00 0. -1.
         21   -1    0    0  501  502 -0.00000000000E+00 -0.00000000000E+00 -0.20018618403E+04  0.20018618403E+04  0.00000000000E+00 0. -1.
      99926    2    1    2    0    0  0.00000000000E+00 -0.14210854715E-13 -0.19746150478E+04  0.20291086328E+04  0.46709448359E+03 0.  0.
      99925    2    3    3    0    0  0.67822179110E+02 -0.81895171464E+02 -0.15073577866E+04  0.15338475670E+04  0.26316191725E+03 0.  0.
         25    1    4    4    0    0  0.40795886310E+02 -0.18297317840E+01 -0.77525813363E+03  0.78634619228E+03  0.12509000000E+03 0.  0.
         25    1    4    4    0    0  0.27026292801E+02 -0.80065439680E+02 -0.73209965299E+03  0.74750137468E+03  0.12509000000E+03 0.  0.
         25    1    3    3    0    0 -0.67822179110E+02  0.81895171464E+02 -0.46725726118E+03  0.49526106581E+03  0.12509000000E+03 0.  0.
<mgrwt>
<rscale>  2 0.46709448E+03</rscale>
<asrwt>0</asrwt>
<pdfrwt beam="1">  1       21 0.40068792E-02 0.46709448E+03</pdfrwt>
<pdfrwt beam="2">  1       21 0.29439159E+00 0.46709448E+03</pdfrwt>
<totfact> 0.12066977E+04</totfact>
</mgrwt>
</event>
<event>
 7    0  0.4737014E-002  0.4350221E+03  0.7546771E-02  0.1032285E+00
         21   -1    0    0  502  501  0.00000000000E+00  0.00000000000E+00  0.36100643408E+03  0.36100643408E+03  0.00000000000E+00 0. -1.
         21   -1    0    0  501  502 -0.00000000000E+00 -0.00000000000E+00 -0.13105323525E+03  0.13105323525E+03  0.00000000000E+00 0. -1.
      99926    2    1    2    0    0  0.00000000000E+00  0.00000000000E+00  0.22995319883E+03  0.49205966933E+03  0.43502211958E+03 0.  0.
      99925    2    3    3    0    0 -0.43010049846E+02  0.74329773746E+02  0.10666051449E+03  0.29655168033E+03  0.26304306510E+03 0.  0.
         25    1    4    4    0    0 -0.46455957492E+01  0.43590691133E+02  0.13964378085E+02  0.13328256401E+03  0.12509000000E+03 0.  0.
         25    1    4    4    0    0 -0.38364454097E+02  0.30739082613E+02  0.92696136409E+02  0.16326911632E+03  0.12509000000E+03 0.  0.
         25    1    3    3    0    0  0.43010049846E+02 -0.74329773746E+02  0.12329268433E+03  0.19550798900E+03  0.12509000000E+03 0.  0.
<mgrwt>
<rscale>  2 0.43502212E+03</rscale>
<asrwt>0</asrwt>
<pdfrwt beam="1">  1       21 0.53089181E-01 0.43502212E+03</pdfrwt>
<pdfrwt beam="2">  1       21 0.19272535E-01 0.43502212E+03</pdfrwt>
<totfact> 0.77395915E+04</totfact>
</mgrwt>
</event>
<event>
 7    0  0.4737014E-002  0.4554305E+03  0.7546771E-02  0.1026115E+00
         21   -1    0    0  502  501  0.00000000000E+00  0.00000000000E+00  0.28233307365E+03  0.28233307365E+03  0.00000000000E+00 0. -1.
         21   -1    0    0  501  502 -0.00000000000E+00 -0.00000000000E+00 -0.18366335999E+03  0.18366335999E+03  0.00000000000E+00 0. -1.
      99926    2    1    2    0    0  0.14210854715E-13 -0.14210854715E-13  0.98669713660E+02  0.46599643365E+03  0.45543052574E+03 0.  0.
      99925    2    3    3    0    0 -0.76444133408E+02  0.67152005736E+02  0.11344741863E+03  0.30407365554E+03  0.26312995609E+03 0.  0.
         25    1    4    4    0    0 -0.30974999216E+02 -0.43884552865E+01  0.33976446743E+02  0.13334397680E+03  0.12509000000E+03 0.  0.
         25    1    3    3    0    0  0.76444133408E+02 -0.67152005736E+02 -0.14777704971E+02  0.16192277811E+03  0.12509000000E+03 0.  0.
         25    1    4    4    0    0 -0.45469134192E+02  0.71540461022E+02  0.79470971888E+02  0.17072967873E+03  0.12509000000E+03 0.  0.
<mgrwt>
<rscale>  2 0.45543053E+03</rscale>
<asrwt>0</asrwt>
<pdfrwt beam="1">  1       21 0.41519570E-01 0.45543053E+03</pdfrwt>
<pdfrwt beam="2">  1       21 0.27009318E-01 0.45543053E+03</pdfrwt>
<totfact> 0.67504366E+04</totfact>
</mgrwt>
</event>
<event>
 7    0  0.4737014E-002  0.4548361E+03  0.7546771E-02  0.1026290E+00
         21   -1    0    0  502  501  0.00000000000E+00  0.00000000000E+00  0.12766111410E+03  0.12766111410E+03  0.00000000000E+00 0. -1.
         21   -1    0    0  501  502 -0.00000000000E+00 -0.00000000000E+00 -0.40512706937E+03  0.40512706937E+03  0.00000000000E+00 0. -1.
      99926    2    1    2    0    0  0.00000000000E+00  0.00000000000E+00 -0.27746595528E+03  0.53278818347E+03  0.45483611566E+03 0.  0.
      99925    2    3    3    0    0 -0.41854241652E+02  0.23513760799E+02 -0.55051657556E+02  0.27313398570E+03  0.26318589372E+03 0.  0.
         25    1    4    4    0    0 -0.26211093701E+02  0.10232350775E+02  0.13669900705E+02  0.12894222241E+03  0.12509000000E+03 0.  0.
         25    1    4    4    0    0 -0.15643147951E+02  0.13281410024E+02 -0.68721558261E+02  0.14419176329E+03  0.12509000000E+03 0.  0.
         25    1    3    3    0    0  0.41854241652E+02 -0.23513760799E+02 -0.22241429772E+03  0.25965419777E+03  0.12509000000E+03 0.  0.
<mgrwt>
<rscale>  2 0.45483612E+03</rscale>
<asrwt>0</asrwt>
<pdfrwt beam="1">  1       21 0.18773693E-01 0.45483612E+03</pdfrwt>
<pdfrwt beam="2">  1       21 0.59577511E-01 0.45483612E+03</pdfrwt>
<totfact> 0.63100044E+04</totfact>
</mgrwt>
</event>
<event>
 7    0  0.4737014E-002  0.4539196E+03  0.7546771E-02  0.1026560E+00
         21   -1    0    0  502  501  0.00000000000E+00  0.00000000000E+00  0.86568009516E+02  0.86568009516E+02  0.00000000000E+00 0. -1.
         21   -1    0    0  501  502 -0.00000000000E+00 -0.00000000000E+00 -0.59503223365E+03  0.59503223365E+03  0.00000000000E+00 0. -1.
      99926    2    1    2    0    0 -0.14210854715E-13  0.00000000000E+00 -0.50846422414E+03  0.68160024317E+03  0.45391962313E+03 0.  0.
      99925    2    3    3    0    0  0.87506061718E+02  0.68536667728E+02 -0.29910434841E+03  0.41358223757E+03  0.26312025831E+03 0.  0.
         25    1    4    4    0    0  0.36674655132E+02  0.66616223959E+01 -0.96292271543E+02  0.16220085450E+03  0.12509000000E+03 0.  0.
         25    1    4    4    0    0  0.50831406586E+02  0.61875045332E+02 -0.20281207687E+03  0.25138138307E+03  0.12509000000E+03 0.  0.
         25    1    3    3    0    0 -0.87506061718E+02 -0.68536667728E+02 -0.20935987573E+03  0.26801800560E+03  0.12509000000E+03 0.  0.
<mgrwt>
<rscale>  2 0.45391962E+03</rscale>
<asrwt>0</asrwt>
<pdfrwt beam="1">  1       21 0.12730589E-01 0.45391962E+03</pdfrwt>
<pdfrwt beam="2">  1       21 0.87504743E-01 0.45391962E+03</pdfrwt>
<totfact> 0.54374802E+04</totfact>
</mgrwt>
</event>
<event>
 7    0  0.4737014E-002  0.4387795E+03  0.7546771E-02  0.1031122E+00
         21   -1    0    0  502  501  0.00000000000E+00  0.00000000000E+00  0.55016753247E+03  0.55016753247E+03  0.00000000000E+00 0.  1.
         21   -1    0    0  501  502 -0.00000000000E+00 -0.00000000000E+00 -0.87485813258E+02  0.87485813258E+02  0.00000000000E+00 0.  1.
      99926    2    1    2    0    0  0.00000000000E+00  0.00000000000E+00  0.46268171921E+03  0.63765334573E+03  0.43877946172E+03 0.  0.
      99925    2    3    3    0    0  0.35149101116E+01 -0.84605348455E+02  0.36521418261E+03  0.45788168953E+03  0.26287605986E+03 0.  0.
         25    1    3    3    0    0 -0.35149101116E+01  0.84605348455E+02  0.97467536604E+02  0.17977165620E+03  0.12509000000E+03 0.  0.
         25    1    4    4    0    0  0.60334726471E+01 -0.65371329318E+02  0.13632413987E+03  0.19632012811E+03  0.12509000000E+03 0.  0.
         25    1    4    4    0    0 -0.25185625355E+01 -0.19234019137E+02  0.22889004274E+03  0.26156156143E+03  0.12509000000E+03 0.  0.
<mgrwt>
<rscale>  2 0.43877946E+03</rscale>
<asrwt>0</asrwt>
<pdfrwt beam="1">  1       21 0.80906988E-01 0.43877946E+03</pdfrwt>
<pdfrwt beam="2">  1       21 0.12865561E-01 0.43877946E+03</pdfrwt>
<totfact> 0.64256301E+04</totfact>
</mgrwt>
</event>
<event>
 7    0  0.4737014E-002  0.4545722E+03  0.7546771E-02  0.1026367E+00
         21   -1    0    0  502  501  0.00000000000E+00  0.00000000000E+00  0.52702233662E+02  0.52702233662E+02  0.00000000000E+00 0. -1.
         21   -1    0    0  501  502 -0.00000000000E+00 -0.00000000000E+00 -0.98020446489E+03  0.98020446489E+03  0.00000000000E+00 0. -1.
      99926    2    1    2    0    0 -0.14210854715E-13  0.00000000000E+00 -0.92750223123E+03  0.10329066986E+04  0.45457217137E+03 0.  0.
      99925    2    3    3    0    0 -0.98390132847E+02  0.27153933780E+02 -0.69290499784E+03  0.74812375599E+03  0.26297122254E+03 0.  0.
         25    1    3    3    0    0  0.98390132847E+02 -0.27153933780E+02 -0.23459723339E+03  0.28478294257E+03  0.12509000000E+03 0.  0.
         25    1    4    4    0    0 -0.88137755519E+02  0.29148633962E+02 -0.35575785132E+03  0.38836717638E+03  0.12509000000E+03 0.  0.
         25    1    4    4    0    0 -0.10252377328E+02 -0.19947001818E+01 -0.33714714652E+03  0.35975657961E+03  0.12509000000E+03 0.  0.
<mgrwt>
<rscale>  2 0.45457217E+03</rscale>
<asrwt>0</asrwt>
<pdfrwt beam="1">  1       21 0.77503280E-02 0.45457217E+03</pdfrwt>
<pdfrwt beam="2">  1       21 0.14414772E+00 0.45457217E+03</pdfrwt>
<totfact> 0.38037802E+04</totfact>
</mgrwt>
</event>
<event>
 7    0  0.4737014E-002  0.4618458E+03  0.7546771E-02  0.1024247E+00
         21   -1    0    0  502  501  0.00000000000E+00  0.00000000000E+00  0.12699635209E+03  0.12699635209E+03  0.00000000000E+00 0. -1.
         21   -1    0    0  501  502 -0.00000000000E+00 -0.00000000000E+00 -0.41989697278E+03  0.41989697278E+03  0.00000000000E+00 0. -1.
      99926    2    1    2    0    0  0.00000000000E+00 -0.35527136788E-14 -0.29290062069E+03  0.54689332486E+03  0.46184579155E+03 0.  0.
      99925    2    3    3    0    0  0.11390626389E+03  0.29732759462E+02 -0.15901983175E+03  0.32910845926E+03  0.26299505153E+03 0.  0.
         25    1    4    4    0    0  0.62921707884E+02  0.12963978631E+02 -0.12652673556E+03  0.18916587688E+03  0.12509000000E+03 0.  0.
         25    1    4    4    0    0  0.50984556005E+02  0.16768780831E+02 -0.32493096186E+02  0.13994258237E+03  0.12509000000E+03 0.  0.
         25    1    3    3    0    0 -0.11390626389E+03 -0.29732759462E+02 -0.13388078894E+03  0.21778486560E+03  0.12509000000E+03 0.  0.
<mgrwt>
<rscale>  2 0.46184579E+03</rscale>
<asrwt>0</asrwt>
<pdfrwt beam="1">  1       21 0.18675934E-01 0.46184579E+03</pdfrwt>
<pdfrwt beam="2">  1       21 0.61749556E-01 0.46184579E+03</pdfrwt>
<totfact> 0.58820693E+04</totfact>
</mgrwt>
</event>
<event>
 7    0  0.4737014E-002  0.4463438E+03  0.7546771E-02  0.1028818E+00
         21   -1    0    0  502  501  0.00000000000E+00  0.00000000000E+00  0.10049221544E+04  0.10049221544E+04  0.00000000000E+00 0. -1.
         21   -1    0    0  501  502 -0.00000000000E+00 -0.00000000000E+00 -0.49561736687E+02  0.49561736687E+02  0.00000000000E+00 0. -1.
      99926    2    1    2    0    0  0.00000000000E+00  0.00000000000E+00  0.95536041771E+03  0.10544838911E+04  0.44634375635E+03 0.  0.
      99925    2    3    3    0    0  0.51698331046E+02  0.72862225381E+02  0.47764014571E+03  0.55264149780E+03  0.26323163749E+03 0.  0.
         25    1    3    3    0    0 -0.51698331046E+02 -0.72862225381E+02  0.47772027200E+03  0.50184239329E+03  0.12509000000E+03 0.  0.
         25    1    4    4    0    0  0.33180891292E+02  0.78480121848E+02  0.26526031742E+03  0.30540243150E+03  0.12509000000E+03 0.  0.
         25    1    4    4    0    0  0.18517439753E+02 -0.56178964676E+01  0.21237982830E+03  0.24723906629E+03  0.12509000000E+03 0.  0.
<mgrwt>
<rscale>  2 0.44634376E+03</rscale>
<asrwt>0</asrwt>
<pdfrwt beam="1">  1       21 0.14778266E+00 0.44634376E+03</pdfrwt>
<pdfrwt beam="2">  1       21 0.72884913E-02 0.44634376E+03</pdfrwt>
<totfact> 0.39730381E+04</totfact>
</mgrwt>
</event>
<event>
 7    0  0.4737014E-002  0.4565716E+03  0.7546771E-02  0.1025780E+00
         21   -1    0    0  502  501  0.00000000000E+00  0.00000000000E+00  0.40212071412E+02  0.40212071412E+02  0.00000000000E+00 0.  1.
         21   -1    0    0  501  502 -0.00000000000E+00 -0.00000000000E+00 -0.12959893845E+04  0.12959893845E+04  0.00000000000E+00 0.  1.
      99926    2    1    2    0    0  0.00000000000E+00  0.00000000000E+00 -0.12557773131E+04  0.13362014559E+04  0.45657164905E+03 0.  0.
      99925    2    3    3    0    0  0.49414806544E+02 -0.21914038935E+02 -0.49339635521E+03  0.56173758894E+03  0.26303442225E+03 0.  0.
         25    1    3    3    0    0 -0.49414806544E+02  0.21914038935E+02 -0.76238095790E+03  0.77446386699E+03  0.12509000000E+03 0.  0.
         25    1    4    4    0    0  0.19793760811E+02 -0.38588106134E+02 -0.31064980828E+03  0.33768572133E+03  0.12509000000E+03 0.  0.
         25    1    4    4    0    0  0.29621045733E+02  0.16674067199E+02 -0.18274654693E+03  0.22405186761E+03  0.12509000000E+03 0.  0.
<mgrwt>
<rscale>  2 0.45657165E+03</rscale>
<asrwt>0</asrwt>
<pdfrwt beam="1">  1       21 0.59135388E-02 0.45657165E+03</pdfrwt>
<pdfrwt beam="2">  1       21 0.19058671E+00 0.45657165E+03</pdfrwt>
<totfact> 0.27740696E+04</totfact>
</mgrwt>
</event>
<event>
 7    0  0.4737014E-002  0.4583339E+03  0.7546771E-02  0.1025266E+00
         21   -1    0    0  502  501  0.00000000000E+00  0.00000000000E+00  0.41083685206E+03  0.41083685206E+03  0.00000000000E+00 0.  1.
         21   -1    0    0  501  502 -0.00000000000E+00 -0.00000000000E+00 -0.12783053548E+03  0.12783053548E+03  0.00000000000E+00 0.  1.
      99926    2    1    2    0    0  0.14210854715E-13  0.00000000000E+00  0.28300631658E+03  0.53866738754E+03  0.45833391668E+03 0.  0.
      99925    2    3    3    0    0 -0.11144569793E+03 -0.16849225352E+02  0.20614208346E+03  0.35357373985E+03  0.26422677941E+03 0.  0.
         25    1    4    4    0    0 -0.26387246677E+02 -0.30167534248E+02  0.66298747138E+02  0.14713734700E+03  0.12509000000E+03 0.  0.
         25    1    3    3    0    0  0.11144569793E+03  0.16849225352E+02  0.76864233125E+02  0.18509364769E+03  0.12509000000E+03 0.  0.
         25    1    4    4    0    0 -0.85058451251E+02  0.13318308897E+02  0.13984333632E+03  0.20643639285E+03  0.12509000000E+03 0.  0.
<mgrwt>
<rscale>  2 0.45833392E+03</rscale>
<asrwt>0</asrwt>
<pdfrwt beam="1">  1       21 0.60417184E-01 0.45833392E+03</pdfrwt>
<pdfrwt beam="2">  1       21 0.18798608E-01 0.45833392E+03</pdfrwt>
<totfact> 0.60995933E+04</totfact>
</mgrwt>
</event>
<event>
 7    0  0.4737014E-002  0.4405277E+03  0.7546771E-02  0.1030585E+00
         21   -1    0    0  502  501  0.00000000000E+00  0.00000000000E+00  0.28147176159E+03  0.28147176159E+03  0.00000000000E+00 0. -1.
         21   -1    0    0  501  502 -0.00000000000E+00 -0.00000000000E+00 -0.17236599874E+03  0.17236599874E+03  0.00000000000E+00 0. -1.
      99926    2    1    2    0    0  0.00000000000E+00  0.00000000000E+00  0.10910576285E+03  0.45383776033E+03  0.44052768950E+03 0.  0.
      99925    2    3    3    0    0  0.32023653752E+02 -0.93390715535E+02  0.63890388946E+02  0.28818970485E+03  0.26310451162E+03 0.  0.
         25    1    3    3    0    0 -0.32023653752E+02  0.93390715535E+02  0.45215373904E+02  0.16564805548E+03  0.12509000000E+03 0.  0.
         25    1    4    4    0    0  0.38090933554E+02 -0.70275116695E+02  0.67398973353E+01  0.14860163378E+03  0.12509000000E+03 0.  0.
         25    1    4    4    0    0 -0.60672798023E+01 -0.23115598840E+02  0.57150491611E+02  0.13958807107E+03  0.12509000000E+03 0.  0.
<mgrwt>
<rscale>  2 0.44052769E+03</rscale>
<asrwt>0</asrwt>
<pdfrwt beam="1">  1       21 0.41392906E-01 0.44052769E+03</pdfrwt>
<pdfrwt beam="2">  1       21 0.25347941E-01 0.44052769E+03</pdfrwt>
<totfact> 0.77138980E+04</totfact>
</mgrwt>
</event>
<event>
 7    0  0.4737014E-002  0.4586487E+03  0.7546771E-02  0.1025174E+00
         21   -1    0    0  502  501  0.00000000000E+00  0.00000000000E+00  0.89165410120E+03  0.89165410120E+03  0.00000000000E+00 0. -1.
         21   -1    0    0  501  502 -0.00000000000E+00 -0.00000000000E+00 -0.58979898019E+02  0.58979898019E+02  0.00000000000E+00 0. -1.
      99926    2    1    2    0    0  0.00000000000E+00  0.00000000000E+00  0.83267420318E+03  0.95063399922E+03  0.45864874559E+03 0.  0.
      99925    2    3    3    0    0 -0.60584564897E+02 -0.33945755003E+02  0.71633618600E+03  0.76622996963E+03  0.26296013235E+03 0.  0.
         25    1    4    4    0    0 -0.61617911272E+02 -0.23931199964E+02  0.45183128984E+03  0.47346435124E+03  0.12509000000E+03 0.  0.
         25    1    3    3    0    0  0.60584564897E+02  0.33945755003E+02  0.11633801718E+03  0.18440402959E+03  0.12509000000E+03 0.  0.
         25    1    4    4    0    0  0.10333463747E+01 -0.10014555039E+02  0.26450489616E+03  0.29276561839E+03  0.12509000000E+03 0.  0.
<mgrwt>
<rscale>  2 0.45864875E+03</rscale>
<asrwt>0</asrwt>
<pdfrwt beam="1">  1       21 0.13112560E+00 0.45864875E+03</pdfrwt>
<pdfrwt beam="2">  1       21 0.86735149E-02 0.45864875E+03</pdfrwt>
<totfact> 0.39962673E+04</totfact>
</mgrwt>
</event>
<event>
 7    0  0.4737014E-002  0.4463778E+03  0.7546771E-02  0.1028808E+00
         21   -1    0    0  502  501  0.00000000000E+00  0.00000000000E+00  0.85116831073E+03  0.85116831073E+03  0.00000000000E+00 0.  1.
         21   -1    0    0  501  502 -0.00000000000E+00 -0.00000000000E+00 -0.58523424661E+02  0.58523424661E+02  0.00000000000E+00 0.  1.
      99926    2    1    2    0    0  0.00000000000E+00  0.71054273576E-14  0.79264488607E+03  0.90969173539E+03  0.44637779742E+03 0.  0.
      99925    2    3    3    0    0  0.10356685606E+02 -0.33144499740E+02  0.30156129144E+03  0.40173856450E+03  0.26315174883E+03 0.  0.
         25    1    3    3    0    0 -0.10356685606E+02  0.33144499740E+02  0.49108359463E+03  0.50795317088E+03  0.12509000000E+03 0.  0.
         25    1    4    4    0    0  0.16192196996E+01  0.23622219111E+02  0.15693808166E+03  0.20208340032E+03  0.12509000000E+03 0.  0.
         25    1    4    4    0    0  0.87374659068E+01 -0.56766718852E+02  0.14462320977E+03  0.19965516418E+03  0.12509000000E+03 0.  0.
<mgrwt>
<rscale>  2 0.44637780E+03</rscale>
<asrwt>0</asrwt>
<pdfrwt beam="1">  1       21 0.12517180E+00 0.44637780E+03</pdfrwt>
<pdfrwt beam="2">  1       21 0.86063865E-02 0.44637780E+03</pdfrwt>
<totfact> 0.45831987E+04</totfact>
</mgrwt>
</event>
<event>
 7    0  0.4737014E-002  0.4543516E+03  0.7546771E-02  0.1026432E+00
         21   -1    0    0  502  501  0.00000000000E+00  0.00000000000E+00  0.21043786927E+04  0.21043786927E+04  0.00000000000E+00 0. -1.
         21   -1    0    0  501  502 -0.00000000000E+00 -0.00000000000E+00 -0.24524501354E+02  0.24524501354E+02  0.00000000000E+00 0. -1.
      99926    2    1    2    0    0  0.00000000000E+00  0.14210854715E-13  0.20798541914E+04  0.21289031941E+04  0.45435157356E+03 0.  0.
      99925    2    3    3    0    0 -0.50673562989E+02  0.64917020361E+02  0.94986176062E+03  0.98902932773E+03  0.26298216159E+03 0.  0.
         25    1    3    3    0    0  0.50673562989E+02 -0.64917020361E+02  0.11299924308E+04  0.11398738664E+04  0.12509000000E+03 0.  0.
         25    1    4    4    0    0 -0.14469052777E+02  0.69600522063E+02  0.54771525104E+03  0.56629770482E+03  0.12509000000E+03 0.  0.
         25    1    4    4    0    0 -0.36204510211E+02 -0.46835017019E+01  0.40214650957E+03  0.42273162291E+03  0.12509000000E+03 0.  0.
<mgrwt>
<rscale>  2 0.45435157E+03</rscale>
<asrwt>0</asrwt>
<pdfrwt beam="1">  1       21 0.30946733E+00 0.45435157E+03</pdfrwt>
<pdfrwt beam="2">  1       21 0.36065458E-02 0.45435157E+03</pdfrwt>
<totfact> 0.11776311E+04</totfact>
</mgrwt>
</event>
<event>
 7    0  0.4737014E-002  0.4522822E+03  0.7546771E-02  0.1027044E+00
         21   -1    0    0  502  501  0.00000000000E+00  0.00000000000E+00  0.91516166489E+02  0.91516166489E+02  0.00000000000E+00 0. -1.
         21   -1    0    0  501  502 -0.00000000000E+00 -0.00000000000E+00 -0.55880607810E+03  0.55880607810E+03  0.00000000000E+00 0. -1.
      99926    2    1    2    0    0  0.00000000000E+00  0.00000000000E+00 -0.46728991161E+03  0.65032224458E+03  0.45228216891E+03 0.  0.
      99925    2    3    3    0    0  0.97439770189E+02 -0.40041227638E+02 -0.24654309792E+03  0.37559606713E+03  0.26304200765E+03 0.  0.
         25    1    3    3    0    0 -0.97439770189E+02  0.40041227638E+02 -0.22074681369E+03  0.27472617745E+03  0.12509000000E+03 0.  0.
         25    1    4    4    0    0  0.54533716513E+02 -0.60684838386E+02 -0.13635157429E+03  0.20222718848E+03  0.12509000000E+03 0.  0.
         25    1    4    4    0    0  0.42906053676E+02  0.20643610749E+02 -0.11019152362E+03  0.17336887865E+03  0.12509000000E+03 0.  0.
<mgrwt>
<rscale>  2 0.45228217E+03</rscale>
<asrwt>0</asrwt>
<pdfrwt beam="1">  1       21 0.13458260E-01 0.45228217E+03</pdfrwt>
<pdfrwt beam="2">  1       21 0.82177362E-01 0.45228217E+03</pdfrwt>
<totfact> 0.56892946E+04</totfact>
</mgrwt>
</event>
<event>
 7    0  0.4737014E-002  0.4513121E+03  0.7546771E-02  0.1027331E+00
         21   -1    0    0  502  501  0.00000000000E+00  0.00000000000E+00  0.73199540079E+02  0.73199540079E+02  0.00000000000E+00 0.  1.
         21   -1    0    0  501  502 -0.00000000000E+00 -0.00000000000E+00 -0.69564156750E+03  0.69564156750E+03  0.00000000000E+00 0.  1.
      99926    2    1    2    0    0  0.00000000000E+00  0.00000000000E+00 -0.62244202743E+03  0.76884110758E+03  0.45131205524E+03 0.  0.
      99925    2    3    3    0    0  0.10814563343E+03 -0.16749195117E+02 -0.40536057773E+03  0.49544052699E+03  0.26299829703E+03 0.  0.
         25    1    4    4    0    0  0.45900216959E+02 -0.47826170894E+02 -0.20970772172E+03  0.25301978023E+03  0.12509000000E+03 0.  0.
         25    1    4    4    0    0  0.62245416468E+02  0.31076975778E+02 -0.19565285601E+03  0.24242074676E+03  0.12509000000E+03 0.  0.
         25    1    3    3    0    0 -0.10814563343E+03  0.16749195117E+02 -0.21708144969E+03  0.27340058059E+03  0.12509000000E+03 0.  0.
<mgrwt>
<rscale>  2 0.45131206E+03</rscale>
<asrwt>0</asrwt>
<pdfrwt beam="1">  1       21 0.10764639E-01 0.45131206E+03</pdfrwt>
<pdfrwt beam="2">  1       21 0.10230023E+00 0.45131206E+03</pdfrwt>
<totfact> 0.50762549E+04</totfact>
</mgrwt>
</event>
<event>
 7    0  0.4737014E-002  0.4599400E+03  0.7546771E-02  0.1024799E+00
         21   -1    0    0  502  501  0.00000000000E+00  0.00000000000E+00  0.26207218046E+03  0.26207218046E+03  0.00000000000E+00 0. -1.
         21   -1    0    0  501  502 -0.00000000000E+00 -0.00000000000E+00 -0.20180011987E+03  0.20180011987E+03  0.00000000000E+00 0. -1.
      99926    2    1    2    0    0  0.14210854715E-13  0.00000000000E+00  0.60272060592E+02  0.46387230032E+03  0.45993998491E+03 0.  0.
      99925    2    3    3    0    0 -0.74024687045E+02 -0.80032722911E+02  0.82725729326E+02  0.29643106774E+03  0.26295045275E+03 0.  0.
         25    1    4    4    0    0 -0.48989273483E+02 -0.45797473182E+02  0.82854611664E+02  0.16434643969E+03  0.12509000000E+03 0.  0.
         25    1    4    4    0    0 -0.25035413562E+02 -0.34235249729E+02 -0.12888233761E+00  0.13208462805E+03  0.12509000000E+03 0.  0.
         25    1    3    3    0    0  0.74024687045E+02  0.80032722911E+02 -0.22453668734E+02  0.16744123258E+03  0.12509000000E+03 0.  0.
<mgrwt>
<rscale>  2 0.45993998E+03</rscale>
<asrwt>0</asrwt>
<pdfrwt beam="1">  1       21 0.38540027E-01 0.45993998E+03</pdfrwt>
<pdfrwt beam="2">  1       21 0.29676488E-01 0.45993998E+03</pdfrwt>
<totfact> 0.65289009E+04</totfact>
</mgrwt>
</event>
<event>
 7    0  0.4737014E-002  0.4581741E+03  0.7546771E-02  0.1025312E+00
         21   -1    0    0  502  501  0.00000000000E+00  0.00000000000E+00  0.42218087765E+03  0.42218087765E+03  0.00000000000E+00 0.  1.
         21   -1    0    0  501  502 -0.00000000000E+00 -0.00000000000E+00 -0.12430900340E+03  0.12430900340E+03  0.00000000000E+00 0.  1.
      99926    2    1    2    0    0  0.00000000000E+00 -0.11102230246E-15  0.29787187425E+03  0.54648988104E+03  0.45817413351E+03 0.  0.
      99925    2    3    3    0    0 -0.26642283528E+02  0.97889616859E+00  0.52104989413E+02  0.26943458098E+03  0.26300055893E+03 0.  0.
         25    1    4    4    0    0 -0.31730768651E+02 -0.27767262066E+01 -0.10314059200E+02  0.12949301064E+03  0.12509000000E+03 0.  0.
         25    1    4    4    0    0  0.50884851226E+01  0.37556223752E+01  0.62419048613E+02  0.13994157034E+03  0.12509000000E+03 0.  0.
         25    1    3    3    0    0  0.26642283528E+02 -0.97889616859E+00  0.24576688484E+03  0.27705530006E+03  0.12509000000E+03 0.  0.
<mgrwt>
<rscale>  2 0.45817413E+03</rscale>
<asrwt>0</asrwt>
<pdfrwt beam="1">  1       21 0.62085423E-01 0.45817413E+03</pdfrwt>
<pdfrwt beam="2">  1       21 0.18280736E-01 0.45817413E+03</pdfrwt>
<totfact> 0.60563561E+04</totfact>
</mgrwt>
</event>
<event>
 7    0  0.4737014E-002  0.4562530E+03  0.7546771E-02  0.1025874E+00
         21   -1    0    0  502  501  0.00000000000E+00  0.00000000000E+00  0.24016306815E+03  0.24016306815E+03  0.00000000000E+00 0. -1.
         21   -1    0    0  501  502 -0.00000000000E+00 -0.00000000000E+00 -0.21669320307E+03  0.21669320307E+03  0.00000000000E+00 0. -1.
      99926    2    1    2    0    0  0.00000000000E+00  0.14210854715E-13  0.23469865080E+02  0.45685627121E+03  0.45625301969E+03 0.  0.
      99925    2    3    3    0    0  0.40129157093E+02 -0.96622687747E+02 -0.31087219999E+02  0.28489616924E+03  0.26315987339E+03 0.  0.
         25    1    4    4    0    0  0.59708024859E+02 -0.49042372369E+02 -0.27571784052E+02  0.14959249278E+03  0.12509000000E+03 0.  0.
         25    1    4    4    0    0 -0.19578867766E+02 -0.47580315378E+02 -0.35154359468E+01  0.13530367646E+03  0.12509000000E+03 0.  0.
         25    1    3    3    0    0 -0.40129157093E+02  0.96622687747E+02  0.54557085079E+02  0.17196010197E+03  0.12509000000E+03 0.  0.
<mgrwt>
<rscale>  2 0.45625302E+03</rscale>
<asrwt>0</asrwt>
<pdfrwt beam="1">  1       21 0.35318098E-01 0.45625302E+03</pdfrwt>
<pdfrwt beam="2">  1       21 0.31866647E-01 0.45625302E+03</pdfrwt>
<totfact> 0.67730363E+04</totfact>
</mgrwt>
</event>
<event>
 7    0  0.4737014E-002  0.4672489E+03  0.7546771E-02  0.1022700E+00
         21   -1    0    0  502  501  0.00000000000E+00  0.00000000000E+00  0.14362295814E+03  0.14362295814E+03  0.00000000000E+00 0.  1.
         21   -1    0    0  501  502 -0.00000000000E+00 -0.00000000000E+00 -0.38002555790E+03  0.38002555790E+03  0.00000000000E+00 0.  1.
      99926    2    1    2    0    0  0.00000000000E+00  0.00000000000E+00 -0.23640259976E+03  0.52364851604E+03  0.46724894775E+03 0.  0.
      99925    2    3    3    0    0 -0.75097688200E+02  0.81377777193E+02 -0.21043332090E+03  0.35458072804E+03  0.26302719395E+03 0.  0.
         25    1    3    3    0    0  0.75097688200E+02 -0.81377777193E+02 -0.25969278861E+02  0.16906778800E+03  0.12509000000E+03 0.  0.
         25    1    4    4    0    0 -0.74623949904E+02  0.41408124104E+02 -0.13654024402E+03  0.20389730988E+03  0.12509000000E+03 0.  0.
         25    1    4    4    0    0 -0.47373829523E+00  0.39969653090E+02 -0.73893076888E+02  0.15068341816E+03  0.12509000000E+03 0.  0.
<mgrwt>
<rscale>  2 0.46724895E+03</rscale>
<asrwt>0</asrwt>
<pdfrwt beam="1">  1       21 0.21121024E-01 0.46724895E+03</pdfrwt>
<pdfrwt beam="2">  1       21 0.55886111E-01 0.46724895E+03</pdfrwt>
<totfact> 0.57812760E+04</totfact>
</mgrwt>
</event>
<event>
 7    0  0.4737014E-002  0.4574633E+03  0.7546771E-02  0.1025519E+00
         21   -1    0    0  502  501  0.00000000000E+00  0.00000000000E+00  0.16140907507E+02  0.16140907507E+02  0.00000000000E+00 0. -1.
         21   -1    0    0  501  502 -0.00000000000E+00 -0.00000000000E+00 -0.32413404912E+04  0.32413404912E+04  0.00000000000E+00 0. -1.
      99926    2    1    2    0    0  0.00000000000E+00  0.00000000000E+00 -0.32251995837E+04  0.32574813988E+04  0.45746334090E+03 0.  0.
      99925    2    3    3    0    0 -0.71265443613E+02 -0.83037423590E+02 -0.17618907270E+04  0.17847647609E+04  0.26296832624E+03 0.  0.
         25    1    3    3    0    0  0.71265443613E+02  0.83037423590E+02 -0.14633088567E+04  0.14727166379E+04  0.12509000000E+03 0.  0.
         25    1    4    4    0    0 -0.47049250237E+02 -0.21899134715E+02 -0.10741994704E+04  0.10827027359E+04  0.12509000000E+03 0.  0.
         25    1    4    4    0    0 -0.24216193376E+02 -0.61138288875E+02 -0.68769125661E+03  0.70206202497E+03  0.12509000000E+03 0.  0.
<mgrwt>
<rscale>  2 0.45746334E+03</rscale>
<asrwt>0</asrwt>
<pdfrwt beam="1">  1       21 0.23736605E-02 0.45746334E+03</pdfrwt>
<pdfrwt beam="2">  1       21 0.47666819E+00 0.45746334E+03</pdfrwt>
<totfact> 0.20120953E+03</totfact>
</mgrwt>
</event>
<event>
 7    0  0.4737014E-002  0.4502238E+03  0.7546771E-02  0.1027655E+00
         21   -1    0    0  502  501  0.00000000000E+00  0.00000000000E+00  0.27307938489E+03  0.27307938489E+03  0.00000000000E+00 0.  1.
         21   -1    0    0  501  502 -0.00000000000E+00 -0.00000000000E+00 -0.18557009474E+03  0.18557009474E+03  0.00000000000E+00 0.  1.
      99926    2    1    2    0    0  0.00000000000E+00  0.00000000000E+00  0.87509290150E+02  0.45864947962E+03  0.45022379912E+03 0.  0.
      99925    2    3    3    0    0 -0.69249883844E+02  0.18561423342E+02  0.13876716901E+03  0.30563003284E+03  0.26270385785E+03 0.  0.
         25    1    3    3    0    0  0.69249883844E+02 -0.18561423342E+02 -0.51257878857E+02  0.15301944678E+03  0.12509000000E+03 0.  0.
         25    1    4    4    0    0 -0.75488932078E+02  0.14342998264E+02  0.69175126805E+02  0.16228680394E+03  0.12509000000E+03 0.  0.
         25    1    4    4    0    0  0.62390482343E+01  0.42184250785E+01  0.69592042202E+02  0.14334322890E+03  0.12509000000E+03 0.  0.
<mgrwt>
<rscale>  2 0.45022380E+03</rscale>
<asrwt>0</asrwt>
<pdfrwt beam="1">  1       21 0.40158733E-01 0.45022380E+03</pdfrwt>
<pdfrwt beam="2">  1       21 0.27289720E-01 0.45022380E+03</pdfrwt>
<totfact> 0.70939596E+04</totfact>
</mgrwt>
</event>
<event>
 7    0  0.4737014E-002  0.4398653E+03  0.7546771E-02  0.1030788E+00
         21   -1    0    0  502  501  0.00000000000E+00  0.00000000000E+00  0.88190666681E+03  0.88190666681E+03  0.00000000000E+00 0.  1.
         21   -1    0    0  501  502 -0.00000000000E+00 -0.00000000000E+00 -0.54847497087E+02  0.54847497087E+02  0.00000000000E+00 0.  1.
      99926    2    1    2    0    0  0.00000000000E+00  0.00000000000E+00  0.82705916972E+03  0.93675416390E+03  0.43986531274E+03 0.  0.
      99925    2    3    3    0    0 -0.51817567529E+02  0.35795347828E+02  0.68880319979E+03  0.73995835969E+03  0.26291093322E+03 0.  0.
         25    1    4    4    0    0 -0.29966952699E+02 -0.21875335023E+02  0.35323060270E+03  0.37655798401E+03  0.12509000000E+03 0.  0.
         25    1    4    4    0    0 -0.21850614830E+02  0.57670682851E+02  0.33557259708E+03  0.36340037568E+03  0.12509000000E+03 0.  0.
         25    1    3    3    0    0  0.51817567529E+02 -0.35795347828E+02  0.13825596993E+03  0.19679580421E+03  0.12509000000E+03 0.  0.
<mgrwt>
<rscale>  2 0.43986531E+03</rscale>
<asrwt>0</asrwt>
<pdfrwt beam="1">  1       21 0.12969215E+00 0.43986531E+03</pdfrwt>
<pdfrwt beam="2">  1       21 0.80658089E-02 0.43986531E+03</pdfrwt>
<totfact> 0.47003699E+04</totfact>
</mgrwt>
</event>
<event>
 7    0  0.4737014E-002  0.4581529E+03  0.7546771E-02  0.1025318E+00
         21   -1    0    0  502  501  0.00000000000E+00  0.00000000000E+00  0.41000201036E+02  0.41000201036E+02  0.00000000000E+00 0.  1.
         21   -1    0    0  501  502 -0.00000000000E+00 -0.00000000000E+00 -0.12798969191E+04  0.12798969191E+04  0.00000000000E+00 0.  1.
      99926    2    1    2    0    0  0.00000000000E+00  0.00000000000E+00 -0.12388967180E+04  0.13208971201E+04  0.45815294821E+03 0.  0.
      99925    2    3    3    0    0  0.79110126751E+02 -0.48912025449E+02 -0.97763059433E+03  0.10166631741E+04  0.26304302363E+03 0.  0.
         25    1    3    3    0    0 -0.79110126751E+02  0.48912025449E+02 -0.26126612371E+03  0.30423394598E+03  0.12509000000E+03 0.  0.
         25    1    4    4    0    0  0.31412980993E+02 -0.62736828102E+02 -0.46142459232E+03  0.48320062860E+03  0.12509000000E+03 0.  0.
         25    1    4    4    0    0  0.47697145758E+02  0.13824802653E+02 -0.51620600201E+03  0.53346254554E+03  0.12509000000E+03 0.  0.
<mgrwt>
<rscale>  2 0.45815295E+03</rscale>
<asrwt>0</asrwt>
<pdfrwt beam="1">  1       21 0.60294423E-02 0.45815295E+03</pdfrwt>
<pdfrwt beam="2">  1       21 0.18822011E+00 0.45815295E+03</pdfrwt>
<totfact> 0.27825329E+04</totfact>
</mgrwt>
</event>
<event>
 6    0  0.4737014E-002  0.4566766E+03  0.7546771E-02  0.1025750E+00
         21   -1    0    0  502  501  0.00000000000E+00  0.00000000000E+00  0.11572328830E+03  0.11572328830E+03  0.00000000000E+00 0.  1.
         21   -1    0    0  501  502 -0.00000000000E+00 -0.00000000000E+00 -0.45054345342E+03  0.45054345342E+03  0.00000000000E+00 0.  1.
      99926    2    1    2    0    0  0.00000000000E+00  0.00000000000E+00 -0.33482016512E+03  0.56626674172E+03  0.45667655930E+03 0.  0.
         25    1    3    3    0    0  0.39194474696E+02 -0.92964658736E+01 -0.21774007868E+02  0.13320753223E+03  0.12509000000E+03 0.  0.
         25    1    3    3    0    0  0.35227199087E+01  0.63762200039E+02 -0.85797083578E+02  0.16458030064E+03  0.12509000000E+03 0.  0.
         25    1    3    3    0    0 -0.42717194605E+02 -0.54465734165E+02 -0.22724907367E+03  0.26847890885E+03  0.12509000000E+03 0.  0.
<mgrwt>
<rscale>  2 0.45667656E+03</rscale>
<asrwt>0</asrwt>
<pdfrwt beam="1">  1       21 0.17018131E-01 0.45667656E+03</pdfrwt>
<pdfrwt beam="2">  1       21 0.66256391E-01 0.45667656E+03</pdfrwt>
<totfact> 0.60004633E+04</totfact>
</mgrwt>
</event>
<event>
 7    0  0.4737014E-002  0.4558513E+03  0.7546771E-02  0.1025991E+00
         21   -1    0    0  502  501  0.00000000000E+00  0.00000000000E+00  0.16357769640E+03  0.16357769640E+03  0.00000000000E+00 0.  1.
         21   -1    0    0  501  502 -0.00000000000E+00 -0.00000000000E+00 -0.31758665794E+03  0.31758665794E+03  0.00000000000E+00 0.  1.
      99926    2    1    2    0    0  0.00000000000E+00  0.00000000000E+00 -0.15400896154E+03  0.48116435435E+03  0.45585126484E+03 0.  0.
      99925    2    3    3    0    0  0.10829961239E+03 -0.35371030440E+02 -0.10324261113E+03  0.30451598534E+03  0.26285173148E+03 0.  0.
         25    1    3    3    0    0 -0.10829961239E+03  0.35371030440E+02 -0.50766350413E+02  0.17664836900E+03  0.12509000000E+03 0.  0.
         25    1    4    4    0    0  0.92180830062E+02 -0.45572446846E+01 -0.42389383621E+02  0.16112865001E+03  0.12509000000E+03 0.  0.
         25    1    4    4    0    0  0.16118782325E+02 -0.30813785756E+02 -0.60853227506E+02  0.14338733533E+03  0.12509000000E+03 0.  0.
<mgrwt>
<rscale>  2 0.45585126E+03</rscale>
<asrwt>0</asrwt>
<pdfrwt beam="1">  1       21 0.24055544E-01 0.45585126E+03</pdfrwt>
<pdfrwt beam="2">  1       21 0.46703920E-01 0.45585126E+03</pdfrwt>
<totfact> 0.66167216E+04</totfact>
</mgrwt>
</event>
<event>
 7    0  0.4737014E-002  0.4592344E+03  0.7546771E-02  0.1025003E+00
         21   -1    0    0  502  501  0.00000000000E+00  0.00000000000E+00  0.18421358940E+03  0.18421358940E+03  0.00000000000E+00 0. -1.
         21   -1    0    0  501  502 -0.00000000000E+00 -0.00000000000E+00 -0.28621158438E+03  0.28621158438E+03  0.00000000000E+00 0. -1.
      99926    2    1    2    0    0 -0.71054273576E-14  0.00000000000E+00 -0.10199799498E+03  0.47042517377E+03  0.45923442068E+03 0.  0.
      99925    2    3    3    0    0  0.50973994046E+02  0.45702058668E+02  0.33046469518E+02  0.27402878448E+03  0.26327301294E+03 0.  0.
         25    1    4    4    0    0  0.44840341310E+02 -0.57871774485E+01  0.38617986264E+02  0.13850272414E+03  0.12509000000E+03 0.  0.
         25    1    3    3    0    0 -0.50973994046E+02 -0.45702058668E+02 -0.13504446450E+03  0.19639638929E+03  0.12509000000E+03 0.  0.
         25    1    4    4    0    0  0.61336527364E+01  0.51489236117E+02 -0.55715167456E+01  0.13552606034E+03  0.12509000000E+03 0.  0.
<mgrwt>
<rscale>  2 0.45923442E+03</rscale>
<asrwt>0</asrwt>
<pdfrwt beam="1">  1       21 0.27090234E-01 0.45923442E+03</pdfrwt>
<pdfrwt beam="2">  1       21 0.42089938E-01 0.45923442E+03</pdfrwt>
<totfact> 0.65187210E+04</totfact>
</mgrwt>
</event>
<event>
 7    0  0.4737014E-002  0.4546424E+03  0.7546771E-02  0.1026347E+00
         21   -1    0    0  502  501  0.00000000000E+00  0.00000000000E+00  0.14425880987E+04  0.14425880987E+04  0.00000000000E+00 0. -1.
         21   -1    0    0  501  502 -0.00000000000E+00 -0.00000000000E+00 -0.35820992852E+02  0.35820992852E+02  0.00000000000E+00 0. -1.
      99926    2    1    2    0    0  0.00000000000E+00 -0.71054273576E-14  0.14067671058E+04  0.14784090915E+04  0.45464244400E+03 0.  0.
      99925    2    3    3    0    0 -0.59788392259E+02  0.42529123550E+02  0.60689793454E+03  0.66549976234E+03  0.26302367296E+03 0.  0.
         25    1    4    4    0    0 -0.41222136406E+02 -0.17463857338E+02  0.30939708785E+03  0.33671696855E+03  0.12509000000E+03 0.  0.
         25    1    3    3    0    0  0.59788392259E+02 -0.42529123550E+02  0.79986917127E+03  0.81290932916E+03  0.12509000000E+03 0.  0.
         25    1    4    4    0    0 -0.18566255853E+02  0.59992980888E+02  0.29750084669E+03  0.32878279379E+03  0.12509000000E+03 0.  0.
<mgrwt>
<rscale>  2 0.45464244E+03</rscale>
<asrwt>0</asrwt>
<pdfrwt beam="1">  1       21 0.21214527E+00 0.45464244E+03</pdfrwt>
<pdfrwt beam="2">  1       21 0.52677940E-02 0.45464244E+03</pdfrwt>
<totfact> 0.24380928E+04</totfact>
</mgrwt>
</event>
<event>
 7    0  0.4737014E-002  0.4513386E+03  0.7546771E-02  0.1027324E+00
         21   -1    0    0  502  501  0.00000000000E+00  0.00000000000E+00  0.50533824630E+03  0.50533824630E+03  0.00000000000E+00 0.  1.
         21   -1    0    0  501  502 -0.00000000000E+00 -0.00000000000E+00 -0.10077729562E+03  0.10077729562E+03  0.00000000000E+00 0.  1.
      99926    2    1    2    0    0  0.00000000000E+00  0.00000000000E+00  0.40456095069E+03  0.60611554192E+03  0.45133855069E+03 0.  0.
      99925    2    3    3    0    0 -0.68990029703E+02 -0.23249628440E+02  0.36565779049E+03  0.45624515327E+03  0.26297119750E+03 0.  0.
         25    1    3    3    0    0  0.68990029703E+02  0.23249628440E+02  0.38903160199E+02  0.14987038865E+03  0.12509000000E+03 0.  0.
         25    1    4    4    0    0 -0.63872990983E+01 -0.26810461159E+02  0.21780294898E+03  0.25267613877E+03  0.12509000000E+03 0.  0.
         25    1    4    4    0    0 -0.62602730604E+02  0.35608327197E+01  0.14785484151E+03  0.20356901450E+03  0.12509000000E+03 0.  0.
<mgrwt>
<rscale>  2 0.45133855E+03</rscale>
<asrwt>0</asrwt>
<pdfrwt beam="1">  1       21 0.74314447E-01 0.45133855E+03</pdfrwt>
<pdfrwt beam="2">  1       21 0.14820191E-01 0.45133855E+03</pdfrwt>
<totfact> 0.60020721E+04</totfact>
</mgrwt>
</event>
<event>
 7    0  0.4737014E-002  0.4458787E+03  0.7546771E-02  0.1028958E+00
         21   -1    0    0  502  501  0.00000000000E+00  0.00000000000E+00  0.45655060705E+02  0.45655060705E+02  0.00000000000E+00 0. -1.
         21   -1    0    0  501  502 -0.00000000000E+00 -0.00000000000E+00 -0.10886404043E+04  0.10886404043E+04  0.00000000000E+00 0. -1.
      99926    2    1    2    0    0 -0.14210854715E-13  0.00000000000E+00 -0.10429853436E+04  0.11342954650E+04  0.44587865499E+03 0.  0.
      99925    2    3    3    0    0  0.82222564169E+02 -0.37950275345E+02 -0.53038311642E+03  0.59893640338E+03  0.26309274345E+03 0.  0.
         25    1    3    3    0    0 -0.82222564169E+02  0.37950275345E+02 -0.51260222719E+03  0.53535906164E+03  0.12509000000E+03 0.  0.
         25    1    4    4    0    0  0.36414993579E+02 -0.55822653977E+02 -0.30880723956E+03  0.33978175313E+03  0.12509000000E+03 0.  0.
         25    1    4    4    0    0  0.45807570591E+02  0.17872378632E+02 -0.22157587686E+03  0.25915465025E+03  0.12509000000E+03 0.  0.
<mgrwt>
<rscale>  2 0.44587865E+03</rscale>
<asrwt>0</asrwt>
<pdfrwt beam="1">  1       21 0.67139797E-02 0.44587865E+03</pdfrwt>
<pdfrwt beam="2">  1       21 0.16009417E+00 0.44587865E+03</pdfrwt>
<totfact> 0.36863117E+04</totfact>
</mgrwt>
</event>
<event>
 7    0  0.4737014E-002  0.4540814E+03  0.7546771E-02  0.1026512E+00
         21   -1    0    0  502  501  0.00000000000E+00  0.00000000000E+00  0.20946995696E+03  0.20946995696E+03  0.00000000000E+00 0.  1.
         21   -1    0    0  501  502 -0.00000000000E+00 -0.00000000000E+00 -0.24608526207E+03  0.24608526207E+03  0.00000000000E+00 0.  1.
      99926    2    1    2    0    0  0.00000000000E+00  0.00000000000E+00 -0.36615305114E+02  0.45555521903E+03  0.45408135507E+03 0.  0.
      99925    2    3    3    0    0  0.34875489641E+02  0.21692512562E+02  0.81627070978E+02  0.27859298441E+03  0.26318094036E+03 0.  0.
         25    1    3    3    0    0 -0.34875489641E+02 -0.21692512562E+02 -0.11824237609E+03  0.17696223462E+03  0.12509000000E+03 0.  0.
         25    1    4    4    0    0  0.42882434129E+02  0.25384821094E+02  0.12062784249E+02  0.13518990777E+03  0.12509000000E+03 0.  0.
         25    1    4    4    0    0 -0.80069444879E+01 -0.36923085323E+01  0.69564286728E+02  0.14340307664E+03  0.12509000000E+03 0.  0.
<mgrwt>
<rscale>  2 0.45408136E+03</rscale>
<asrwt>0</asrwt>
<pdfrwt beam="1">  1       21 0.30804406E-01 0.45408136E+03</pdfrwt>
<pdfrwt beam="2">  1       21 0.36189009E-01 0.45408136E+03</pdfrwt>
<totfact> 0.69009595E+04</totfact>
</mgrwt>
</event>
<event>
 7    0  0.4737014E-002  0.4545129E+03  0.7546771E-02  0.1026385E+00
         21   -1    0    0  502  501  0.00000000000E+00  0.00000000000E+00  0.91879904411E+02  0.91879904411E+02  0.00000000000E+00 0.  1.
         21   -1    0    0  501  502 -0.00000000000E+00 -0.00000000000E+00 -0.56209788174E+03  0.56209788174E+03  0.00000000000E+00 0.  1.
      99926    2    1    2    0    0  0.11657341759E-14  0.14210854715E-13 -0.47021797732E+03  0.65397778615E+03  0.45451292454E+03 0.  0.
      99925    2    3    3    0    0 -0.15259115544E+00 -0.10286624595E+03 -0.36223858322E+03  0.45932798396E+03  0.26302835938E+03 0.  0.
         25    1    4    4    0    0 -0.27882719997E+02 -0.71577383348E+02 -0.22776133857E+03  0.27096771639E+03  0.12509000000E+03 0.  0.
         25    1    3    3    0    0  0.15259115544E+00  0.10286624595E+03 -0.10797939410E+03  0.19464980219E+03  0.12509000000E+03 0.  0.
         25    1    4    4    0    0  0.27730128842E+02 -0.31288862601E+02 -0.13447724465E+03  0.18836026757E+03  0.12509000000E+03 0.  0.
<mgrwt>
<rscale>  2 0.45451292E+03</rscale>
<asrwt>0</asrwt>
<pdfrwt beam="1">  1       21 0.13511751E-01 0.45451292E+03</pdfrwt>
<pdfrwt beam="2">  1       21 0.82661453E-01 0.45451292E+03</pdfrwt>
<totfact> 0.55686553E+04</totfact>
</mgrwt>
</event>
<event>
 7    0  0.4737014E-002  0.4535462E+03  0.7546771E-02  0.1026670E+00
         21   -1    0    0  502  501  0.00000000000E+00  0.00000000000E+00  0.36616521409E+02  0.36616521409E+02  0.00000000000E+00 0.  1.
         21   -1    0    0  501  502 -0.00000000000E+00 -0.00000000000E+00 -0.14044493433E+04  0.14044493433E+04  0.00000000000E+00 0.  1.
      99926    2    1    2    0    0  0.00000000000E+00  0.00000000000E+00 -0.13678328219E+04  0.14410658647E+04  0.45354624658E+03 0.  0.
      99925    2    3    3    0    0  0.11982129993E+02  0.45554946348E+02 -0.53964222987E+03  0.60215824799E+03  0.26298668177E+03 0.  0.
         25    1    4    4    0    0 -0.34148897136E+02  0.25099813948E+02 -0.27898579698E+03  0.30866929042E+03  0.12509000000E+03 0.  0.
         25    1    4    4    0    0  0.46131027128E+02  0.20455132400E+02 -0.26065643289E+03  0.29348895757E+03  0.12509000000E+03 0.  0.
         25    1    3    3    0    0 -0.11982129993E+02 -0.45554946348E+02 -0.82819059203E+03  0.83890761672E+03  0.12509000000E+03 0.  0.
<mgrwt>
<rscale>  2 0.45354625E+03</rscale>
<asrwt>0</asrwt>
<pdfrwt beam="1">  1       21 0.53847817E-02 0.45354625E+03</pdfrwt>
<pdfrwt beam="2">  1       21 0.20653670E+00 0.45354625E+03</pdfrwt>
<totfact> 0.25545259E+04</totfact>
</mgrwt>
</event>
<event>
 7    0  0.4737014E-002  0.4382099E+03  0.7546771E-02  0.1031297E+00
         21   -1    0    0  502  501  0.00000000000E+00  0.00000000000E+00  0.10316628322E+03  0.10316628322E+03  0.00000000000E+00 0.  1.
         21   -1    0    0  501  502 -0.00000000000E+00 -0.00000000000E+00 -0.46533598004E+03  0.46533598004E+03  0.00000000000E+00 0.  1.
      99926    2    1    2    0    0  0.00000000000E+00  0.00000000000E+00 -0.36216969682E+03  0.56850226326E+03  0.43820992006E+03 0.  0.
      99925    2    3    3    0    0 -0.85679725358E+02 -0.28237862433E+02 -0.18635900194E+03  0.33463199849E+03  0.26288876848E+03 0.  0.
         25    1    4    4    0    0 -0.77388063114E+02 -0.21893769818E+02 -0.73741311691E+02  0.16599258604E+03  0.12509000000E+03 0.  0.
         25    1    3    3    0    0  0.85679725358E+02  0.28237862433E+02 -0.17581069488E+03  0.23387026478E+03  0.12509000000E+03 0.  0.
         25    1    4    4    0    0 -0.82916622433E+01 -0.63440926150E+01 -0.11261769025E+03  0.16863941245E+03  0.12509000000E+03 0.  0.
<mgrwt>
<rscale>  2 0.43820992E+03</rscale>
<asrwt>0</asrwt>
<pdfrwt beam="1">  1       21 0.15171512E-01 0.43820992E+03</pdfrwt>
<pdfrwt beam="2">  1       21 0.68431762E-01 0.43820992E+03</pdfrwt>
<totfact> 0.69429487E+04</totfact>
</mgrwt>
</event>
<event>
 7    0  0.4737014E-002  0.4592974E+03  0.7546771E-02  0.1024985E+00
         21   -1    0    0  502  501  0.00000000000E+00  0.00000000000E+00  0.79253796658E+03  0.79253796658E+03  0.00000000000E+00 0.  1.
         21   -1    0    0  501  502 -0.00000000000E+00 -0.00000000000E+00 -0.66543854466E+02  0.66543854466E+02  0.00000000000E+00 0.  1.
      99926    2    1    2    0    0 -0.71054273576E-14  0.00000000000E+00  0.72599411212E+03  0.85908182105E+03  0.45929742480E+03 0.  0.
      99925    2    3    3    0    0  0.27699638704E+02  0.18276694009E+02  0.24492214390E+03  0.36090609479E+03  0.26299248118E+03 0.  0.
         25    1    3    3    0    0 -0.27699638704E+02 -0.18276694009E+02  0.48107196822E+03  0.49817572626E+03  0.12509000000E+03 0.  0.
         25    1    4    4    0    0 -0.60118313794E+01 -0.19573329104E+02  0.14731739976E+03  0.19434294868E+03  0.12509000000E+03 0.  0.
         25    1    4    4    0    0  0.33711470083E+02  0.37850023113E+02  0.97604744144E+02  0.16656314612E+03  0.12509000000E+03 0.  0.
<mgrwt>
<rscale>  2 0.45929742E+03</rscale>
<asrwt>0</asrwt>
<pdfrwt beam="1">  1       21 0.11654970E+00 0.45929742E+03</pdfrwt>
<pdfrwt beam="2">  1       21 0.97858614E-02 0.45929742E+03</pdfrwt>
<totfact> 0.43549169E+04</totfact>
</mgrwt>
</event>
<event>
 7    0  0.4737014E-002  0.4539768E+03  0.7546771E-02  0.1026543E+00
         21   -1    0    0  502  501  0.00000000000E+00  0.00000000000E+00  0.18924604904E+03  0.18924604904E+03  0.00000000000E+00 0.  1.
         21   -1    0    0  501  502 -0.00000000000E+00 -0.00000000000E+00 -0.27225792915E+03  0.27225792915E+03  0.00000000000E+00 0.  1.
      99926    2    1    2    0    0  0.00000000000E+00  0.00000000000E+00 -0.83011880102E+02  0.46150397819E+03  0.45397681620E+03 0.  0.
      99925    2    3    3    0    0 -0.71097123634E+02 -0.81283806174E+02 -0.83432290540E+02  0.29624798593E+03  0.26294498270E+03 0.  0.
         25    1    4    4    0    0 -0.17597855188E+02 -0.26085055708E+02 -0.74950114143E+02  0.14918157510E+03  0.12509000000E+03 0.  0.
         25    1    3    3    0    0  0.71097123634E+02  0.81283806174E+02  0.42041043787E+00  0.16525599227E+03  0.12509000000E+03 0.  0.
         25    1    4    4    0    0 -0.53499268446E+02 -0.55198750466E+02 -0.84821763966E+01  0.14706641083E+03  0.12509000000E+03 0.  0.
<mgrwt>
<rscale>  2 0.45397682E+03</rscale>
<asrwt>0</asrwt>
<pdfrwt beam="1">  1       21 0.27830302E-01 0.45397682E+03</pdfrwt>
<pdfrwt beam="2">  1       21 0.40037930E-01 0.45397682E+03</pdfrwt>
<totfact> 0.68626928E+04</totfact>
</mgrwt>
</event>
<event>
 7    0  0.4737014E-002  0.4571204E+03  0.7546771E-02  0.1025620E+00
         21   -1    0    0  502  501  0.00000000000E+00  0.00000000000E+00  0.46629406661E+03  0.46629406661E+03  0.00000000000E+00 0. -1.
         21   -1    0    0  501  502 -0.00000000000E+00 -0.00000000000E+00 -0.11203181542E+03  0.11203181542E+03  0.00000000000E+00 0. -1.
      99926    2    1    2    0    0  0.00000000000E+00  0.00000000000E+00  0.35426225119E+03  0.57832588203E+03  0.45712042527E+03 0.  0.
      99925    2    3    3    0    0 -0.94007263807E+02 -0.65238300874E+02  0.23877746073E+03  0.37319751618E+03  0.26299868588E+03 0.  0.
         25    1    3    3    0    0  0.94007263807E+02  0.65238300874E+02  0.11548479046E+03  0.20512836585E+03  0.12509000000E+03 0.  0.
         25    1    4    4    0    0 -0.57971860705E+02 -0.24820770268E+02  0.17073832996E+03  0.22085264927E+03  0.12509000000E+03 0.  0.
         25    1    4    4    0    0 -0.36035403102E+02 -0.40417530606E+02  0.68039130771E+02  0.15234486691E+03  0.12509000000E+03 0.  0.
<mgrwt>
<rscale>  2 0.45712043E+03</rscale>
<asrwt>0</asrwt>
<pdfrwt beam="1">  1       21 0.68572656E-01 0.45712043E+03</pdfrwt>
<pdfrwt beam="2">  1       21 0.16475267E-01 0.45712043E+03</pdfrwt>
<totfact> 0.59036648E+04</totfact>
</mgrwt>
</event>
<event>
 7    0  0.4737014E-002  0.4558758E+03  0.7546771E-02  0.1025984E+00
         21   -1    0    0  502  501  0.00000000000E+00  0.00000000000E+00  0.62648509350E+03  0.62648509350E+03  0.00000000000E+00 0. -1.
         21   -1    0    0  501  502 -0.00000000000E+00 -0.00000000000E+00 -0.82932022591E+02  0.82932022591E+02  0.00000000000E+00 0. -1.
      99926    2    1    2    0    0  0.71054273576E-14 -0.44408920985E-15  0.54355307090E+03  0.70941711609E+03  0.45587575468E+03 0.  0.
      99925    2    3    3    0    0 -0.49004644050E+02  0.30934970607E+01  0.18155247242E+03  0.32327858360E+03  0.26293861929E+03 0.  0.
         25    1    4    4    0    0 -0.23951223883E+02 -0.29856897601E+02  0.59638741060E+02  0.14376850488E+03  0.12509000000E+03 0.  0.
         25    1    4    4    0    0 -0.25053420166E+02  0.32950394662E+02  0.12191373136E+03  0.17951007873E+03  0.12509000000E+03 0.  0.
         25    1    3    3    0    0  0.49004644050E+02 -0.30934970607E+01  0.36200059849E+03  0.38613853248E+03  0.12509000000E+03 0.  0.
<mgrwt>
<rscale>  2 0.45587575E+03</rscale>
<asrwt>0</asrwt>
<pdfrwt beam="1">  1       21 0.92130159E-01 0.45587575E+03</pdfrwt>
<pdfrwt beam="2">  1       21 0.12195886E-01 0.45587575E+03</pdfrwt>
<totfact> 0.52035194E+04</totfact>
</mgrwt>
</event>
<event>
 7    0  0.4737014E-002  0.4185421E+03  0.7546771E-02  0.1037542E+00
         21   -1    0    0  502  501  0.00000000000E+00  0.00000000000E+00  0.64284961372E+02  0.64284961372E+02  0.00000000000E+00 0.  1.
         21   -1    0    0  501  502 -0.00000000000E+00 -0.00000000000E+00 -0.68125368502E+03  0.68125368502E+03  0.00000000000E+00 0.  1.
      99926    2    1    2    0    0 -0.35527136788E-14  0.00000000000E+00 -0.61696872365E+03  0.74553864639E+03  0.41854207352E+03 0.  0.
      99925    2    3    3    0    0  0.28827332710E+02 -0.39342300505E+02 -0.50194079249E+03  0.56873999038E+03  0.26294825684E+03 0.  0.
         25    1    4    4    0    0  0.54339829254E+02 -0.28252286668E+02 -0.26373301698E+03  0.29825093645E+03  0.12509000000E+03 0.  0.
         25    1    3    3    0    0 -0.28827332710E+02  0.39342300505E+02 -0.11502793116E+03  0.17679865601E+03  0.12509000000E+03 0.  0.
         25    1    4    4    0    0 -0.25512496544E+02 -0.11090013837E+02 -0.23820777551E+03  0.27048905393E+03  0.12509000000E+03 0.  0.
<mgrwt>
<rscale>  2 0.41854207E+03</rscale>
<asrwt>0</asrwt>
<pdfrwt beam="1">  1       21 0.94536713E-02 0.41854207E+03</pdfrwt>
<pdfrwt beam="2">  1       21 0.10018436E+00 0.41854207E+03</pdfrwt>
<totfact> 0.67985153E+04</totfact>
</mgrwt>
</event>
<event>
 7    0  0.4737014E-002  0.4524943E+03  0.7546771E-02  0.1026981E+00
         21   -1    0    0  502  501  0.00000000000E+00  0.00000000000E+00  0.88610706652E+02  0.88610706652E+02  0.00000000000E+00 0. -1.
         21   -1    0    0  501  502 -0.00000000000E+00 -0.00000000000E+00 -0.57767021152E+03  0.57767021152E+03  0.00000000000E+00 0. -1.
      99926    2    1    2    0    0  0.00000000000E+00  0.00000000000E+00 -0.48905950487E+03  0.66628091817E+03  0.45249426805E+03 0.  0.
      99925    2    3    3    0    0 -0.32629853828E+02 -0.97458246610E+02 -0.24767228240E+03  0.37562972436E+03  0.26304621868E+03 0.  0.
         25    1    4    4    0    0  0.23451741144E+02 -0.39137887408E+02 -0.12530789903E+03  0.18284238035E+03  0.12509000000E+03 0.  0.
         25    1    3    3    0    0  0.32629853828E+02  0.97458246610E+02 -0.24138722247E+03  0.29065119381E+03  0.12509000000E+03 0.  0.
         25    1    4    4    0    0 -0.56081594972E+02 -0.58320359202E+02 -0.12236438337E+03  0.19278734401E+03  0.12509000000E+03 0.  0.
<mgrwt>
<rscale>  2 0.45249427E+03</rscale>
<asrwt>0</asrwt>
<pdfrwt beam="1">  1       21 0.13030987E-01 0.45249427E+03</pdfrwt>
<pdfrwt beam="2">  1       21 0.84951500E-01 0.45249427E+03</pdfrwt>
<totfact> 0.55867563E+04</totfact>
</mgrwt>
</event>
<event>
 7    0  0.4737014E-002  0.4523957E+03  0.7546771E-02  0.1027010E+00
         21   -1    0    0  502  501  0.00000000000E+00  0.00000000000E+00  0.17820565385E+03  0.17820565385E+03  0.00000000000E+00 0.  1.
         21   -1    0    0  501  502 -0.00000000000E+00 -0.00000000000E+00 -0.28711471000E+03  0.28711471000E+03  0.00000000000E+00 0.  1.
      99926    2    1    2    0    0  0.17763568394E-14 -0.88817841970E-15 -0.10890905615E+03  0.46532036385E+03  0.45239568798E+03 0.  0.
      99925    2    3    3    0    0 -0.27853437785E+01  0.40048617926E+01  0.43515587273E+02  0.26807793160E+03  0.26447754917E+03 0.  0.
         25    1    3    3    0    0  0.27853437785E+01 -0.40048617926E+01 -0.15242464342E+03  0.19724243225E+03  0.12509000000E+03 0.  0.
         25    1    4    4    0    0  0.18548823428E+02 -0.14976080679E+02 -0.12744270867E+02  0.12797760110E+03  0.12509000000E+03 0.  0.
         25    1    4    4    0    0 -0.21334167207E+02  0.18980942472E+02  0.56259858141E+02  0.14010033050E+03  0.12509000000E+03 0.  0.
<mgrwt>
<rscale>  2 0.45239569E+03</rscale>
<asrwt>0</asrwt>
<pdfrwt beam="1">  1       21 0.26206714E-01 0.45239569E+03</pdfrwt>
<pdfrwt beam="2">  1       21 0.42222751E-01 0.45239569E+03</pdfrwt>
<totfact> 0.69204130E+04</totfact>
</mgrwt>
</event>
<event>
 7    0  0.4737014E-002  0.4409280E+03  0.7546771E-02  0.1030462E+00
         21   -1    0    0  502  501  0.00000000000E+00  0.00000000000E+00  0.62786674775E+03  0.62786674775E+03  0.00000000000E+00 0. -1.
         21   -1    0    0  501  502 -0.00000000000E+00 -0.00000000000E+00 -0.77411939622E+02  0.77411939622E+02  0.00000000000E+00 0. -1.
      99926    2    1    2    0    0 -0.35527136788E-14  0.00000000000E+00  0.55045480813E+03  0.70527868737E+03  0.44092803389E+03 0.  0.
      99925    2    3    3    0    0  0.26440677541E+02 -0.68795753567E+02  0.24434441846E+03  0.36648222355E+03  0.26300771891E+03 0.  0.
         25    1    3    3    0    0 -0.26440677541E+02  0.68795753567E+02  0.30611038966E+03  0.33879646382E+03  0.12509000000E+03 0.  0.
         25    1    4    4    0    0 -0.22781194489E+02 -0.39592313475E+02  0.14450278664E+03  0.19650724556E+03  0.12509000000E+03 0.  0.
         25    1    4    4    0    0  0.49221872030E+02 -0.29203440092E+02  0.99841631823E+02  0.16997497800E+03  0.12509000000E+03 0.  0.
<mgrwt>
<rscale>  2 0.44092803E+03</rscale>
<asrwt>0</asrwt>
<pdfrwt beam="1">  1       21 0.92333342E-01 0.44092803E+03</pdfrwt>
<pdfrwt beam="2">  1       21 0.11384109E-01 0.44092803E+03</pdfrwt>
<totfact> 0.58869877E+04</totfact>
</mgrwt>
</event>
<event>
 7    0  0.4737014E-002  0.4517348E+03  0.7546771E-02  0.1027206E+00
         21   -1    0    0  502  501  0.00000000000E+00  0.00000000000E+00  0.13580493546E+03  0.13580493546E+03  0.00000000000E+00 0.  1.
         21   -1    0    0  501  502 -0.00000000000E+00 -0.00000000000E+00 -0.37565700232E+03  0.37565700232E+03  0.00000000000E+00 0.  1.
      99926    2    1    2    0    0  0.35527136788E-14  0.00000000000E+00 -0.23985206686E+03  0.51146193778E+03  0.45173476711E+03 0.  0.
      99925    2    3    3    0    0 -0.17673982620E+02 -0.10781073655E+03 -0.13747397595E+03  0.31636117875E+03  0.26315352321E+03 0.  0.
         25    1    4    4    0    0  0.29198181485E+02 -0.36828490461E+02 -0.62139477904E+02  0.14736924484E+03  0.12509000000E+03 0.  0.
         25    1    4    4    0    0 -0.46872164105E+02 -0.70982246091E+02 -0.75334498049E+02  0.16899193390E+03  0.12509000000E+03 0.  0.
         25    1    3    3    0    0  0.17673982620E+02  0.10781073655E+03 -0.10237809091E+03  0.19510075903E+03  0.12509000000E+03 0.  0.
<mgrwt>
<rscale>  2 0.45173477E+03</rscale>
<asrwt>0</asrwt>
<pdfrwt beam="1">  1       21 0.19971314E-01 0.45173477E+03</pdfrwt>
<pdfrwt beam="2">  1       21 0.55243677E-01 0.45173477E+03</pdfrwt>
<totfact> 0.66170711E+04</totfact>
</mgrwt>
</event>
<event>
 7    0  0.4737014E-002  0.4575110E+03  0.7546771E-02  0.1025506E+00
         21   -1    0    0  502  501  0.00000000000E+00  0.00000000000E+00  0.11327378459E+03  0.11327378459E+03  0.00000000000E+00 0. -1.
         21   -1    0    0  501  502 -0.00000000000E+00 -0.00000000000E+00 -0.46196994994E+03  0.46196994994E+03  0.00000000000E+00 0. -1.
      99926    2    1    2    0    0  0.00000000000E+00  0.00000000000E+00 -0.34869616536E+03  0.57524373453E+03  0.45751102542E+03 0.  0.
      99925    2    3    3    0    0 -0.61831465694E+02  0.36566606699E+02 -0.33283156495E+03  0.43012502271E+03  0.26281255232E+03 0.  0.
         25    1    4    4    0    0 -0.76974241951E+01 -0.13745445955E+02 -0.17384986485E+03  0.21475444403E+03  0.12509000000E+03 0.  0.
         25    1    4    4    0    0 -0.54134041499E+02  0.50312052653E+02 -0.15898170010E+03  0.21537057867E+03  0.12509000000E+03 0.  0.
         25    1    3    3    0    0  0.61831465694E+02 -0.36566606699E+02 -0.15864600410E+02  0.14511871182E+03  0.12509000000E+03 0.  0.
<mgrwt>
<rscale>  2 0.45751103E+03</rscale>
<asrwt>0</asrwt>
<pdfrwt beam="1">  1       21 0.16657909E-01 0.45751103E+03</pdfrwt>
<pdfrwt beam="2">  1       21 0.67936758E-01 0.45751103E+03</pdfrwt>
<totfact> 0.59047459E+04</totfact>
</mgrwt>
</event>
<event>
 7    0  0.4737014E-002  0.4506450E+03  0.7546771E-02  0.1027530E+00
         21   -1    0    0  502  501  0.00000000000E+00  0.00000000000E+00  0.36144020055E+03  0.36144020055E+03  0.00000000000E+00 0.  1.
         21   -1    0    0  501  502 -0.00000000000E+00 -0.00000000000E+00 -0.14046647065E+03  0.14046647065E+03  0.00000000000E+00 0.  1.
      99926    2    1    2    0    0  0.00000000000E+00  0.00000000000E+00  0.22097372990E+03  0.50190667120E+03  0.45064500140E+03 0.  0.
      99925    2    3    3    0    0 -0.26861064946E+02 -0.10539055794E+03  0.14712723734E+03  0.32044180111E+03  0.26307382504E+03 0.  0.
         25    1    4    4    0    0 -0.45630024053E+02 -0.49797696903E+02  0.46706827927E+02  0.14963604374E+03  0.12509000000E+03 0.  0.
         25    1    4    4    0    0  0.18768959107E+02 -0.55592861035E+02  0.10042040941E+03  0.17080575737E+03  0.12509000000E+03 0.  0.
         25    1    3    3    0    0  0.26861064946E+02  0.10539055794E+03  0.73846492559E+02  0.18146487009E+03  0.12509000000E+03 0.  0.
<mgrwt>
<rscale>  2 0.45064500E+03</rscale>
<asrwt>0</asrwt>
<pdfrwt beam="1">  1       21 0.53152971E-01 0.45064500E+03</pdfrwt>
<pdfrwt beam="2">  1       21 0.20656834E-01 0.45064500E+03</pdfrwt>
<totfact> 0.67438097E+04</totfact>
</mgrwt>
</event>
<event>
 7    0  0.4737014E-002  0.4906965E+03  0.7546771E-02  0.1016236E+00
         21   -1    0    0  502  501  0.00000000000E+00  0.00000000000E+00  0.64022422199E+02  0.64022422199E+02  0.00000000000E+00 0. -1.
         21   -1    0    0  501  502 -0.00000000000E+00 -0.00000000000E+00 -0.94022923120E+03  0.94022923120E+03  0.00000000000E+00 0. -1.
      99926    2    1    2    0    0 -0.71054273576E-14  0.00000000000E+00 -0.87620680900E+03  0.10042516534E+04  0.49069645527E+03 0.  0.
      99925    2    3    3    0    0 -0.52046682624E+02  0.93447191003E+02 -0.33913253842E+03  0.44252439316E+03  0.26339272056E+03 0.  0.
         25    1    3    3    0    0  0.52046682624E+02 -0.93447191003E+02 -0.53707427058E+03  0.56172726024E+03  0.12509000000E+03 0.  0.
         25    1    4    4    0    0  0.32191804973E+01  0.14382758828E+02 -0.16160051571E+03  0.20488890076E+03  0.12509000000E+03 0.  0.
         25    1    4    4    0    0 -0.55265863121E+02  0.79064432175E+02 -0.17753202271E+03  0.23763549240E+03  0.12509000000E+03 0.  0.
<mgrwt>
<rscale>  2 0.49069646E+03</rscale>
<asrwt>0</asrwt>
<pdfrwt beam="1">  1       21 0.94150640E-02 0.49069646E+03</pdfrwt>
<pdfrwt beam="2">  1       21 0.13826898E+00 0.49069646E+03</pdfrwt>
<totfact> 0.29787007E+04</totfact>
</mgrwt>
</event>
<event>
 7    0  0.4737014E-002  0.4567503E+03  0.7546771E-02  0.1025728E+00
         21   -1    0    0  502  501  0.00000000000E+00  0.00000000000E+00  0.39831131500E+03  0.39831131500E+03  0.00000000000E+00 0. -1.
         21   -1    0    0  501  502 -0.00000000000E+00 -0.00000000000E+00 -0.13094082946E+03  0.13094082946E+03  0.00000000000E+00 0. -1.
      99926    2    1    2    0    0  0.14210854715E-13 -0.35527136788E-14  0.26737048554E+03  0.52925214446E+03  0.45675032116E+03 0.  0.
      99925    2    3    3    0    0 -0.11008722353E+03 -0.20499601957E+02  0.19733737686E+03  0.34734124628E+03  0.26299138883E+03 0.  0.
         25    1    4    4    0    0 -0.76493503934E+02 -0.29940132665E+02  0.14158603328E+03  0.20601403012E+03  0.12509000000E+03 0.  0.
         25    1    4    4    0    0 -0.33593719600E+02  0.94405307077E+01  0.55751343580E+02  0.14132721616E+03  0.12509000000E+03 0.  0.
         25    1    3    3    0    0  0.11008722353E+03  0.20499601957E+02  0.70033108682E+02  0.18191089818E+03  0.12509000000E+03 0.  0.
<mgrwt>
<rscale>  2 0.45675032E+03</rscale>
<asrwt>0</asrwt>
<pdfrwt beam="1">  1       21 0.58575193E-01 0.45675032E+03</pdfrwt>
<pdfrwt beam="2">  1       21 0.19256004E-01 0.45675032E+03</pdfrwt>
<totfact> 0.62387142E+04</totfact>
</mgrwt>
</event>
<event>
 7    0  0.4737014E-002  0.4552659E+03  0.7546771E-02  0.1026163E+00
         21   -1    0    0  502  501  0.00000000000E+00  0.00000000000E+00  0.13558310955E+03  0.13558310955E+03  0.00000000000E+00 0.  1.
         21   -1    0    0  501  502 -0.00000000000E+00 -0.00000000000E+00 -0.38217707551E+03  0.38217707551E+03  0.00000000000E+00 0.  1.
      99926    2    1    2    0    0  0.00000000000E+00 -0.22204460493E-14 -0.24659396597E+03  0.51776018506E+03  0.45526588405E+03 0.  0.
      99925    2    3    3    0    0  0.88905375407E+02  0.35169747659E+01 -0.75175155555E+02  0.28765487971E+03  0.26301614194E+03 0.  0.
         25    1    4    4    0    0  0.40219723571E+02 -0.27919680417E+02 -0.65512718335E+02  0.14945420396E+03  0.12509000000E+03 0.  0.
         25    1    3    3    0    0 -0.88905375407E+02 -0.35169747659E+01 -0.17141881041E+03  0.23010530535E+03  0.12509000000E+03 0.  0.
         25    1    4    4    0    0  0.48685651836E+02  0.31436655183E+02 -0.96624372206E+01  0.13820067575E+03  0.12509000000E+03 0.  0.
<mgrwt>
<rscale>  2 0.45526588E+03</rscale>
<asrwt>0</asrwt>
<pdfrwt beam="1">  1       21 0.19938693E-01 0.45526588E+03</pdfrwt>
<pdfrwt beam="2">  1       21 0.56202510E-01 0.45526588E+03</pdfrwt>
<totfact> 0.63905209E+04</totfact>
</mgrwt>
</event>
<event>
 7    0  0.4737014E-002  0.4689325E+03  0.7546771E-02  0.1022222E+00
         21   -1    0    0  502  501  0.00000000000E+00  0.00000000000E+00  0.40773688741E+03  0.40773688741E+03  0.00000000000E+00 0. -1.
         21   -1    0    0  501  502 -0.00000000000E+00 -0.00000000000E+00 -0.13482818255E+03  0.13482818255E+03  0.00000000000E+00 0. -1.
      99926    2    1    2    0    0  0.00000000000E+00  0.00000000000E+00  0.27290870487E+03  0.54256506996E+03  0.46893250468E+03 0.  0.
      99925    2    3    3    0    0 -0.82942586583E+02 -0.64901712923E+02  0.24890020858E+03  0.37729068899E+03  0.26325889379E+03 0.  0.
         25    1    4    4    0    0 -0.50595765724E+02 -0.50789048738E+01  0.16029804890E+03  0.20959174451E+03  0.12509000000E+03 0.  0.
         25    1    4    4    0    0 -0.32346820859E+02 -0.59822808049E+02  0.88602159676E+02  0.16769894449E+03  0.12509000000E+03 0.  0.
         25    1    3    3    0    0  0.82942586583E+02  0.64901712923E+02  0.24008496292E+02  0.16527438097E+03  0.12509000000E+03 0.  0.
<mgrwt>
<rscale>  2 0.46893250E+03</rscale>
<asrwt>0</asrwt>
<pdfrwt beam="1">  1       21 0.59961307E-01 0.46893250E+03</pdfrwt>
<pdfrwt beam="2">  1       21 0.19827674E-01 0.46893250E+03</pdfrwt>
<totfact> 0.55928524E+04</totfact>
</mgrwt>
</event>
<event>
 7    0  0.4737014E-002  0.4544588E+03  0.7546771E-02  0.1026401E+00
         21   -1    0    0  502  501  0.00000000000E+00  0.00000000000E+00  0.24724448306E+03  0.24724448306E+03  0.00000000000E+00 0. -1.
         21   -1    0    0  501  502 -0.00000000000E+00 -0.00000000000E+00 -0.20883460820E+03  0.20883460820E+03  0.00000000000E+00 0. -1.
      99926    2    1    2    0    0  0.17763568394E-14 -0.14210854715E-13  0.38409874856E+02  0.45607909126E+03  0.45445881992E+03 0.  0.
      99925    2    3    3    0    0 -0.12370364693E+02 -0.10541764783E+03 -0.13705671779E+02  0.28394703528E+03  0.26300602085E+03 0.  0.
         25    1    4    4    0    0  0.84226707278E+01 -0.90916260418E+02 -0.20025890512E+02  0.15615777977E+03  0.12509000000E+03 0.  0.
         25    1    4    4    0    0 -0.20793035421E+02 -0.14501387416E+02  0.63202187324E+01  0.12778925551E+03  0.12509000000E+03 0.  0.
         25    1    3    3    0    0  0.12370364693E+02  0.10541764783E+03  0.52115546636E+02  0.17213205599E+03  0.12509000000E+03 0.  0.
<mgrwt>
<rscale>  2 0.45445882E+03</rscale>
<asrwt>0</asrwt>
<pdfrwt beam="1">  1       21 0.36359483E-01 0.45445882E+03</pdfrwt>
<pdfrwt beam="2">  1       21 0.30710972E-01 0.45445882E+03</pdfrwt>
<totfact> 0.68763272E+04</totfact>
</mgrwt>
</event>
<event>
 7    0  0.4737014E-002  0.4533937E+03  0.7546771E-02  0.1026715E+00
         21   -1    0    0  502  501  0.00000000000E+00  0.00000000000E+00  0.16343101033E+03  0.16343101033E+03  0.00000000000E+00 0.  1.
         21   -1    0    0  501  502 -0.00000000000E+00 -0.00000000000E+00 -0.31445349793E+03  0.31445349793E+03  0.00000000000E+00 0.  1.
      99926    2    1    2    0    0  0.00000000000E+00  0.00000000000E+00 -0.15102248760E+03  0.47788450826E+03  0.45339366060E+03 0.  0.
      99925    2    3    3    0    0 -0.98294761226E+02 -0.39368989278E+02 -0.13248004597E+03  0.31295086207E+03  0.26301236110E+03 0.  0.
         25    1    4    4    0    0 -0.82255653738E+01 -0.15542877826E+02 -0.44843679753E+02  0.13404366710E+03  0.12509000000E+03 0.  0.
         25    1    3    3    0    0  0.98294761226E+02  0.39368989278E+02 -0.18542441629E+02  0.16493364618E+03  0.12509000000E+03 0.  0.
         25    1    4    4    0    0 -0.90069195852E+02 -0.23826111452E+02 -0.87636366218E+02  0.17890719497E+03  0.12509000000E+03 0.  0.
<mgrwt>
<rscale>  2 0.45339366E+03</rscale>
<asrwt>0</asrwt>
<pdfrwt beam="1">  1       21 0.24033972E-01 0.45339366E+03</pdfrwt>
<pdfrwt beam="2">  1       21 0.46243161E-01 0.45339366E+03</pdfrwt>
<totfact> 0.67713632E+04</totfact>
</mgrwt>
</event>
<event>
 7    0  0.4737014E-002  0.4506716E+03  0.7546771E-02  0.1027522E+00
         21   -1    0    0  502  501  0.00000000000E+00  0.00000000000E+00  0.36830965443E+03  0.36830965443E+03  0.00000000000E+00 0. -1.
         21   -1    0    0  501  502 -0.00000000000E+00 -0.00000000000E+00 -0.13786287295E+03  0.13786287295E+03  0.00000000000E+00 0. -1.
      99926    2    1    2    0    0  0.00000000000E+00  0.00000000000E+00  0.23044678147E+03  0.50617252738E+03  0.45067161923E+03 0.  0.
      99925    2    3    3    0    0  0.10143642740E+03  0.18164478219E+02  0.10546771833E+03  0.30151043662E+03  0.26299392903E+03 0.  0.
         25    1    3    3    0    0 -0.10143642740E+03 -0.18164478219E+02  0.12497906315E+03  0.20466209076E+03  0.12509000000E+03 0.  0.
         25    1    4    4    0    0  0.82152367386E+02 -0.75479726470E+01  0.80025838135E+02  0.16987532554E+03  0.12509000000E+03 0.  0.
         25    1    4    4    0    0  0.19284060009E+02  0.25712450866E+02  0.25441880194E+02  0.13163511108E+03  0.12509000000E+03 0.  0.
<mgrwt>
<rscale>  2 0.45067162E+03</rscale>
<asrwt>0</asrwt>
<pdfrwt beam="1">  1       21 0.54163184E-01 0.45067162E+03</pdfrwt>
<pdfrwt beam="2">  1       21 0.20273952E-01 0.45067162E+03</pdfrwt>
<totfact> 0.67115275E+04</totfact>
</mgrwt>
</event>
<event>
 7    0  0.4737014E-002  0.4596334E+03  0.7546771E-02  0.1024888E+00
         21   -1    0    0  502  501  0.00000000000E+00  0.00000000000E+00  0.46997792781E+03  0.46997792781E+03  0.00000000000E+00 0. -1.
         21   -1    0    0  501  502 -0.00000000000E+00 -0.00000000000E+00 -0.11237915556E+03  0.11237915556E+03  0.00000000000E+00 0. -1.
      99926    2    1    2    0    0  0.00000000000E+00  0.00000000000E+00  0.35759877225E+03  0.58235708337E+03  0.45963343072E+03 0.  0.
      99925    2    3    3    0    0 -0.80088025758E+02  0.78787436449E+02  0.26759422023E+03  0.39164819659E+03  0.26298306254E+03 0.  0.
         25    1    4    4    0    0 -0.56947219828E+02  0.43655857472E+02  0.88569320958E+02  0.16923608496E+03  0.12509000000E+03 0.  0.
         25    1    4    4    0    0 -0.23140805930E+02  0.35131578977E+02  0.17902489927E+03  0.22241211163E+03  0.12509000000E+03 0.  0.
         25    1    3    3    0    0  0.80088025758E+02 -0.78787436449E+02  0.90004552022E+02  0.19070888678E+03  0.12509000000E+03 0.  0.
<mgrwt>
<rscale>  2 0.45963343E+03</rscale>
<asrwt>0</asrwt>
<pdfrwt beam="1">  1       21 0.69114401E-01 0.45963343E+03</pdfrwt>
<pdfrwt beam="2">  1       21 0.16526347E-01 0.45963343E+03</pdfrwt>
<totfact> 0.57637219E+04</totfact>
</mgrwt>
</event>
<event>
 7    0  0.4737014E-002  0.4539392E+03  0.7546771E-02  0.1026554E+00
         21   -1    0    0  502  501  0.00000000000E+00  0.00000000000E+00  0.16735504537E+03  0.16735504537E+03  0.00000000000E+00 0. -1.
         21   -1    0    0  501  502 -0.00000000000E+00 -0.00000000000E+00 -0.30781974944E+03  0.30781974944E+03  0.00000000000E+00 0. -1.
      99926    2    1    2    0    0  0.00000000000E+00 -0.14210854715E-13 -0.14046470407E+03  0.47517479481E+03  0.45393915069E+03 0.  0.
      99925    2    3    3    0    0 -0.22270158561E+02 -0.94232279107E+02 -0.28775835682E+02  0.28153184036E+03  0.26278593194E+03 0.  0.
         25    1    4    4    0    0 -0.37299837380E+02 -0.15821414539E+02 -0.18448546448E+02  0.13277594659E+03  0.12509000000E+03 0.  0.
         25    1    4    4    0    0  0.15029678819E+02 -0.78410864569E+02 -0.10327289234E+02  0.14875589377E+03  0.12509000000E+03 0.  0.
         25    1    3    3    0    0  0.22270158561E+02  0.94232279107E+02 -0.11168886838E+03  0.19364295445E+03  0.12509000000E+03 0.  0.
<mgrwt>
<rscale>  2 0.45393915E+03</rscale>
<asrwt>0</asrwt>
<pdfrwt beam="1">  1       21 0.24611037E-01 0.45393915E+03</pdfrwt>
<pdfrwt beam="2">  1       21 0.45267609E-01 0.45393915E+03</pdfrwt>
<totfact> 0.67620561E+04</totfact>
</mgrwt>
</event>
<event>
 7    0  0.4737014E-002  0.4618101E+03  0.7546771E-02  0.1024258E+00
         21   -1    0    0  502  501  0.00000000000E+00  0.00000000000E+00  0.92607760226E+03  0.92607760226E+03  0.00000000000E+00 0.  1.
         21   -1    0    0  501  502 -0.00000000000E+00 -0.00000000000E+00 -0.57573093564E+02  0.57573093564E+02  0.00000000000E+00 0.  1.
      99926    2    1    2    0    0 -0.14210854715E-13  0.00000000000E+00  0.86850450870E+03  0.98365069583E+03  0.46181014472E+03 0.  0.
      99925    2    3    3    0    0 -0.10894834478E+03 -0.18098724282E+02  0.64001609358E+03  0.70071648158E+03  0.26303171265E+03 0.  0.
         25    1    4    4    0    0 -0.63309455461E+02  0.13447825978E+02  0.40466689407E+03  0.42847606051E+03  0.12509000000E+03 0.  0.
         25    1    4    4    0    0 -0.45638889317E+02 -0.31546550259E+02  0.23534919951E+03  0.27224042107E+03  0.12509000000E+03 0.  0.
         25    1    3    3    0    0  0.10894834478E+03  0.18098724282E+02  0.22848841511E+03  0.28293421425E+03  0.12509000000E+03 0.  0.
<mgrwt>
<rscale>  2 0.46181014E+03</rscale>
<asrwt>0</asrwt>
<pdfrwt beam="1">  1       21 0.13618787E+00 0.46181014E+03</pdfrwt>
<pdfrwt beam="2">  1       21 0.84666320E-02 0.46181014E+03</pdfrwt>
<totfact> 0.37756833E+04</totfact>
</mgrwt>
</event>
<event>
 7    0  0.4737014E-002  0.4499273E+03  0.7546771E-02  0.1027744E+00
         21   -1    0    0  502  501  0.00000000000E+00  0.00000000000E+00  0.72581245201E+03  0.72581245201E+03  0.00000000000E+00 0. -1.
         21   -1    0    0  501  502 -0.00000000000E+00 -0.00000000000E+00 -0.69726891975E+02  0.69726891975E+02  0.00000000000E+00 0. -1.
      99926    2    1    2    0    0  0.00000000000E+00  0.71054273576E-14  0.65608556003E+03  0.79553934398E+03  0.44992731162E+03 0.  0.
      99925    2    3    3    0    0 -0.26834717283E+02 -0.61435176387E+02  0.26443456959E+03  0.37896715412E+03  0.26305147664E+03 0.  0.
         25    1    4    4    0    0 -0.12656382846E+02  0.61007015625E+01  0.97318142934E+02  0.15910918148E+03  0.12509000000E+03 0.  0.
         25    1    3    3    0    0  0.26834717283E+02  0.61435176387E+02  0.39165099045E+03  0.41657218986E+03  0.12509000000E+03 0.  0.
         25    1    4    4    0    0 -0.14178334437E+02 -0.67535877949E+02  0.16711642665E+03  0.21985797264E+03  0.12509000000E+03 0.  0.
<mgrwt>
<rscale>  2 0.44992731E+03</rscale>
<asrwt>0</asrwt>
<pdfrwt beam="1">  1       21 0.10673712E+00 0.44992731E+03</pdfrwt>
<pdfrwt beam="2">  1       21 0.10253955E-01 0.44992731E+03</pdfrwt>
<totfact> 0.49940010E+04</totfact>
</mgrwt>
</event>
<event>
 7    0  0.4737014E-002  0.4569267E+03  0.7546771E-02  0.1025676E+00
         21   -1    0    0  502  501  0.00000000000E+00  0.00000000000E+00  0.15619850238E+04  0.15619850238E+04  0.00000000000E+00 0. -1.
         21   -1    0    0  501  502 -0.00000000000E+00 -0.00000000000E+00 -0.33416141405E+02  0.33416141405E+02  0.00000000000E+00 0. -1.
      99926    2    1    2    0    0  0.00000000000E+00  0.17763568394E-14  0.15285688824E+04  0.15954011652E+04  0.45692674436E+03 0.  0.
      99925    2    3    3    0    0 -0.61181202577E+02  0.92317939353E+01  0.62182477466E+03  0.67798045986E+03  0.26298876024E+03 0.  0.
         25    1    3    3    0    0  0.61181202577E+02 -0.92317939353E+01  0.90674410775E+03  0.91742070536E+03  0.12509000000E+03 0.  0.
         25    1    4    4    0    0 -0.63784632395E+02  0.16499049407E+02  0.38314444850E+03  0.40839671213E+03  0.12509000000E+03 0.  0.
         25    1    4    4    0    0  0.26034298176E+01 -0.72672554720E+01  0.23868032615E+03  0.26958374773E+03  0.12509000000E+03 0.  0.
<mgrwt>
<rscale>  2 0.45692674E+03</rscale>
<asrwt>0</asrwt>
<pdfrwt beam="1">  1       21 0.22970363E+00 0.45692674E+03</pdfrwt>
<pdfrwt beam="2">  1       21 0.49141395E-02 0.45692674E+03</pdfrwt>
<totfact> 0.21214734E+04</totfact>
</mgrwt>
</event>
<event>
 7    0  0.4737014E-002  0.4480762E+03  0.7546771E-02  0.1028297E+00
         21   -1    0    0  502  501  0.00000000000E+00  0.00000000000E+00  0.12723484736E+03  0.12723484736E+03  0.00000000000E+00 0.  1.
         21   -1    0    0  501  502 -0.00000000000E+00 -0.00000000000E+00 -0.39449149967E+03  0.39449149967E+03  0.00000000000E+00 0.  1.
      99926    2    1    2    0    0  0.00000000000E+00  0.00000000000E+00 -0.26725665231E+03  0.52172634703E+03  0.44807617988E+03 0.  0.
      99925    2    3    3    0    0 -0.10000167502E+03 -0.78439212426E+01 -0.12738015344E+03  0.30894757660E+03  0.26298486551E+03 0.  0.
         25    1    4    4    0    0 -0.84995866945E+01  0.34015096188E+01 -0.46497843041E+02  0.13376610463E+03  0.12509000000E+03 0.  0.
         25    1    4    4    0    0 -0.91502088329E+02 -0.11245430861E+02 -0.80882310395E+02  0.17518147196E+03  0.12509000000E+03 0.  0.
         25    1    3    3    0    0  0.10000167502E+03  0.78439212426E+01 -0.13987649888E+03  0.21277877043E+03  0.12509000000E+03 0.  0.
<mgrwt>
<rscale>  2 0.44807618E+03</rscale>
<asrwt>0</asrwt>
<pdfrwt beam="1">  1       21 0.18711007E-01 0.44807618E+03</pdfrwt>
<pdfrwt beam="2">  1       21 0.58013455E-01 0.44807618E+03</pdfrwt>
<totfact> 0.67393595E+04</totfact>
</mgrwt>
</event>
<event>
 7    0  0.4737014E-002  0.4547811E+03  0.7546771E-02  0.1026306E+00
         21   -1    0    0  502  501  0.00000000000E+00  0.00000000000E+00  0.15926731491E+03  0.15926731491E+03  0.00000000000E+00 0.  1.
         21   -1    0    0  501  502 -0.00000000000E+00 -0.00000000000E+00 -0.32465204424E+03  0.32465204424E+03  0.00000000000E+00 0.  1.
      99926    2    1    2    0    0  0.00000000000E+00  0.00000000000E+00 -0.16538472933E+03  0.48391935916E+03  0.45478108742E+03 0.  0.
      99925    2    3    3    0    0  0.71237665398E+02  0.66258595329E+02 -0.43140781512E+02  0.28377916503E+03  0.26306744582E+03 0.  0.
         25    1    4    4    0    0 -0.47560234073E+01  0.41357779852E+02 -0.15249163891E+02  0.13271447100E+03  0.12509000000E+03 0.  0.
         25    1    4    4    0    0  0.75993688806E+02  0.24900815477E+02 -0.27891617621E+02  0.15106469403E+03  0.12509000000E+03 0.  0.
         25    1    3    3    0    0 -0.71237665398E+02 -0.66258595329E+02 -0.12224394782E+03  0.20014019413E+03  0.12509000000E+03 0.  0.
<mgrwt>
<rscale>  2 0.45478109E+03</rscale>
<asrwt>0</asrwt>
<pdfrwt beam="1">  1       21 0.23421664E-01 0.45478109E+03</pdfrwt>
<pdfrwt beam="2">  1       21 0.47742947E-01 0.45478109E+03</pdfrwt>
<totfact> 0.66531433E+04</totfact>
</mgrwt>
</event>
<event>
 7    0  0.4737014E-002  0.4546844E+03  0.7546771E-02  0.1026334E+00
         21   -1    0    0  502  501  0.00000000000E+00  0.00000000000E+00  0.79081708241E+02  0.79081708241E+02  0.00000000000E+00 0. -1.
         21   -1    0    0  501  502 -0.00000000000E+00 -0.00000000000E+00 -0.65355785590E+03  0.65355785590E+03  0.00000000000E+00 0. -1.
      99926    2    1    2    0    0  0.00000000000E+00  0.00000000000E+00 -0.57447614766E+03  0.73263956414E+03  0.45468438143E+03 0.  0.
      99925    2    3    3    0    0 -0.29908610517E+02  0.78604069724E+02 -0.24011227365E+03  0.36587010916E+03  0.26293327683E+03 0.  0.
         25    1    4    4    0    0 -0.29059737261E+02  0.84621477543E+01 -0.14450329908E+03  0.19350655756E+03  0.12509000000E+03 0.  0.
         25    1    4    4    0    0 -0.84887325636E+00  0.70141921969E+02 -0.95608974568E+02  0.17236355160E+03  0.12509000000E+03 0.  0.
         25    1    3    3    0    0  0.29908610517E+02 -0.78604069724E+02 -0.33436387402E+03  0.36676945498E+03  0.12509000000E+03 0.  0.
<mgrwt>
<rscale>  2 0.45468438E+03</rscale>
<asrwt>0</asrwt>
<pdfrwt beam="1">  1       21 0.11629663E-01 0.45468438E+03</pdfrwt>
<pdfrwt beam="2">  1       21 0.96111451E-01 0.45468438E+03</pdfrwt>
<totfact> 0.51293614E+04</totfact>
</mgrwt>
</event>
<event>
 7    0  0.4737014E-002  0.4665437E+03  0.7546771E-02  0.1022900E+00
         21   -1    0    0  502  501  0.00000000000E+00  0.00000000000E+00  0.68762480800E+03  0.68762480800E+03  0.00000000000E+00 0.  1.
         21   -1    0    0  501  502 -0.00000000000E+00 -0.00000000000E+00 -0.79135839628E+02  0.79135839628E+02  0.00000000000E+00 0.  1.
      99926    2    1    2    0    0  0.00000000000E+00  0.00000000000E+00  0.60848896837E+03  0.76676064763E+03  0.46654374513E+03 0.  0.
      99925    2    3    3    0    0 -0.42622550945E+02  0.72026185748E+02  0.52869936927E+03  0.59641293996E+03  0.26302265797E+03 0.  0.
         25    1    3    3    0    0  0.42622550945E+02 -0.72026185748E+02  0.79789599103E+02  0.17034770767E+03  0.12509000000E+03 0.  0.
         25    1    4    4    0    0 -0.31356184862E+02  0.65785192564E+02  0.34127119015E+03  0.37070801882E+03  0.12509000000E+03 0.  0.
         25    1    4    4    0    0 -0.11266366083E+02  0.62409931839E+01  0.18742817912E+03  0.22570492115E+03  0.12509000000E+03 0.  0.
<mgrwt>
<rscale>  2 0.46654375E+03</rscale>
<asrwt>0</asrwt>
<pdfrwt beam="1">  1       21 0.10112129E+00 0.46654375E+03</pdfrwt>
<pdfrwt beam="2">  1       21 0.11637624E-01 0.46654375E+03</pdfrwt>
<totfact> 0.45178927E+04</totfact>
</mgrwt>
</event>
<event>
 7    0  0.4737014E-002  0.4509804E+03  0.7546771E-02  0.1027430E+00
         21   -1    0    0  502  501  0.00000000000E+00  0.00000000000E+00  0.11641379641E+03  0.11641379641E+03  0.00000000000E+00 0.  1.
         21   -1    0    0  501  502 -0.00000000000E+00 -0.00000000000E+00 -0.43676802566E+03  0.43676802566E+03  0.00000000000E+00 0.  1.
      99926    2    1    2    0    0 -0.14210854715E-13  0.00000000000E+00 -0.32035422925E+03  0.55318182208E+03  0.45098037217E+03 0.  0.
      99925    2    3    3    0    0  0.84045383094E+02 -0.58662299446E+02 -0.24819547334E+03  0.37609628921E+03  0.26332970584E+03 0.  0.
         25    1    4    4    0    0  0.40104218978E+01 -0.27351585010E+02 -0.87978585460E+02  0.15540891958E+03  0.12509000000E+03 0.  0.
         25    1    3    3    0    0 -0.84045383094E+02  0.58662299446E+02 -0.72158755905E+02  0.17708553286E+03  0.12509000000E+03 0.  0.
         25    1    4    4    0    0  0.80034961196E+02 -0.31310714436E+02 -0.16021688788E+03  0.22068736963E+03  0.12509000000E+03 0.  0.
<mgrwt>
<rscale>  2 0.45098037E+03</rscale>
<asrwt>0</asrwt>
<pdfrwt beam="1">  1       21 0.17119676E-01 0.45098037E+03</pdfrwt>
<pdfrwt beam="2">  1       21 0.64230592E-01 0.45098037E+03</pdfrwt>
<totfact> 0.63657019E+04</totfact>
</mgrwt>
</event>
<event>
 7    0  0.4737014E-002  0.4506992E+03  0.7546771E-02  0.1027514E+00
         21   -1    0    0  502  501  0.00000000000E+00  0.00000000000E+00  0.48811965439E+03  0.48811965439E+03  0.00000000000E+00 0. -1.
         21   -1    0    0  501  502 -0.00000000000E+00 -0.00000000000E+00 -0.10403689202E+03  0.10403689202E+03  0.00000000000E+00 0. -1.
      99926    2    1    2    0    0  0.00000000000E+00  0.00000000000E+00  0.38408276236E+03  0.59215654641E+03  0.45069924242E+03 0.  0.
      99925    2    3    3    0    0  0.36813379659E+01 -0.10411812757E+03  0.28551972189E+03  0.40185069315E+03  0.26288463488E+03 0.  0.
         25    1    4    4    0    0  0.43264277692E+01 -0.81876682129E+02  0.19544450690E+03  0.24610683134E+03  0.12509000000E+03 0.  0.
         25    1    3    3    0    0 -0.36813379659E+01  0.10411812757E+03  0.98563040468E+02  0.19030585326E+03  0.12509000000E+03 0.  0.
         25    1    4    4    0    0 -0.64508980325E+00 -0.22241445445E+02  0.90075214994E+02  0.15574386181E+03  0.12509000000E+03 0.  0.
<mgrwt>
<rscale>  2 0.45069924E+03</rscale>
<asrwt>0</asrwt>
<pdfrwt beam="1">  1       21 0.71782301E-01 0.45069924E+03</pdfrwt>
<pdfrwt beam="2">  1       21 0.15299543E-01 0.45069924E+03</pdfrwt>
<totfact> 0.61217988E+04</totfact>
</mgrwt>
</event>
<event>
 7    0  0.4737014E-002  0.4588692E+03  0.7546771E-02  0.1025110E+00
         21   -1    0    0  502  501  0.00000000000E+00  0.00000000000E+00  0.17623744777E+03  0.17623744777E+03  0.00000000000E+00 0.  1.
         21   -1    0    0  501  502 -0.00000000000E+00 -0.00000000000E+00 -0.29868928580E+03  0.29868928580E+03  0.00000000000E+00 0.  1.
      99926    2    1    2    0    0  0.00000000000E+00  0.00000000000E+00 -0.12245183803E+03  0.47492673356E+03  0.45886920753E+03 0.  0.
      99925    2    3    3    0    0  0.89683288676E+02 -0.35348134410E+02 -0.65478822674E+01  0.27903437043E+03  0.26177227172E+03 0.  0.
         25    1    4    4    0    0  0.44868381855E+02 -0.81669078012E+00 -0.37932650485E+02  0.13820359166E+03  0.12509000000E+03 0.  0.
         25    1    4    4    0    0  0.44814906821E+02 -0.34531443630E+02  0.31384768217E+02  0.14083077877E+03  0.12509000000E+03 0.  0.
         25    1    3    3    0    0 -0.89683288676E+02  0.35348134410E+02 -0.11590395577E+03  0.19589236314E+03  0.12509000000E+03 0.  0.
<mgrwt>
<rscale>  2 0.45886921E+03</rscale>
<asrwt>0</asrwt>
<pdfrwt beam="1">  1       21 0.25917272E-01 0.45886921E+03</pdfrwt>
<pdfrwt beam="2">  1       21 0.43924895E-01 0.45886921E+03</pdfrwt>
<totfact> 0.65051137E+04</totfact>
</mgrwt>
</event>
<event>
 7    0  0.4737014E-002  0.4521000E+03  0.7546771E-02  0.1027098E+00
         21   -1    0    0  502  501  0.00000000000E+00  0.00000000000E+00  0.16467358322E+03  0.16467358322E+03  0.00000000000E+00 0.  1.
         21   -1    0    0  501  502 -0.00000000000E+00 -0.00000000000E+00 -0.31030231070E+03  0.31030231070E+03  0.00000000000E+00 0.  1.
      99926    2    1    2    0    0  0.17763568394E-14  0.00000000000E+00 -0.14562872748E+03  0.47497589392E+03  0.45209995968E+03 0.  0.
      99925    2    3    3    0    0  0.11759742906E+02 -0.80781824332E+02 -0.16992303029E+03  0.32364276488E+03  0.26307186916E+03 0.  0.
         25    1    4    4    0    0  0.42946381952E+02 -0.51789487899E+02 -0.72474325313E+02  0.15945713753E+03  0.12509000000E+03 0.  0.
         25    1    3    3    0    0 -0.11759742906E+02  0.80781824332E+02  0.24294302819E+02  0.15133312904E+03  0.12509000000E+03 0.  0.
         25    1    4    4    0    0 -0.31186639045E+02 -0.28992336433E+02 -0.97448704982E+02  0.16418562735E+03  0.12509000000E+03 0.  0.
<mgrwt>
<rscale>  2 0.45209996E+03</rscale>
<asrwt>0</asrwt>
<pdfrwt beam="1">  1       21 0.24216704E-01 0.45209996E+03</pdfrwt>
<pdfrwt beam="2">  1       21 0.45632692E-01 0.45209996E+03</pdfrwt>
<totfact> 0.68633798E+04</totfact>
</mgrwt>
</event>
<event>
 7    0  0.4737014E-002  0.4681252E+03  0.7546771E-02  0.1022451E+00
         21   -1    0    0  502  501  0.00000000000E+00  0.00000000000E+00  0.10286970260E+03  0.10286970260E+03  0.00000000000E+00 0. -1.
         21   -1    0    0  501  502 -0.00000000000E+00 -0.00000000000E+00 -0.53256985396E+03  0.53256985396E+03  0.00000000000E+00 0. -1.
      99926    2    1    2    0    0  0.00000000000E+00  0.71054273576E-14 -0.42970015136E+03  0.63543955655E+03  0.46812520756E+03 0.  0.
      99925    2    3    3    0    0  0.59951629657E+01 -0.41244253029E+02 -0.42741526874E+03  0.50356932043E+03  0.26298520518E+03 0.  0.
         25    1    4    4    0    0 -0.30172243283E+02 -0.63861647550E+00 -0.18376919005E+03  0.22434213917E+03  0.12509000000E+03 0.  0.
         25    1    4    4    0    0  0.36167406249E+02 -0.40605636554E+02 -0.24364607869E+03  0.27922718126E+03  0.12509000000E+03 0.  0.
         25    1    3    3    0    0 -0.59951629657E+01  0.41244253029E+02 -0.22848826260E+01  0.13187023612E+03  0.12509000000E+03 0.  0.
<mgrwt>
<rscale>  2 0.46812521E+03</rscale>
<asrwt>0</asrwt>
<pdfrwt beam="1">  1       21 0.15127897E-01 0.46812521E+03</pdfrwt>
<pdfrwt beam="2">  1       21 0.78319097E-01 0.46812521E+03</pdfrwt>
<totfact> 0.51050065E+04</totfact>
</mgrwt>
</event>
<event>
 7    0  0.4737014E-002  0.4518520E+03  0.7546771E-02  0.1027171E+00
         21   -1    0    0  502  501  0.00000000000E+00  0.00000000000E+00  0.92326859593E+03  0.92326859593E+03  0.00000000000E+00 0. -1.
         21   -1    0    0  501  502 -0.00000000000E+00 -0.00000000000E+00 -0.55284617928E+02  0.55284617928E+02  0.00000000000E+00 0. -1.
      99926    2    1    2    0    0  0.00000000000E+00  0.00000000000E+00  0.86798397800E+03  0.97855321385E+03  0.45185197386E+03 0.  0.
      99925    2    3    3    0    0  0.86513154945E+02 -0.66049216192E+02  0.51019429859E+03  0.58420820282E+03  0.26297143759E+03 0.  0.
         25    1    4    4    0    0  0.52999160014E+02 -0.52423854820E+02  0.34033340625E+03  0.37017766954E+03  0.12509000000E+03 0.  0.
         25    1    3    3    0    0 -0.86513154945E+02  0.66049216192E+02  0.35778967941E+03  0.39434501103E+03  0.12509000000E+03 0.  0.
         25    1    4    4    0    0  0.33513994930E+02 -0.13625361372E+02  0.16986089234E+03  0.21403053328E+03  0.12509000000E+03 0.  0.
<mgrwt>
<rscale>  2 0.45185197E+03</rscale>
<asrwt>0</asrwt>
<pdfrwt beam="1">  1       21 0.13577478E+00 0.45185197E+03</pdfrwt>
<pdfrwt beam="2">  1       21 0.81300915E-02 0.45185197E+03</pdfrwt>
<totfact> 0.41005435E+04</totfact>
</mgrwt>
</event>
<event>
 7    0  0.4737014E-002  0.4592970E+03  0.7546771E-02  0.1024985E+00
         21   -1    0    0  502  501  0.00000000000E+00  0.00000000000E+00  0.19208626038E+03  0.19208626038E+03  0.00000000000E+00 0. -1.
         21   -1    0    0  501  502 -0.00000000000E+00 -0.00000000000E+00 -0.27455596728E+03  0.27455596728E+03  0.00000000000E+00 0. -1.
      99926    2    1    2    0    0  0.00000000000E+00 -0.71054273576E-14 -0.82469706900E+02  0.46664222766E+03  0.45929698026E+03 0.  0.
      99925    2    3    3    0    0  0.34723549275E+02 -0.59036506515E+02  0.46067078666E+02  0.27465200051E+03  0.26195517111E+03 0.  0.
         25    1    4    4    0    0  0.50852886663E+02 -0.12691396486E+02  0.12834635936E+02  0.13623260845E+03  0.12509000000E+03 0.  0.
         25    1    4    4    0    0 -0.16129337388E+02 -0.46345110029E+02  0.33232442730E+02  0.13841939206E+03  0.12509000000E+03 0.  0.
         25    1    3    3    0    0 -0.34723549275E+02  0.59036506515E+02 -0.12853678557E+03  0.19199022715E+03  0.12509000000E+03 0.  0.
<mgrwt>
<rscale>  2 0.45929698E+03</rscale>
<asrwt>0</asrwt>
<pdfrwt beam="1">  1       21 0.28247980E-01 0.45929698E+03</pdfrwt>
<pdfrwt beam="2">  1       21 0.40375877E-01 0.45929698E+03</pdfrwt>
<totfact> 0.65424890E+04</totfact>
</mgrwt>
</event>
<event>
 7    0  0.4737014E-002  0.4564217E+03  0.7546771E-02  0.1025824E+00
         21   -1    0    0  502  501  0.00000000000E+00  0.00000000000E+00  0.59303800094E+03  0.59303800094E+03  0.00000000000E+00 0. -1.
         21   -1    0    0  501  502 -0.00000000000E+00 -0.00000000000E+00 -0.87819301042E+02  0.87819301042E+02  0.00000000000E+00 0. -1.
      99926    2    1    2    0    0  0.00000000000E+00  0.00000000000E+00  0.50521869989E+03  0.68085730198E+03  0.45642165914E+03 0.  0.
      99925    2    3    3    0    0  0.61942375827E+01 -0.36200620035E+02  0.47930612854E+03  0.54793693889E+03  0.26296705245E+03 0.  0.
         25    1    4    4    0    0  0.29870330210E+02  0.54729042611E+01  0.19503720406E+03  0.23368613218E+03  0.12509000000E+03 0.  0.
         25    1    3    3    0    0 -0.61942375827E+01  0.36200620035E+02  0.25912571358E+02  0.13292036309E+03  0.12509000000E+03 0.  0.
         25    1    4    4    0    0 -0.23676092628E+02 -0.41673524296E+02  0.28426892448E+03  0.31425080670E+03  0.12509000000E+03 0.  0.
<mgrwt>
<rscale>  2 0.45642166E+03</rscale>
<asrwt>0</asrwt>
<pdfrwt beam="1">  1       21 0.87211469E-01 0.45642166E+03</pdfrwt>
<pdfrwt beam="2">  1       21 0.12914603E-01 0.45642166E+03</pdfrwt>
<totfact> 0.53355258E+04</totfact>
</mgrwt>
</event>
<event>
 7    0  0.4737014E-002  0.4532025E+03  0.7546771E-02  0.1026771E+00
         21   -1    0    0  502  501  0.00000000000E+00  0.00000000000E+00  0.82731116294E+02  0.82731116294E+02  0.00000000000E+00 0.  1.
         21   -1    0    0  501  502 -0.00000000000E+00 -0.00000000000E+00 -0.62066267189E+03  0.62066267189E+03  0.00000000000E+00 0.  1.
      99926    2    1    2    0    0  0.00000000000E+00  0.00000000000E+00 -0.53793155559E+03  0.70339378818E+03  0.45320245228E+03 0.  0.
      99925    2    3    3    0    0 -0.65238656980E+02 -0.89831625198E+02 -0.35398368430E+03  0.45477735529E+03  0.26304408544E+03 0.  0.
         25    1    4    4    0    0 -0.32856674436E+02 -0.74804715724E+01 -0.19377207275E+03  0.23308934508E+03  0.12509000000E+03 0.  0.
         25    1    4    4    0    0 -0.32381982544E+02 -0.82351153626E+02 -0.16021161155E+03  0.22168801021E+03  0.12509000000E+03 0.  0.
         25    1    3    3    0    0  0.65238656980E+02  0.89831625198E+02 -0.18394787129E+03  0.24861643289E+03  0.12509000000E+03 0.  0.
<mgrwt>
<rscale>  2 0.45320245E+03</rscale>
<asrwt>0</asrwt>
<pdfrwt beam="1">  1       21 0.12166341E-01 0.45320245E+03</pdfrwt>
<pdfrwt beam="2">  1       21 0.91273920E-01 0.45320245E+03</pdfrwt>
<totfact> 0.53471426E+04</totfact>
</mgrwt>
</event>
<event>
 7    0  0.4737014E-002  0.4473866E+03  0.7546771E-02  0.1028504E+00
         21   -1    0    0  502  501  0.00000000000E+00  0.00000000000E+00  0.18176894650E+03  0.18176894650E+03  0.00000000000E+00 0.  1.
         21   -1    0    0  501  502 -0.00000000000E+00 -0.00000000000E+00 -0.27528729717E+03  0.27528729717E+03  0.00000000000E+00 0.  1.
      99926    2    1    2    0    0  0.00000000000E+00  0.00000000000E+00 -0.93518350669E+02  0.45705624368E+03  0.44738655319E+03 0.  0.
      99925    2    3    3    0    0  0.95535849121E+02  0.95524843023E+01 -0.10462342838E+03  0.29897658251E+03  0.26310185613E+03 0.  0.
         25    1    4    4    0    0  0.57956858787E+01  0.63766493350E+01 -0.57515276741E+02  0.13794842076E+03  0.12509000000E+03 0.  0.
         25    1    4    4    0    0  0.89740163242E+02  0.31758349673E+01 -0.47108151638E+02  0.16102816175E+03  0.12509000000E+03 0.  0.
         25    1    3    3    0    0 -0.95535849121E+02 -0.95524843023E+01  0.11105077711E+02  0.15807966117E+03  0.12509000000E+03 0.  0.
<mgrwt>
<rscale>  2 0.44738655E+03</rscale>
<asrwt>0</asrwt>
<pdfrwt beam="1">  1       21 0.26730728E-01 0.44738655E+03</pdfrwt>
<pdfrwt beam="2">  1       21 0.40483425E-01 0.44738655E+03</pdfrwt>
<totfact> 0.72703532E+04</totfact>
</mgrwt>
</event>
<event>
 7    0  0.4737014E-002  0.4585049E+03  0.7546771E-02  0.1025216E+00
         21   -1    0    0  502  501  0.00000000000E+00  0.00000000000E+00  0.60667451863E+03  0.60667451863E+03  0.00000000000E+00 0.  1.
         21   -1    0    0  501  502 -0.00000000000E+00 -0.00000000000E+00 -0.86630788923E+02  0.86630788923E+02  0.00000000000E+00 0.  1.
      99926    2    1    2    0    0 -0.14210854715E-13  0.00000000000E+00  0.52004372971E+03  0.69330530756E+03  0.45850492764E+03 0.  0.
      99925    2    3    3    0    0  0.10022660209E+03 -0.88095338847E+01  0.23820125134E+03  0.36895107162E+03  0.26317689385E+03 0.  0.
         25    1    3    3    0    0 -0.10022660209E+03  0.88095338847E+01  0.28184247837E+03  0.32435423593E+03  0.12509000000E+03 0.  0.
         25    1    4    4    0    0  0.66544611295E+02  0.19872153339E+02  0.85572001612E+02  0.16671281694E+03  0.12509000000E+03 0.  0.
         25    1    4    4    0    0  0.33681990798E+02 -0.28681687223E+02  0.15262924973E+03  0.20223825469E+03  0.12509000000E+03 0.  0.
<mgrwt>
<rscale>  2 0.45850493E+03</rscale>
<asrwt>0</asrwt>
<pdfrwt beam="1">  1       21 0.89216839E-01 0.45850493E+03</pdfrwt>
<pdfrwt beam="2">  1       21 0.12739822E-01 0.45850493E+03</pdfrwt>
<totfact> 0.51823399E+04</totfact>
</mgrwt>
</event>
<event>
 7    0  0.4737014E-002  0.4213616E+03  0.7546771E-02  0.1036624E+00
         21   -1    0    0  502  501  0.00000000000E+00  0.00000000000E+00  0.85812327634E+03  0.85812327634E+03  0.00000000000E+00 0.  1.
         21   -1    0    0  501  502 -0.00000000000E+00 -0.00000000000E+00 -0.51724960263E+02  0.51724960263E+02  0.00000000000E+00 0.  1.
      99926    2    1    2    0    0  0.17763568394E-14  0.00000000000E+00  0.80639831607E+03  0.90984823660E+03  0.42136156621E+03 0.  0.
      99925    2    3    3    0    0 -0.93742702913E+01  0.73985023954E+02  0.56768868715E+03  0.63022088502E+03  0.26333677616E+03 0.  0.
         25    1    3    3    0    0  0.93742702913E+01 -0.73985023954E+02  0.23870962892E+03  0.27962735158E+03  0.12509000000E+03 0.  0.
         25    1    4    4    0    0 -0.35230433826E+02  0.10076970033E+02  0.25158518539E+03  0.28334668236E+03  0.12509000000E+03 0.  0.
         25    1    4    4    0    0  0.25856163535E+02  0.63908053921E+02  0.31610350176E+03  0.34687420266E+03  0.12509000000E+03 0.  0.
<mgrwt>
<rscale>  2 0.42136157E+03</rscale>
<asrwt>0</asrwt>
<pdfrwt beam="1">  1       21 0.12619459E+00 0.42136157E+03</pdfrwt>
<pdfrwt beam="2">  1       21 0.76066123E-02 0.42136157E+03</pdfrwt>
<totfact> 0.56208187E+04</totfact>
</mgrwt>
</event>
<event>
 7    0  0.4737014E-002  0.4487667E+03  0.7546771E-02  0.1028090E+00
         21   -1    0    0  502  501  0.00000000000E+00  0.00000000000E+00  0.34060241771E+03  0.34060241771E+03  0.00000000000E+00 0.  1.
         21   -1    0    0  501  502 -0.00000000000E+00 -0.00000000000E+00 -0.14782010570E+03  0.14782010570E+03  0.00000000000E+00 0.  1.
      99926    2    1    2    0    0  0.00000000000E+00  0.00000000000E+00  0.19278231201E+03  0.48842252341E+03  0.44876668944E+03 0.  0.
      99925    2    3    3    0    0 -0.56418369316E+02 -0.87640890531E+02  0.93071919016E+02  0.29749418958E+03  0.26263368526E+03 0.  0.
         25    1    4    4    0    0 -0.55139416198E+02 -0.73028553953E+02  0.67142319658E+02  0.16890566628E+03  0.12509000000E+03 0.  0.
         25    1    4    4    0    0 -0.12789531177E+01 -0.14612336578E+02  0.25929599358E+02  0.12858852330E+03  0.12509000000E+03 0.  0.
         25    1    3    3    0    0  0.56418369316E+02  0.87640890531E+02  0.99710392994E+02  0.19092833383E+03  0.12509000000E+03 0.  0.
<mgrwt>
<rscale>  2 0.44876669E+03</rscale>
<asrwt>0</asrwt>
<pdfrwt beam="1">  1       21 0.50088591E-01 0.44876669E+03</pdfrwt>
<pdfrwt beam="2">  1       21 0.21738251E-01 0.44876669E+03</pdfrwt>
<totfact> 0.69466286E+04</totfact>
</mgrwt>
</event>
<event>
 7    0  0.4737014E-002  0.4516632E+03  0.7546771E-02  0.1027227E+00
         21   -1    0    0  502  501  0.00000000000E+00  0.00000000000E+00  0.12166769960E+04  0.12166769960E+04  0.00000000000E+00 0.  1.
         21   -1    0    0  501  502 -0.00000000000E+00 -0.00000000000E+00 -0.41917374260E+02  0.41917374260E+02  0.00000000000E+00 0.  1.
      99926    2    1    2    0    0  0.00000000000E+00  0.00000000000E+00  0.11747596217E+04  0.12585943702E+04  0.45166317093E+03 0.  0.
      99925    2    3    3    0    0 -0.10116297023E+03  0.42750470674E+02  0.77332175894E+03  0.82401248491E+03  0.26250425356E+03 0.  0.
         25    1    4    4    0    0 -0.72023233205E+02  0.56921060931E+02  0.43619595782E+03  0.46297059844E+03  0.12509000000E+03 0.  0.
         25    1    4    4    0    0 -0.29139737028E+02 -0.14170590257E+02  0.33712580113E+03  0.36104188647E+03  0.12509000000E+03 0.  0.
         25    1    3    3    0    0  0.10116297023E+03 -0.42750470674E+02  0.40143786278E+03  0.43458188534E+03  0.12509000000E+03 0.  0.
<mgrwt>
<rscale>  2 0.45166317E+03</rscale>
<asrwt>0</asrwt>
<pdfrwt beam="1">  1       21 0.17892306E+00 0.45166317E+03</pdfrwt>
<pdfrwt beam="2">  1       21 0.61643206E-02 0.45166317E+03</pdfrwt>
<totfact> 0.31142330E+04</totfact>
</mgrwt>
</event>
<event>
 7    0  0.4737014E-002  0.4574442E+03  0.7546771E-02  0.1025525E+00
         21   -1    0    0  502  501  0.00000000000E+00  0.00000000000E+00  0.17291827143E+03  0.17291827143E+03  0.00000000000E+00 0.  1.
         21   -1    0    0  501  502 -0.00000000000E+00 -0.00000000000E+00 -0.30253483033E+03  0.30253483033E+03  0.00000000000E+00 0.  1.
      99926    2    1    2    0    0  0.00000000000E+00  0.00000000000E+00 -0.12961655890E+03  0.47545310176E+03  0.45744420384E+03 0.  0.
      99925    2    3    3    0    0  0.29332760969E+02 -0.77955266581E+02 -0.16447589535E+03  0.32118023994E+03  0.26299618234E+03 0.  0.
         25    1    4    4    0    0  0.21610760456E+02 -0.14548594108E+02 -0.11605837915E+03  0.17261443169E+03  0.12509000000E+03 0.  0.
         25    1    4    4    0    0  0.77220005138E+01 -0.63406672473E+02 -0.48417516202E+02  0.14856580825E+03  0.12509000000E+03 0.  0.
         25    1    3    3    0    0 -0.29332760969E+02  0.77955266581E+02  0.34859336453E+02  0.15427286181E+03  0.12509000000E+03 0.  0.
<mgrwt>
<rscale>  2 0.45744420E+03</rscale>
<asrwt>0</asrwt>
<pdfrwt beam="1">  1       21 0.25429158E-01 0.45744420E+03</pdfrwt>
<pdfrwt beam="2">  1       21 0.44490416E-01 0.45744420E+03</pdfrwt>
<totfact> 0.65748102E+04</totfact>
</mgrwt>
</event>
<event>
 7    0  0.4737014E-002  0.4504627E+03  0.7546771E-02  0.1027584E+00
         21   -1    0    0  502  501  0.00000000000E+00  0.00000000000E+00  0.30702510043E+03  0.30702510043E+03  0.00000000000E+00 0. -1.
         21   -1    0    0  501  502 -0.00000000000E+00 -0.00000000000E+00 -0.16522805046E+03  0.16522805046E+03  0.00000000000E+00 0. -1.
      99926    2    1    2    0    0  0.00000000000E+00 -0.14210854715E-13  0.14179704997E+03  0.47225315090E+03  0.45046269008E+03 0.  0.
      99925    2    3    3    0    0 -0.26161088752E+02  0.64869301317E+02  0.20395965360E+01  0.27207302524E+03  0.26292041056E+03 0.  0.
         25    1    3    3    0    0  0.26161088752E+02 -0.64869301317E+02  0.13975745343E+03  0.20018012566E+03  0.12509000000E+03 0.  0.
         25    1    4    4    0    0 -0.66888411540E+01  0.71434935415E+02  0.13243331406E+02  0.14481223885E+03  0.12509000000E+03 0.  0.
         25    1    4    4    0    0 -0.19472247598E+02 -0.65656340982E+01 -0.11203734870E+02  0.12726078639E+03  0.12509000000E+03 0.  0.
<mgrwt>
<rscale>  2 0.45046269E+03</rscale>
<asrwt>0</asrwt>
<pdfrwt beam="1">  1       21 0.45150750E-01 0.45046269E+03</pdfrwt>
<pdfrwt beam="2">  1       21 0.24298243E-01 0.45046269E+03</pdfrwt>
<totfact> 0.69746223E+04</totfact>
</mgrwt>
</event>
<event>
 7    0  0.4737014E-002  0.4441608E+03  0.7546771E-02  0.1029478E+00
         21   -1    0    0  502  501  0.00000000000E+00  0.00000000000E+00  0.51383054449E+03  0.51383054449E+03  0.00000000000E+00 0.  1.
         21   -1    0    0  501  502 -0.00000000000E+00 -0.00000000000E+00 -0.95984396102E+02  0.95984396102E+02  0.00000000000E+00 0.  1.
      99926    2    1    2    0    0  0.00000000000E+00  0.71054273576E-14  0.41784614839E+03  0.60981494059E+03  0.44416084704E+03 0.  0.
      99925    2    3    3    0    0 -0.79420292856E+02  0.40844742047E+02  0.19619873924E+03  0.34009108560E+03  0.26304396088E+03 0.  0.
         25    1    4    4    0    0 -0.55358012228E+02  0.12136575910E+02  0.55455939418E+02  0.14810359654E+03  0.12509000000E+03 0.  0.
         25    1    3    3    0    0  0.79420292856E+02 -0.40844742047E+02  0.22164740915E+03  0.26972385500E+03  0.12509000000E+03 0.  0.
         25    1    4    4    0    0 -0.24062280627E+02  0.28708166137E+02  0.14074279982E+03  0.19198748905E+03  0.12509000000E+03 0.  0.
<mgrwt>
<rscale>  2 0.44416085E+03</rscale>
<asrwt>0</asrwt>
<pdfrwt beam="1">  1       21 0.75563314E-01 0.44416085E+03</pdfrwt>
<pdfrwt beam="2">  1       21 0.14115353E-01 0.44416085E+03</pdfrwt>
<totfact> 0.63328217E+04</totfact>
</mgrwt>
</event>
<event>
 7    0  0.4737014E-002  0.4519386E+03  0.7546771E-02  0.1027146E+00
         21   -1    0    0  502  501  0.00000000000E+00  0.00000000000E+00  0.92839835813E+03  0.92839835813E+03  0.00000000000E+00 0. -1.
         21   -1    0    0  501  502 -0.00000000000E+00 -0.00000000000E+00 -0.55000237585E+02  0.55000237585E+02  0.00000000000E+00 0. -1.
      99926    2    1    2    0    0  0.00000000000E+00  0.00000000000E+00  0.87339812054E+03  0.98339859571E+03  0.45193862535E+03 0.  0.
      99925    2    3    3    0    0 -0.70452206310E+02  0.60083890265E+02  0.67737945766E+03  0.73310993927E+03  0.26463874652E+03 0.  0.
         25    1    4    4    0    0 -0.40301303727E+02 -0.12594901328E+02  0.34294479303E+03  0.36747988487E+03  0.12509000000E+03 0.  0.
         25    1    4    4    0    0 -0.30150902583E+02  0.72678791593E+02  0.33443466463E+03  0.36563005440E+03  0.12509000000E+03 0.  0.
         25    1    3    3    0    0  0.70452206310E+02 -0.60083890265E+02  0.19601866289E+03  0.25028865644E+03  0.12509000000E+03 0.  0.
<mgrwt>
<rscale>  2 0.45193863E+03</rscale>
<asrwt>0</asrwt>
<pdfrwt beam="1">  1       21 0.13652916E+00 0.45193863E+03</pdfrwt>
<pdfrwt beam="2">  1       21 0.80882708E-02 0.45193863E+03</pdfrwt>
<totfact> 0.40784168E+04</totfact>
</mgrwt>
</event>
<event>
 7    0  0.4737014E-002  0.4583947E+03  0.7546771E-02  0.1025248E+00
         21   -1    0    0  502  501  0.00000000000E+00  0.00000000000E+00  0.57871925393E+02  0.57871925393E+02  0.00000000000E+00 0. -1.
         21   -1    0    0  501  502 -0.00000000000E+00 -0.00000000000E+00 -0.90771855381E+03  0.90771855381E+03  0.00000000000E+00 0. -1.
      99926    2    1    2    0    0 -0.17763568394E-14 -0.14210854715E-13 -0.84984662842E+03  0.96559047920E+03  0.45839467896E+03 0.  0.
      99925    2    3    3    0    0 -0.12399013517E+02 -0.11304217158E+03 -0.58919215437E+03  0.65491294376E+03  0.26235720123E+03 0.  0.
         25    1    4    4    0    0 -0.42050176817E+02 -0.40690062067E+02 -0.30053046920E+03  0.33074154492E+03  0.12509000000E+03 0.  0.
         25    1    3    3    0    0  0.12399013517E+02  0.11304217158E+03 -0.26065447405E+03  0.31067753545E+03  0.12509000000E+03 0.  0.
         25    1    4    4    0    0  0.29651163300E+02 -0.72352109508E+02 -0.28866168518E+03  0.32417139884E+03  0.12509000000E+03 0.  0.
<mgrwt>
<rscale>  2 0.45839468E+03</rscale>
<asrwt>0</asrwt>
<pdfrwt beam="1">  1       21 0.85105776E-02 0.45839468E+03</pdfrwt>
<pdfrwt beam="2">  1       21 0.13348802E+00 0.45839468E+03</pdfrwt>
<totfact> 0.39458180E+04</totfact>
</mgrwt>
</event>
<event>
 7    0  0.4737014E-002  0.4487240E+03  0.7546771E-02  0.1028103E+00
         21   -1    0    0  502  501  0.00000000000E+00  0.00000000000E+00  0.12194302605E+04  0.12194302605E+04  0.00000000000E+00 0. -1.
         21   -1    0    0  501  502 -0.00000000000E+00 -0.00000000000E+00 -0.41280189967E+02  0.41280189967E+02  0.00000000000E+00 0. -1.
      99926    2    1    2    0    0  0.00000000000E+00  0.14210854715E-13  0.11781500705E+04  0.12607104505E+04  0.44872402568E+03 0.  0.
      99925    2    3    3    0    0  0.33340995345E+02  0.47615232583E+02  0.49232617108E+03  0.56115290351E+03  0.26292335393E+03 0.  0.
         25    1    4    4    0    0  0.65571635449E+01  0.60297671333E+02  0.22421059426E+03  0.26381187282E+03  0.12509000000E+03 0.  0.
         25    1    4    4    0    0  0.26783831800E+02 -0.12682438750E+02  0.26811557682E+03  0.29734103069E+03  0.12509000000E+03 0.  0.
         25    1    3    3    0    0 -0.33340995345E+02 -0.47615232583E+02  0.68582389945E+03  0.69955754695E+03  0.12509000000E+03 0.  0.
<mgrwt>
<rscale>  2 0.44872403E+03</rscale>
<asrwt>0</asrwt>
<pdfrwt beam="1">  1       21 0.17932796E+00 0.44872403E+03</pdfrwt>
<pdfrwt beam="2">  1       21 0.60706170E-02 0.44872403E+03</pdfrwt>
<totfact> 0.31802503E+04</totfact>
</mgrwt>
</event>
<event>
 7    0  0.4737014E-002  0.4536954E+03  0.7546771E-02  0.1026626E+00
         21   -1    0    0  502  501  0.00000000000E+00  0.00000000000E+00  0.68292335620E+03  0.68292335620E+03  0.00000000000E+00 0. -1.
         21   -1    0    0  501  502 -0.00000000000E+00 -0.00000000000E+00 -0.75352362572E+02  0.75352362572E+02  0.00000000000E+00 0. -1.
      99926    2    1    2    0    0 -0.17763568394E-14  0.00000000000E+00  0.60757099363E+03  0.75827571877E+03  0.45369544122E+03 0.  0.
      99925    2    3    3    0    0  0.19777256387E+01 -0.10410209004E+03  0.45125822182E+03  0.53261591447E+03  0.26306762065E+03 0.  0.
         25    1    4    4    0    0  0.23523564524E+02 -0.57228084973E+02  0.16582465700E+03  0.21673425379E+03  0.12509000000E+03 0.  0.
         25    1    3    3    0    0 -0.19777256387E+01  0.10410209004E+03  0.15631277180E+03  0.22565980430E+03  0.12509000000E+03 0.  0.
         25    1    4    4    0    0 -0.21545838885E+02 -0.46874005063E+02  0.28543356483E+03  0.31588166068E+03  0.12509000000E+03 0.  0.
<mgrwt>
<rscale>  2 0.45369544E+03</rscale>
<asrwt>0</asrwt>
<pdfrwt beam="1">  1       21 0.10042990E+00 0.45369544E+03</pdfrwt>
<pdfrwt beam="2">  1       21 0.11081230E-01 0.45369544E+03</pdfrwt>
<totfact> 0.50362477E+04</totfact>
</mgrwt>
</event>
<event>
 7    0  0.4737014E-002  0.4539163E+03  0.7546771E-02  0.1026561E+00
         21   -1    0    0  502  501  0.00000000000E+00  0.00000000000E+00  0.19625454290E+03  0.19625454290E+03  0.00000000000E+00 0. -1.
         21   -1    0    0  501  502 -0.00000000000E+00 -0.00000000000E+00 -0.26246522399E+03  0.26246522399E+03  0.00000000000E+00 0. -1.
      99926    2    1    2    0    0 -0.71054273576E-14  0.00000000000E+00 -0.66210681091E+02  0.45871976689E+03  0.45391625906E+03 0.  0.
      99925    2    3    3    0    0 -0.45680975395E+02  0.11809835632E+02 -0.14451124754E+03  0.30378523059E+03  0.26301281705E+03 0.  0.
         25    1    4    4    0    0  0.81158298936E+01  0.40886660972E+01 -0.99721839823E+02  0.16023275983E+03  0.12509000000E+03 0.  0.
         25    1    3    3    0    0  0.45680975395E+02 -0.11809835632E+02  0.78300566446E+02  0.15493453629E+03  0.12509000000E+03 0.  0.
         25    1    4    4    0    0 -0.53796805289E+02  0.77211695352E+01 -0.44789407714E+02  0.14355247076E+03  0.12509000000E+03 0.  0.
<mgrwt>
<rscale>  2 0.45391626E+03</rscale>
<asrwt>0</asrwt>
<pdfrwt beam="1">  1       21 0.28860962E-01 0.45391626E+03</pdfrwt>
<pdfrwt beam="2">  1       21 0.38597827E-01 0.45391626E+03</pdfrwt>
<totfact> 0.68867238E+04</totfact>
</mgrwt>
</event>
<event>
 7    0  0.4737014E-002  0.4588248E+03  0.7546771E-02  0.1025123E+00
         21   -1    0    0  502  501  0.00000000000E+00  0.00000000000E+00  0.99885291678E+02  0.99885291678E+02  0.00000000000E+00 0.  1.
         21   -1    0    0  501  502 -0.00000000000E+00 -0.00000000000E+00 -0.52690491704E+03  0.52690491704E+03  0.00000000000E+00 0.  1.
      99926    2    1    2    0    0  0.00000000000E+00  0.00000000000E+00 -0.42701962537E+03  0.62679020872E+03  0.45882480894E+03 0.  0.
      99925    2    3    3    0    0  0.43918487290E+02 -0.98341005251E+02 -0.20620004129E+03  0.35109366603E+03  0.26296105883E+03 0.  0.
         25    1    4    4    0    0  0.55162116135E+02 -0.64156851163E+02 -0.85294498765E+02  0.17344053802E+03  0.12509000000E+03 0.  0.
         25    1    3    3    0    0 -0.43918487290E+02  0.98341005251E+02 -0.22081958408E+03  0.27569654269E+03  0.12509000000E+03 0.  0.
         25    1    4    4    0    0 -0.11243628846E+02 -0.34184154088E+02 -0.12090554252E+03  0.17765312801E+03  0.12509000000E+03 0.  0.
<mgrwt>
<rscale>  2 0.45882481E+03</rscale>
<asrwt>0</asrwt>
<pdfrwt beam="1">  1       21 0.14689013E-01 0.45882481E+03</pdfrwt>
<pdfrwt beam="2">  1       21 0.77486018E-01 0.45882481E+03</pdfrwt>
<totfact> 0.55367843E+04</totfact>
</mgrwt>
</event>
<event>
 7    0  0.4737014E-002  0.4533989E+03  0.7546771E-02  0.1026713E+00
         21   -1    0    0  502  501  0.00000000000E+00  0.00000000000E+00  0.22289129633E+03  0.22289129633E+03  0.00000000000E+00 0.  1.
         21   -1    0    0  501  502 -0.00000000000E+00 -0.00000000000E+00 -0.23057268477E+03  0.23057268477E+03  0.00000000000E+00 0.  1.
      99926    2    1    2    0    0  0.00000000000E+00  0.00000000000E+00 -0.76813884420E+01  0.45346398111E+03  0.45339891755E+03 0.  0.
      99925    2    3    3    0    0 -0.77421900249E+02 -0.55234086891E+02  0.53620404355E+02  0.28479159779E+03  0.26303260524E+03 0.  0.
         25    1    3    3    0    0  0.77421900249E+02  0.55234086891E+02 -0.61301792797E+02  0.16867238331E+03  0.12509000000E+03 0.  0.
         25    1    4    4    0    0 -0.52925397777E+02 -0.11679257483E+02 -0.82163155235E+01  0.13657422424E+03  0.12509000000E+03 0.  0.
         25    1    4    4    0    0 -0.24496502472E+02 -0.43554829408E+02  0.61836719878E+02  0.14821737355E+03  0.12509000000E+03 0.  0.
<mgrwt>
<rscale>  2 0.45339892E+03</rscale>
<asrwt>0</asrwt>
<pdfrwt beam="1">  1       21 0.32778132E-01 0.45339892E+03</pdfrwt>
<pdfrwt beam="2">  1       21 0.33907747E-01 0.45339892E+03</pdfrwt>
<totfact> 0.69542635E+04</totfact>
</mgrwt>
</event>
<event>
 6    0  0.4737014E-002  0.4563033E+03  0.7546771E-02  0.1025859E+00
         21   -1    0    0  502  501  0.00000000000E+00  0.00000000000E+00  0.27134939139E+02  0.27134939139E+02  0.00000000000E+00 0. -1.
         21   -1    0    0  501  502 -0.00000000000E+00 -0.00000000000E+00 -0.19183080883E+04  0.19183080883E+04  0.00000000000E+00 0. -1.
      99926    2    1    2    0    0  0.00000000000E+00 -0.71054273576E-14 -0.18911731491E+04  0.19454430274E+04  0.45630329047E+03 0.  0.
         25    1    3    3    0    0 -0.46157396887E+02 -0.15162533281E+01 -0.56865811106E+03  0.58408249391E+03  0.12509000000E+03 0.  0.
         25    1    3    3    0    0  0.69763795928E+02  0.54377289424E+02 -0.98406028805E+03  0.99591467277E+03  0.12509000000E+03 0.  0.
         25    1    3    3    0    0 -0.23606399041E+02 -0.52861036096E+02 -0.33845475001E+03  0.36544586072E+03  0.12509000000E+03 0.  0.
<mgrwt>
<rscale>  2 0.45630329E+03</rscale>
<asrwt>0</asrwt>
<pdfrwt beam="1">  1       21 0.39904305E-02 0.45630329E+03</pdfrwt>
<pdfrwt beam="2">  1       21 0.28210425E+00 0.45630329E+03</pdfrwt>
<totfact> 0.14474228E+04</totfact>
</mgrwt>
</event>
<event>
 6    0  0.4737014E-002  0.4612236E+03  0.7546771E-02  0.1024427E+00
         21   -1    0    0  502  501  0.00000000000E+00  0.00000000000E+00  0.14983532202E+03  0.14983532202E+03  0.00000000000E+00 0.  1.
         21   -1    0    0  501  502 -0.00000000000E+00 -0.00000000000E+00 -0.35493499491E+03  0.35493499491E+03  0.00000000000E+00 0.  1.
      99926    2    1    2    0    0  0.00000000000E+00  0.14210854715E-13 -0.20509967289E+03  0.50477031692E+03  0.46122358681E+03 0.  0.
         25    1    3    3    0    0 -0.21127521019E+02  0.57715222350E+02 -0.11626089110E+02  0.13985740268E+03  0.12509000000E+03 0.  0.
         25    1    3    3    0    0  0.26844177131E+02  0.49385830243E+02 -0.48567358744E+02  0.14548493568E+03  0.12509000000E+03 0.  0.
         25    1    3    3    0    0 -0.57166561124E+01 -0.10710105259E+03 -0.14490622503E+03  0.21942797856E+03  0.12509000000E+03 0.  0.
<mgrwt>
<rscale>  2 0.46122359E+03</rscale>
<asrwt>0</asrwt>
<pdfrwt beam="1">  1       21 0.22034606E-01 0.46122359E+03</pdfrwt>
<pdfrwt beam="2">  1       21 0.52196323E-01 0.46122359E+03</pdfrwt>
<totfact> 0.61825586E+04</totfact>
</mgrwt>
</event>
<event>
 7    0  0.4737014E-002  0.4569044E+03  0.7546771E-02  0.1025683E+00
         21   -1    0    0  502  501  0.00000000000E+00  0.00000000000E+00  0.12599646459E+04  0.12599646459E+04  0.00000000000E+00 0. -1.
         21   -1    0    0  501  502 -0.00000000000E+00 -0.00000000000E+00 -0.41422125469E+02  0.41422125469E+02  0.00000000000E+00 0. -1.
      99926    2    1    2    0    0  0.00000000000E+00  0.00000000000E+00  0.12185425205E+04  0.13013867714E+04  0.45690442612E+03 0.  0.
      99925    2    3    3    0    0  0.64112638139E+02  0.68602588233E+02  0.57531671983E+03  0.63941722212E+03  0.26277045181E+03 0.  0.
         25    1    3    3    0    0 -0.64112638139E+02 -0.68602588233E+02  0.64322580065E+03  0.66196954930E+03  0.12509000000E+03 0.  0.
         25    1    4    4    0    0  0.43551775565E+02  0.72617598936E+02  0.28356252923E+03  0.32128692615E+03  0.12509000000E+03 0.  0.
         25    1    4    4    0    0  0.20560862575E+02 -0.40150107030E+01  0.29175419060E+03  0.31813029597E+03  0.12509000000E+03 0.  0.
<mgrwt>
<rscale>  2 0.45690443E+03</rscale>
<asrwt>0</asrwt>
<pdfrwt beam="1">  1       21 0.18528889E+00 0.45690443E+03</pdfrwt>
<pdfrwt beam="2">  1       21 0.60914899E-02 0.45690443E+03</pdfrwt>
<totfact> 0.28647790E+04</totfact>
</mgrwt>
</event>
<event>
 7    0  0.4737014E-002  0.4245617E+03  0.7546771E-02  0.1035592E+00
         21   -1    0    0  502  501  0.00000000000E+00  0.00000000000E+00  0.61758894568E+02  0.61758894568E+02  0.00000000000E+00 0. -1.
         21   -1    0    0  501  502 -0.00000000000E+00 -0.00000000000E+00 -0.72966273708E+03  0.72966273708E+03  0.00000000000E+00 0. -1.
      99926    2    1    2    0    0  0.00000000000E+00  0.71054273576E-14 -0.66790384252E+03  0.79142163165E+03  0.42456172248E+03 0.  0.
      99925    2    3    3    0    0  0.26796795349E+02 -0.41472516871E+02 -0.55379218862E+03  0.61504982112E+03  0.26298755937E+03 0.  0.
         25    1    3    3    0    0 -0.26796795349E+02  0.41472516871E+02 -0.11411165389E+03  0.17637181053E+03  0.12509000000E+03 0.  0.
         25    1    4    4    0    0  0.23367426778E+02 -0.24771098428E+02 -0.19034620677E+03  0.23030160764E+03  0.12509000000E+03 0.  0.
         25    1    4    4    0    0  0.34293685714E+01 -0.16701418443E+02 -0.36344598185E+03  0.38474821348E+03  0.12509000000E+03 0.  0.
<mgrwt>
<rscale>  2 0.42456172E+03</rscale>
<asrwt>0</asrwt>
<pdfrwt beam="1">  1       21 0.90821909E-02 0.42456172E+03</pdfrwt>
<pdfrwt beam="2">  1       21 0.10730334E+00 0.42456172E+03</pdfrwt>
<totfact> 0.61641619E+04</totfact>
</mgrwt>
</event>
<event>
 7    0  0.4737014E-002  0.4500229E+03  0.7546771E-02  0.1027715E+00
         21   -1    0    0  502  501  0.00000000000E+00  0.00000000000E+00  0.19522127394E+03  0.19522127394E+03  0.00000000000E+00 0.  1.
         21   -1    0    0  501  502 -0.00000000000E+00 -0.00000000000E+00 -0.25934752416E+03  0.25934752416E+03  0.00000000000E+00 0.  1.
      99926    2    1    2    0    0  0.00000000000E+00  0.00000000000E+00 -0.64126250214E+02  0.45456879810E+03  0.45002290635E+03 0.  0.
      99925    2    3    3    0    0  0.20383413767E+02 -0.99829305116E+02 -0.77782490023E+02  0.29265717189E+03  0.26309072729E+03 0.  0.
         25    1    3    3    0    0 -0.20383413767E+02  0.99829305116E+02  0.13656239809E+02  0.16191162621E+03  0.12509000000E+03 0.  0.
         25    1    4    4    0    0  0.12539746391E+02 -0.54475009050E+02 -0.81307909122E+02  0.15932123536E+03  0.12509000000E+03 0.  0.
         25    1    4    4    0    0  0.78436673759E+01 -0.45354296065E+02  0.35254190993E+01  0.13333593653E+03  0.12509000000E+03 0.  0.
<mgrwt>
<rscale>  2 0.45002291E+03</rscale>
<asrwt>0</asrwt>
<pdfrwt beam="1">  1       21 0.28709011E-01 0.45002291E+03</pdfrwt>
<pdfrwt beam="2">  1       21 0.38139342E-01 0.45002291E+03</pdfrwt>
<totfact> 0.71369130E+04</totfact>
</mgrwt>
</event>
<event>
 7    0  0.4737014E-002  0.4429142E+03  0.7546771E-02  0.1029856E+00
         21   -1    0    0  502  501  0.00000000000E+00  0.00000000000E+00  0.63658075689E+03  0.63658075689E+03  0.00000000000E+00 0.  1.
         21   -1    0    0  501  502 -0.00000000000E+00 -0.00000000000E+00 -0.77041683687E+02  0.77041683687E+02  0.00000000000E+00 0.  1.
      99926    2    1    2    0    0  0.17763568394E-14  0.00000000000E+00  0.55953907320E+03  0.71362244058E+03  0.44291422788E+03 0.  0.
      99925    2    3    3    0    0 -0.25053696960E+01  0.37383618085E+02  0.20419611690E+03  0.33504624419E+03  0.26297551181E+03 0.  0.
         25    1    4    4    0    0  0.98536317774E+01 -0.13123078374E+02  0.12753059131E+03  0.17939027026E+03  0.12509000000E+03 0.  0.
         25    1    4    4    0    0 -0.12359001473E+02  0.50506696459E+02  0.76665525590E+02  0.15565597393E+03  0.12509000000E+03 0.  0.
         25    1    3    3    0    0  0.25053696960E+01 -0.37383618085E+02  0.35534295630E+03  0.37857619639E+03  0.12509000000E+03 0.  0.
<mgrwt>
<rscale>  2 0.44291423E+03</rscale>
<asrwt>0</asrwt>
<pdfrwt beam="1">  1       21 0.93614815E-01 0.44291423E+03</pdfrwt>
<pdfrwt beam="2">  1       21 0.11329660E-01 0.44291423E+03</pdfrwt>
<totfact> 0.57438957E+04</totfact>
</mgrwt>
</event>
<event>
 7    0  0.4737014E-002  0.4389629E+03  0.7546771E-02  0.1031066E+00
         21   -1    0    0  502  501  0.00000000000E+00  0.00000000000E+00  0.63388051041E+02  0.63388051041E+02  0.00000000000E+00 0. -1.
         21   -1    0    0  501  502 -0.00000000000E+00 -0.00000000000E+00 -0.75995548023E+03  0.75995548023E+03  0.00000000000E+00 0. -1.
      99926    2    1    2    0    0  0.00000000000E+00 -0.14210854715E-13 -0.69656742919E+03  0.82334353127E+03  0.43896285387E+03 0.  0.
      99925    2    3    3    0    0  0.59656575393E+01 -0.90317097720E+02 -0.37768726762E+03  0.46904869253E+03  0.26299474641E+03 0.  0.
         25    1    4    4    0    0  0.28610051858E+01 -0.87166174913E+02 -0.22100126629E+03  0.26850548449E+03  0.12509000000E+03 0.  0.
         25    1    3    3    0    0 -0.59656575393E+01  0.90317097720E+02 -0.31888016157E+03  0.35429483873E+03  0.12509000000E+03 0.  0.
         25    1    4    4    0    0  0.31046523535E+01 -0.31509228079E+01 -0.15668600133E+03  0.20054320805E+03  0.12509000000E+03 0.  0.
<mgrwt>
<rscale>  2 0.43896285E+03</rscale>
<asrwt>0</asrwt>
<pdfrwt beam="1">  1       21 0.93217724E-02 0.43896285E+03</pdfrwt>
<pdfrwt beam="2">  1       21 0.11175816E+00 0.43896285E+03</pdfrwt>
<totfact> 0.53019803E+04</totfact>
</mgrwt>
</event>
<event>
 7    0  0.4737014E-002  0.4411715E+03  0.7546771E-02  0.1030388E+00
         21   -1    0    0  502  501  0.00000000000E+00  0.00000000000E+00  0.50321829291E+03  0.50321829291E+03  0.00000000000E+00 0. -1.
         21   -1    0    0  501  502 -0.00000000000E+00 -0.00000000000E+00 -0.96693749338E+02  0.96693749338E+02  0.00000000000E+00 0. -1.
      99926    2    1    2    0    0  0.14210854715E-13 -0.17763568394E-14  0.40652454357E+03  0.59991204224E+03  0.44117145636E+03 0.  0.
      99925    2    3    3    0    0  0.67607735446E+02 -0.15383753469E+02  0.35645387058E+03  0.44837971514E+03  0.26301623779E+03 0.  0.
         25    1    3    3    0    0 -0.67607735446E+02  0.15383753469E+02  0.50070672990E+02  0.15153232710E+03  0.12509000000E+03 0.  0.
         25    1    4    4    0    0 -0.48794576450E+01 -0.86263994689E+01  0.19128870011E+03  0.22877302893E+03  0.12509000000E+03 0.  0.
         25    1    4    4    0    0  0.72487193091E+02 -0.67573540004E+01  0.16516517046E+03  0.21960668621E+03  0.12509000000E+03 0.  0.
<mgrwt>
<rscale>  2 0.44117146E+03</rscale>
<asrwt>0</asrwt>
<pdfrwt beam="1">  1       21 0.74002689E-01 0.44117146E+03</pdfrwt>
<pdfrwt beam="2">  1       21 0.14219669E-01 0.44117146E+03</pdfrwt>
<totfact> 0.65558021E+04</totfact>
</mgrwt>
</event>
<event>
 7    0  0.4737014E-002  0.4584378E+03  0.7546771E-02  0.1025235E+00
         21   -1    0    0  502  501  0.00000000000E+00  0.00000000000E+00  0.15869928400E+02  0.15869928400E+02  0.00000000000E+00 0. -1.
         21   -1    0    0  501  502 -0.00000000000E+00 -0.00000000000E+00 -0.33107455800E+04  0.33107455800E+04  0.00000000000E+00 0. -1.
      99926    2    1    2    0    0 -0.71054273576E-14  0.00000000000E+00 -0.32948756516E+04  0.33266155084E+04  0.45843776156E+03 0.  0.
      99925    2    3    3    0    0  0.34629918310E+02  0.72432565836E+02 -0.26783233008E+04  0.26923994433E+04  0.26297024723E+03 0.  0.
         25    1    4    4    0    0 -0.36901845763E+00  0.11197328401E+02 -0.15267312203E+04  0.15318881302E+04  0.12509000000E+03 0.  0.
         25    1    3    3    0    0 -0.34629918310E+02 -0.72432565836E+02 -0.61655235085E+03  0.63421606513E+03  0.12509000000E+03 0.  0.
         25    1    4    4    0    0  0.34998936768E+02  0.61235237435E+02 -0.11515920805E+04  0.11605113131E+04  0.12509000000E+03 0.  0.
<mgrwt>
<rscale>  2 0.45843776E+03</rscale>
<asrwt>0</asrwt>
<pdfrwt beam="1">  1       21 0.23338091E-02 0.45843776E+03</pdfrwt>
<pdfrwt beam="2">  1       21 0.48687517E+00 0.45843776E+03</pdfrwt>
<totfact> 0.17545805E+03</totfact>
</mgrwt>
</event>
<event>
 7    0  0.4737014E-002  0.4540733E+03  0.7546771E-02  0.1026514E+00
         21   -1    0    0  502  501  0.00000000000E+00  0.00000000000E+00  0.16197390313E+04  0.16197390313E+04  0.00000000000E+00 0.  1.
         21   -1    0    0  501  502 -0.00000000000E+00 -0.00000000000E+00 -0.31823425713E+02  0.31823425713E+02  0.00000000000E+00 0.  1.
      99926    2    1    2    0    0  0.00000000000E+00 -0.71054273576E-14  0.15879156056E+04  0.16515624570E+04  0.45407331891E+03 0.  0.
      99925    2    3    3    0    0 -0.85369515234E+02  0.35122187603E+02  0.76794830744E+03  0.81698747516E+03  0.26306350846E+03 0.  0.
         25    1    4    4    0    0 -0.16540223637E+02 -0.71886678038E+01  0.41758613434E+03  0.43629226859E+03  0.12509000000E+03 0.  0.
         25    1    3    3    0    0  0.85369515234E+02 -0.35122187603E+02  0.81996729818E+03  0.83457498188E+03  0.12509000000E+03 0.  0.
         25    1    4    4    0    0 -0.68829291597E+02  0.42310855407E+02  0.35036217310E+03  0.38069520657E+03  0.12509000000E+03 0.  0.
<mgrwt>
<rscale>  2 0.45407332E+03</rscale>
<asrwt>0</asrwt>
<pdfrwt beam="1">  1       21 0.23819686E+00 0.45407332E+03</pdfrwt>
<pdfrwt beam="2">  1       21 0.46799166E-02 0.45407332E+03</pdfrwt>
<totfact> 0.20435932E+04</totfact>
</mgrwt>
</event>
<event>
 7    0  0.4737014E-002  0.4469026E+03  0.7546771E-02  0.1028650E+00
         21   -1    0    0  502  501  0.00000000000E+00  0.00000000000E+00  0.33614805624E+03  0.33614805624E+03  0.00000000000E+00 0. -1.
         21   -1    0    0  501  502 -0.00000000000E+00 -0.00000000000E+00 -0.14853714602E+03  0.14853714602E+03  0.00000000000E+00 0. -1.
      99926    2    1    2    0    0  0.00000000000E+00  0.00000000000E+00  0.18761091021E+03  0.48468520226E+03  0.44690255275E+03 0.  0.
      99925    2    3    3    0    0  0.70508076288E+02  0.83503052157E+01  0.33542312456E+02  0.27391101662E+03  0.26241387517E+03 0.  0.
         25    1    3    3    0    0 -0.70508076288E+02 -0.83503052157E+01  0.15406859776E+03  0.21077418564E+03  0.12509000000E+03 0.  0.
         25    1    4    4    0    0  0.20485782960E+02  0.94749277859E+01 -0.20496293885E+02  0.12875188435E+03  0.12509000000E+03 0.  0.
         25    1    4    4    0    0  0.50022293327E+02 -0.11246225702E+01  0.54038606341E+02  0.14515913227E+03  0.12509000000E+03 0.  0.
<mgrwt>
<rscale>  2 0.44690255E+03</rscale>
<asrwt>0</asrwt>
<pdfrwt beam="1">  1       21 0.49433538E-01 0.44690255E+03</pdfrwt>
<pdfrwt beam="2">  1       21 0.21843698E-01 0.44690255E+03</pdfrwt>
<totfact> 0.70803766E+04</totfact>
</mgrwt>
</event>
<event>
 7    0  0.4737014E-002  0.4511801E+03  0.7546771E-02  0.1027371E+00
         21   -1    0    0  502  501  0.00000000000E+00  0.00000000000E+00  0.51625118121E+02  0.51625118121E+02  0.00000000000E+00 0.  1.
         21   -1    0    0  501  502 -0.00000000000E+00 -0.00000000000E+00 -0.98577742439E+03  0.98577742439E+03  0.00000000000E+00 0.  1.
      99926    2    1    2    0    0  0.00000000000E+00  0.00000000000E+00 -0.93415230627E+03  0.10374025425E+04  0.45118012356E+03 0.  0.
      99925    2    3    3    0    0  0.76541319073E+02  0.77049848520E+02 -0.55399777524E+03  0.62272166732E+03  0.26281835420E+03 0.  0.
         25    1    3    3    0    0 -0.76541319073E+02 -0.77049848520E+02 -0.38015453103E+03  0.41468087518E+03  0.12509000000E+03 0.  0.
         25    1    4    4    0    0  0.12995258809E+02  0.66580575607E+02 -0.30917527932E+03  0.34035086490E+03  0.12509000000E+03 0.  0.
         25    1    4    4    0    0  0.63546060263E+02  0.10469272913E+02 -0.24482249592E+03  0.28237080242E+03  0.12509000000E+03 0.  0.
<mgrwt>
<rscale>  2 0.45118012E+03</rscale>
<asrwt>0</asrwt>
<pdfrwt beam="1">  1       21 0.75919284E-02 0.45118012E+03</pdfrwt>
<pdfrwt beam="2">  1       21 0.14496728E+00 0.45118012E+03</pdfrwt>
<totfact> 0.38889828E+04</totfact>
</mgrwt>
</event>
<event>
 7    0  0.4737014E-002  0.4524700E+03  0.7546771E-02  0.1026988E+00
         21   -1    0    0  502  501  0.00000000000E+00  0.00000000000E+00  0.21095217653E+04  0.21095217653E+04  0.00000000000E+00 0.  1.
         21   -1    0    0  501  502 -0.00000000000E+00 -0.00000000000E+00 -0.24262505414E+02  0.24262505414E+02  0.00000000000E+00 0.  1.
      99926    2    1    2    0    0  0.00000000000E+00  0.00000000000E+00  0.20852592599E+04  0.21337842708E+04  0.45247003548E+03 0.  0.
      99925    2    3    3    0    0 -0.25475314234E+02 -0.10109276425E+03  0.14923848102E+04  0.15189539203E+04  0.26294457899E+03 0.  0.
         25    1    4    4    0    0  0.62991665865E+01 -0.70838420094E+02  0.93596909181E+03  0.94696536905E+03  0.12509000000E+03 0.  0.
         25    1    3    3    0    0  0.25475314234E+02  0.10109276425E+03  0.59287444971E+03  0.61483035045E+03  0.12509000000E+03 0.  0.
         25    1    4    4    0    0 -0.31774480820E+02 -0.30254344151E+02  0.55641571841E+03  0.57198855125E+03  0.12509000000E+03 0.  0.
<mgrwt>
<rscale>  2 0.45247004E+03</rscale>
<asrwt>0</asrwt>
<pdfrwt beam="1">  1       21 0.31022366E+00 0.45247004E+03</pdfrwt>
<pdfrwt beam="2">  1       21 0.35680169E-02 0.45247004E+03</pdfrwt>
<totfact> 0.11877595E+04</totfact>
</mgrwt>
</event>
<event>
 7    0  0.4737014E-002  0.4555215E+03  0.7546771E-02  0.1026088E+00
         21   -1    0    0  502  501  0.00000000000E+00  0.00000000000E+00  0.18220016296E+03  0.18220016296E+03  0.00000000000E+00 0.  1.
         21   -1    0    0  501  502 -0.00000000000E+00 -0.00000000000E+00 -0.28471413409E+03  0.28471413409E+03  0.00000000000E+00 0.  1.
      99926    2    1    2    0    0  0.00000000000E+00  0.00000000000E+00 -0.10251397113E+03  0.46691429704E+03  0.45552151048E+03 0.  0.
      99925    2    3    3    0    0 -0.68914401964E+02  0.56457784730E+02 -0.13671754512E+03  0.30958003876E+03  0.26308066634E+03 0.  0.
         25    1    4    4    0    0 -0.55753002153E+02  0.63926684468E+02 -0.84792229838E+02  0.17329814938E+03  0.12509000000E+03 0.  0.
         25    1    4    4    0    0 -0.13161399812E+02 -0.74688997384E+01 -0.51925315282E+02  0.13628188939E+03  0.12509000000E+03 0.  0.
         25    1    3    3    0    0  0.68914401964E+02 -0.56457784730E+02  0.34203573987E+02  0.15733425828E+03  0.12509000000E+03 0.  0.
<mgrwt>
<rscale>  2 0.45552151E+03</rscale>
<asrwt>0</asrwt>
<pdfrwt beam="1">  1       21 0.26794142E-01 0.45552151E+03</pdfrwt>
<pdfrwt beam="2">  1       21 0.41869725E-01 0.45552151E+03</pdfrwt>
<totfact> 0.67387066E+04</totfact>
</mgrwt>
</event>
<event>
 7    0  0.4737014E-002  0.4551695E+03  0.7546771E-02  0.1026192E+00
         21   -1    0    0  502  501  0.00000000000E+00  0.00000000000E+00  0.29263081535E+03  0.29263081535E+03  0.00000000000E+00 0.  1.
         21   -1    0    0  501  502 -0.00000000000E+00 -0.00000000000E+00 -0.17699711986E+03  0.17699711986E+03  0.00000000000E+00 0.  1.
      99926    2    1    2    0    0  0.00000000000E+00  0.00000000000E+00  0.11563369548E+03  0.46962793521E+03  0.45516946954E+03 0.  0.
      99925    2    3    3    0    0 -0.61736304735E+02 -0.92860614026E+02  0.95319049072E+02  0.30082432767E+03  0.26263109116E+03 0.  0.
         25    1    4    4    0    0 -0.19594920888E+02 -0.11846912926E+02  0.65714759874E+02  0.14314415125E+03  0.12509000000E+03 0.  0.
         25    1    4    4    0    0 -0.42141383847E+02 -0.81013701100E+02  0.29604289198E+02  0.15768017642E+03  0.12509000000E+03 0.  0.
         25    1    3    3    0    0  0.61736304735E+02  0.92860614026E+02  0.20314646410E+02  0.16880360754E+03  0.12509000000E+03 0.  0.
<mgrwt>
<rscale>  2 0.45516947E+03</rscale>
<asrwt>0</asrwt>
<pdfrwt beam="1">  1       21 0.43033944E-01 0.45516947E+03</pdfrwt>
<pdfrwt beam="2">  1       21 0.26028988E-01 0.45516947E+03</pdfrwt>
<totfact> 0.67372792E+04</totfact>
</mgrwt>
</event>
<event>
 7    0  0.4737014E-002  0.4583895E+03  0.7546771E-02  0.1025249E+00
         21   -1    0    0  502  501  0.00000000000E+00  0.00000000000E+00  0.14867935393E+03  0.14867935393E+03  0.00000000000E+00 0. -1.
         21   -1    0    0  501  502 -0.00000000000E+00 -0.00000000000E+00 -0.35331219468E+03  0.35331219468E+03  0.00000000000E+00 0. -1.
      99926    2    1    2    0    0  0.00000000000E+00 -0.35527136788E-14 -0.20463284075E+03  0.50199154860E+03  0.45838947998E+03 0.  0.
      99925    2    3    3    0    0 -0.37611256355E+02 -0.88693199339E+01 -0.24855722081E+03  0.36389690459E+03  0.26295815962E+03 0.  0.
         25    1    3    3    0    0  0.37611256355E+02  0.88693199339E+01  0.43924380062E+02  0.13809464401E+03  0.12509000000E+03 0.  0.
         25    1    4    4    0    0 -0.20697095872E+02  0.35699353909E+02 -0.11628542818E+03  0.17570606863E+03  0.12509000000E+03 0.  0.
         25    1    4    4    0    0 -0.16914160483E+02 -0.44568673842E+02 -0.13227179264E+03  0.18819083596E+03  0.12509000000E+03 0.  0.
<mgrwt>
<rscale>  2 0.45838948E+03</rscale>
<asrwt>0</asrwt>
<pdfrwt beam="1">  1       21 0.21864611E-01 0.45838948E+03</pdfrwt>
<pdfrwt beam="2">  1       21 0.51957676E-01 0.45838948E+03</pdfrwt>
<totfact> 0.63407688E+04</totfact>
</mgrwt>
</event>
<event>
 7    0  0.4737014E-002  0.4413325E+03  0.7546771E-02  0.1030339E+00
         21   -1    0    0  502  501  0.00000000000E+00  0.00000000000E+00  0.37206456905E+03  0.37206456905E+03  0.00000000000E+00 0.  1.
         21   -1    0    0  501  502 -0.00000000000E+00 -0.00000000000E+00 -0.13087405804E+03  0.13087405804E+03  0.00000000000E+00 0.  1.
      99926    2    1    2    0    0  0.00000000000E+00  0.00000000000E+00  0.24119051101E+03  0.50293862708E+03  0.44133252771E+03 0.  0.
      99925    2    3    3    0    0  0.54089041229E+02  0.83234119903E+02  0.16571546345E+03  0.32631039038E+03  0.26298918789E+03 0.  0.
         25    1    4    4    0    0  0.49476376880E+02  0.87015228182E+01  0.90433288365E+02  0.16232472428E+03  0.12509000000E+03 0.  0.
         25    1    4    4    0    0  0.46126643492E+01  0.74532597085E+02  0.75282175085E+02  0.16398566610E+03  0.12509000000E+03 0.  0.
         25    1    3    3    0    0 -0.54089041229E+02 -0.83234119903E+02  0.75475047557E+02  0.17662823670E+03  0.12509000000E+03 0.  0.
<mgrwt>
<rscale>  2 0.44133253E+03</rscale>
<asrwt>0</asrwt>
<pdfrwt beam="1">  1       21 0.54715378E-01 0.44133253E+03</pdfrwt>
<pdfrwt beam="2">  1       21 0.19246185E-01 0.44133253E+03</pdfrwt>
<totfact> 0.72628425E+04</totfact>
</mgrwt>
</event>
<event>
 7    0  0.4737014E-002  0.3909436E+03  0.7546771E-02  0.1046961E+00
         21   -1    0    0  502  501  0.00000000000E+00  0.00000000000E+00  0.20786382993E+03  0.20786382993E+03  0.00000000000E+00 0. -1.
         21   -1    0    0  501  502 -0.00000000000E+00 -0.00000000000E+00 -0.18381857722E+03  0.18381857722E+03  0.00000000000E+00 0. -1.
      99926    2    1    2    0    0  0.00000000000E+00  0.00000000000E+00  0.24045252711E+02  0.39168240716E+03  0.39094364543E+03 0.  0.
      99925    2    3    3    0    0  0.16978580612E+02  0.10629501303E+02  0.67968577732E+01  0.26382986035E+03  0.26298049251E+03 0.  0.
         25    1    3    3    0    0 -0.16978580612E+02 -0.10629501303E+02  0.17248394938E+02  0.12785254681E+03  0.12509000000E+03 0.  0.
         25    1    4    4    0    0 -0.96424055023E+01  0.25224089102E+02 -0.26905838351E+02  0.13076950291E+03  0.12509000000E+03 0.  0.
         25    1    4    4    0    0  0.26620986114E+02 -0.14594587799E+02  0.33702696124E+02  0.13306035744E+03  0.12509000000E+03 0.  0.
<mgrwt>
<rscale>  2 0.39094365E+03</rscale>
<asrwt>0</asrwt>
<pdfrwt beam="1">  1       21 0.30568210E-01 0.39094365E+03</pdfrwt>
<pdfrwt beam="2">  1       21 0.27032144E-01 0.39094365E+03</pdfrwt>
<totfact> 0.12696247E+05</totfact>
</mgrwt>
</event>
<event>
 7    0  0.4737014E-002  0.4468504E+03  0.7546771E-02  0.1028665E+00
         21   -1    0    0  502  501  0.00000000000E+00  0.00000000000E+00  0.17320796683E+03  0.17320796683E+03  0.00000000000E+00 0. -1.
         21   -1    0    0  501  502 -0.00000000000E+00 -0.00000000000E+00 -0.28820164958E+03  0.28820164958E+03  0.00000000000E+00 0. -1.
      99926    2    1    2    0    0  0.17763568394E-14 -0.14210854715E-13 -0.11499368275E+03  0.46140961640E+03  0.44685040790E+03 0.  0.
      99925    2    3    3    0    0 -0.10254030634E+02 -0.65640842834E+02 -0.15729471973E+03  0.31358962039E+03  0.26302653054E+03 0.  0.
         25    1    4    4    0    0  0.57315186760E+01 -0.72985766801E+02 -0.86269810481E+02  0.16867056875E+03  0.12509000000E+03 0.  0.
         25    1    3    3    0    0  0.10254030634E+02  0.65640842834E+02  0.42301036978E+02  0.14781999601E+03  0.12509000000E+03 0.  0.
         25    1    4    4    0    0 -0.15985549310E+02  0.73449239677E+01 -0.71024909247E+02  0.14491905164E+03  0.12509000000E+03 0.  0.
<mgrwt>
<rscale>  2 0.44685041E+03</rscale>
<asrwt>0</asrwt>
<pdfrwt beam="1">  1       21 0.25471760E-01 0.44685041E+03</pdfrwt>
<pdfrwt beam="2">  1       21 0.42382595E-01 0.44685041E+03</pdfrwt>
<totfact> 0.72665164E+04</totfact>
</mgrwt>
</event>
<event>
 7    0  0.4737014E-002  0.4498259E+03  0.7546771E-02  0.1027774E+00
         21   -1    0    0  502  501  0.00000000000E+00  0.00000000000E+00  0.50570169327E+02  0.50570169327E+02  0.00000000000E+00 0. -1.
         21   -1    0    0  501  502 -0.00000000000E+00 -0.00000000000E+00 -0.10003096893E+04  0.10003096893E+04  0.00000000000E+00 0. -1.
      99926    2    1    2    0    0  0.00000000000E+00  0.00000000000E+00 -0.94973951999E+03  0.10508798586E+04  0.44982587906E+03 0.  0.
      99925    2    3    3    0    0  0.75699790348E+02  0.66469847662E+02 -0.50962922462E+03  0.58237876036E+03  0.26323824764E+03 0.  0.
         25    1    3    3    0    0 -0.75699790348E+02 -0.66469847662E+02 -0.44011029537E+03  0.46850109829E+03  0.12509000000E+03 0.  0.
         25    1    4    4    0    0  0.22798093395E+02  0.55475392204E+02 -0.19309133375E+03  0.23775837204E+03  0.12509000000E+03 0.  0.
         25    1    4    4    0    0  0.52901696953E+02  0.10994455458E+02 -0.31653789087E+03  0.34462038832E+03  0.12509000000E+03 0.  0.
<mgrwt>
<rscale>  2 0.44982588E+03</rscale>
<asrwt>0</asrwt>
<pdfrwt beam="1">  1       21 0.74367896E-02 0.44982588E+03</pdfrwt>
<pdfrwt beam="2">  1       21 0.14710437E+00 0.44982588E+03</pdfrwt>
<totfact> 0.38788042E+04</totfact>
</mgrwt>
</event>
<event>
 7    0  0.4737014E-002  0.4530647E+03  0.7546771E-02  0.1026812E+00
         21   -1    0    0  502  501  0.00000000000E+00  0.00000000000E+00  0.49736414078E+03  0.49736414078E+03  0.00000000000E+00 0. -1.
         21   -1    0    0  501  502 -0.00000000000E+00 -0.00000000000E+00 -0.10317774497E+03  0.10317774497E+03  0.00000000000E+00 0. -1.
      99926    2    1    2    0    0  0.00000000000E+00  0.71054273576E-14  0.39418639581E+03  0.60054188575E+03  0.45306472153E+03 0.  0.
      99925    2    3    3    0    0 -0.37544555021E+02 -0.40978318226E+02  0.12006643138E+03  0.29414658687E+03  0.26271172499E+03 0.  0.
         25    1    3    3    0    0  0.37544555021E+02  0.40978318226E+02  0.27411996443E+03  0.30639529888E+03  0.12509000000E+03 0.  0.
         25    1    4    4    0    0 -0.45077424310E+02 -0.68607258796E+00  0.85381525227E+02  0.15801885276E+03  0.12509000000E+03 0.  0.
         25    1    4    4    0    0  0.75328692894E+01 -0.40292245638E+02  0.34684906151E+02  0.13612773411E+03  0.12509000000E+03 0.  0.
<mgrwt>
<rscale>  2 0.45306472E+03</rscale>
<asrwt>0</asrwt>
<pdfrwt beam="1">  1       21 0.73141784E-01 0.45306472E+03</pdfrwt>
<pdfrwt beam="2">  1       21 0.15173198E-01 0.45306472E+03</pdfrwt>
<totfact> 0.59550284E+04</totfact>
</mgrwt>
</event>
<event>
 7    0  0.4737014E-002  0.4493361E+03  0.7546771E-02  0.1027920E+00
         21   -1    0    0  502  501  0.00000000000E+00  0.00000000000E+00  0.19959340426E+03  0.19959340426E+03  0.00000000000E+00 0.  1.
         21   -1    0    0  501  502 -0.00000000000E+00 -0.00000000000E+00 -0.25289281669E+03  0.25289281669E+03  0.00000000000E+00 0.  1.
      99926    2    1    2    0    0 -0.71054273576E-14  0.00000000000E+00 -0.53299412430E+02  0.45248622095E+03  0.44933612450E+03 0.  0.
      99925    2    3    3    0    0 -0.53860698547E+02  0.26822806817E+02 -0.12375505392E+03  0.29682009319E+03  0.26299508842E+03 0.  0.
         25    1    4    4    0    0 -0.28904296829E+02 -0.99895096367E+01 -0.97419290828E+02  0.16147221124E+03  0.12509000000E+03 0.  0.
         25    1    3    3    0    0  0.53860698547E+02 -0.26822806817E+02  0.70455641491E+02  0.15566612776E+03  0.12509000000E+03 0.  0.
         25    1    4    4    0    0 -0.24956401718E+02  0.36812316453E+02 -0.26335763093E+02  0.13534788195E+03  0.12509000000E+03 0.  0.
<mgrwt>
<rscale>  2 0.44933612E+03</rscale>
<asrwt>0</asrwt>
<pdfrwt beam="1">  1       21 0.29351972E-01 0.44933612E+03</pdfrwt>
<pdfrwt beam="2">  1       21 0.37190120E-01 0.44933612E+03</pdfrwt>
<totfact> 0.71925931E+04</totfact>
</mgrwt>
</event>
<event>
 7    0  0.4737014E-002  0.4549633E+03  0.7546771E-02  0.1026252E+00
         21   -1    0    0  502  501  0.00000000000E+00  0.00000000000E+00  0.27804044863E+02  0.27804044863E+02  0.00000000000E+00 0.  1.
         21   -1    0    0  501  502 -0.00000000000E+00 -0.00000000000E+00 -0.18611647389E+04  0.18611647389E+04  0.00000000000E+00 0.  1.
      99926    2    1    2    0    0  0.35527136788E-14  0.00000000000E+00 -0.18333606941E+04  0.18889687838E+04  0.45496332995E+03 0.  0.
      99925    2    3    3    0    0  0.17088898124E+02 -0.62096842887E+02 -0.15411097564E+04  0.15646137823E+04  0.26239084988E+03 0.  0.
         25    1    3    3    0    0 -0.17088898124E+02  0.62096842887E+02 -0.29225093762E+03  0.32435500147E+03  0.12509000000E+03 0.  0.
         25    1    4    4    0    0 -0.14683949712E+02 -0.51766040762E+01 -0.84563196355E+03  0.85497563795E+03  0.12509000000E+03 0.  0.
         25    1    4    4    0    0  0.31772847836E+02 -0.56920238811E+02 -0.69547779289E+03  0.70963814438E+03  0.12509000000E+03 0.  0.
<mgrwt>
<rscale>  2 0.45496333E+03</rscale>
<asrwt>0</asrwt>
<pdfrwt beam="1">  1       21 0.40888308E-02 0.45496333E+03</pdfrwt>
<pdfrwt beam="2">  1       21 0.27370065E+00 0.45496333E+03</pdfrwt>
<totfact> 0.15612861E+04</totfact>
</mgrwt>
</event>
<event>
 7    0  0.4737014E-002  0.4538248E+03  0.7546771E-02  0.1026588E+00
         21   -1    0    0  502  501  0.00000000000E+00  0.00000000000E+00  0.34219781883E+03  0.34219781883E+03  0.00000000000E+00 0. -1.
         21   -1    0    0  501  502 -0.00000000000E+00 -0.00000000000E+00 -0.15046629912E+03  0.15046629912E+03  0.00000000000E+00 0. -1.
      99926    2    1    2    0    0  0.00000000000E+00  0.14210854715E-13  0.19173151971E+03  0.49266411796E+03  0.45382480923E+03 0.  0.
      99925    2    3    3    0    0 -0.34160397796E+02 -0.70877491403E+02  0.34011864160E+02  0.27653094278E+03  0.26291063852E+03 0.  0.
         25    1    3    3    0    0  0.34160397796E+02  0.70877491403E+02  0.15771965555E+03  0.21613317518E+03  0.12509000000E+03 0.  0.
         25    1    4    4    0    0 -0.15435583427E+02 -0.59394346573E+02 -0.15554021950E+02  0.14019765098E+03  0.12509000000E+03 0.  0.
         25    1    4    4    0    0 -0.18724814369E+02 -0.11483144830E+02  0.49565886109E+02  0.13633329180E+03  0.12509000000E+03 0.  0.
<mgrwt>
<rscale>  2 0.45382481E+03</rscale>
<asrwt>0</asrwt>
<pdfrwt beam="1">  1       21 0.50323209E-01 0.45382481E+03</pdfrwt>
<pdfrwt beam="2">  1       21 0.22127397E-01 0.45382481E+03</pdfrwt>
<totfact> 0.66406533E+04</totfact>
</mgrwt>
</event>
<event>
 7    0  0.4737014E-002  0.4498535E+03  0.7546771E-02  0.1027766E+00
         21   -1    0    0  502  501  0.00000000000E+00  0.00000000000E+00  0.54941487203E+02  0.54941487203E+02  0.00000000000E+00 0. -1.
         21   -1    0    0  501  502 -0.00000000000E+00 -0.00000000000E+00 -0.92083480140E+03  0.92083480140E+03  0.00000000000E+00 0. -1.
      99926    2    1    2    0    0  0.00000000000E+00  0.00000000000E+00 -0.86589331420E+03  0.97577628860E+03  0.44985345817E+03 0.  0.
      99925    2    3    3    0    0  0.72874491493E+02 -0.79896898292E+02 -0.53361124974E+03  0.60462526230E+03  0.26293827430E+03 0.  0.
         25    1    3    3    0    0 -0.72874491493E+02  0.79896898292E+02 -0.33228206446E+03  0.37115102631E+03  0.12509000000E+03 0.  0.
         25    1    4    4    0    0  0.54330238894E+02 -0.44193841839E+02 -0.20004164785E+03  0.24610778023E+03  0.12509000000E+03 0.  0.
         25    1    4    4    0    0  0.18544252599E+02 -0.35703056453E+02 -0.33356960188E+03  0.35851748206E+03  0.12509000000E+03 0.  0.
<mgrwt>
<rscale>  2 0.44985346E+03</rscale>
<asrwt>0</asrwt>
<pdfrwt beam="1">  1       21 0.80796310E-02 0.44985346E+03</pdfrwt>
<pdfrwt beam="2">  1       21 0.13541687E+00 0.44985346E+03</pdfrwt>
<totfact> 0.41769580E+04</totfact>
</mgrwt>
</event>
<event>
 7    0  0.4737014E-002  0.4369194E+03  0.7546771E-02  0.1031696E+00
         21   -1    0    0  502  501  0.00000000000E+00  0.00000000000E+00  0.25987467222E+04  0.25987467222E+04  0.00000000000E+00 0. -1.
         21   -1    0    0  501  502 -0.00000000000E+00 -0.00000000000E+00 -0.18364480466E+02  0.18364480466E+02  0.00000000000E+00 0. -1.
      99926    2    1    2    0    0  0.35527136788E-14  0.00000000000E+00  0.25803822418E+04  0.26171112027E+04  0.43691936746E+03 0.  0.
      99925    2    3    3    0    0  0.30484120958E+02 -0.28990702375E+02  0.21641401168E+04  0.21804479948E+04  0.26283316063E+03 0.  0.
         25    1    4    4    0    0  0.10068103176E+02 -0.23740672530E+02  0.76704382391E+03  0.77760447666E+03  0.12509000000E+03 0.  0.
         25    1    3    3    0    0 -0.30484120958E+02  0.28990702375E+02  0.41624212493E+03  0.43666320789E+03  0.12509000000E+03 0.  0.
         25    1    4    4    0    0  0.20416017782E+02 -0.52500298452E+01  0.13970962929E+04  0.14028435181E+04  0.12509000000E+03 0.  0.
<mgrwt>
<rscale>  2 0.43691937E+03</rscale>
<asrwt>0</asrwt>
<pdfrwt beam="1">  1       21 0.38216838E+00 0.43691937E+03</pdfrwt>
<pdfrwt beam="2">  1       21 0.27006607E-02 0.43691937E+03</pdfrwt>
<totfact> 0.69304850E+03</totfact>
</mgrwt>
</event>
<event>
 7    0  0.4737014E-002  0.4124205E+03  0.7546771E-02  0.1039562E+00
         21   -1    0    0  502  501  0.00000000000E+00  0.00000000000E+00  0.59167091150E+02  0.59167091150E+02  0.00000000000E+00 0. -1.
         21   -1    0    0  501  502 -0.00000000000E+00 -0.00000000000E+00 -0.71868768891E+03  0.71868768891E+03  0.00000000000E+00 0. -1.
      99926    2    1    2    0    0  0.00000000000E+00 -0.88817841970E-15 -0.65952059776E+03  0.77785478006E+03  0.41242046505E+03 0.  0.
      99925    2    3    3    0    0  0.56694782056E+02 -0.12661369387E+01 -0.37083814491E+03  0.45816591867E+03  0.26301934889E+03 0.  0.
         25    1    3    3    0    0 -0.56694782056E+02  0.12661369387E+01 -0.28868245285E+03  0.31968886139E+03  0.12509000000E+03 0.  0.
         25    1    4    4    0    0  0.60190676407E+02  0.23508924531E+02 -0.17800390164E+03  0.22695480642E+03  0.12509000000E+03 0.  0.
         25    1    4    4    0    0 -0.34958943517E+01 -0.24775061469E+02 -0.19283424327E+03  0.23121111224E+03  0.12509000000E+03 0.  0.
<mgrwt>
<rscale>  2 0.41242047E+03</rscale>
<asrwt>0</asrwt>
<pdfrwt beam="1">  1       21 0.87010433E-02 0.41242047E+03</pdfrwt>
<pdfrwt beam="2">  1       21 0.10568936E+00 0.41242047E+03</pdfrwt>
<totfact> 0.69262082E+04</totfact>
</mgrwt>
</event>
<event>
 7    0  0.4737014E-002  0.4578733E+03  0.7546771E-02  0.1025400E+00
         21   -1    0    0  502  501  0.00000000000E+00  0.00000000000E+00  0.14167265399E+03  0.14167265399E+03  0.00000000000E+00 0. -1.
         21   -1    0    0  501  502 -0.00000000000E+00 -0.00000000000E+00 -0.36995131210E+03  0.36995131210E+03  0.00000000000E+00 0. -1.
      99926    2    1    2    0    0  0.00000000000E+00 -0.71054273576E-14 -0.22827865812E+03  0.51162396609E+03  0.45787327606E+03 0.  0.
      99925    2    3    3    0    0 -0.37724704820E+02 -0.37718115974E+02 -0.25816569445E+03  0.37238836480E+03  0.26301665122E+03 0.  0.
         25    1    4    4    0    0 -0.54895259621E+02 -0.36136112651E+02 -0.15059160218E+03  0.20650580359E+03  0.12509000000E+03 0.  0.
         25    1    3    3    0    0  0.37724704820E+02  0.37718115974E+02  0.29887036336E+02  0.13923560129E+03  0.12509000000E+03 0.  0.
         25    1    4    4    0    0  0.17170554801E+02 -0.15820033231E+01 -0.10757409227E+03  0.16588256121E+03  0.12509000000E+03 0.  0.
<mgrwt>
<rscale>  2 0.45787328E+03</rscale>
<asrwt>0</asrwt>
<pdfrwt beam="1">  1       21 0.20834214E-01 0.45787328E+03</pdfrwt>
<pdfrwt beam="2">  1       21 0.54404604E-01 0.45787328E+03</pdfrwt>
<totfact> 0.63012330E+04</totfact>
</mgrwt>
</event>
<event>
 7    0  0.4737014E-002  0.4446023E+03  0.7546771E-02  0.1029344E+00
         21   -1    0    0  502  501  0.00000000000E+00  0.00000000000E+00  0.22287330055E+03  0.22287330055E+03  0.00000000000E+00 0.  1.
         21   -1    0    0  501  502 -0.00000000000E+00 -0.00000000000E+00 -0.22173047686E+03  0.22173047686E+03  0.00000000000E+00 0.  1.
      99926    2    1    2    0    0  0.17763568394E-14  0.00000000000E+00  0.11428236860E+01  0.44460377740E+03  0.44460230863E+03 0.  0.
      99925    2    3    3    0    0 -0.14967900178E+02  0.92024120842E+02 -0.43311085657E+02  0.28238129127E+03  0.26300354877E+03 0.  0.
         25    1    4    4    0    0 -0.41700340539E+02  0.57327055344E+02 -0.28599770887E+01  0.14380889140E+03  0.12509000000E+03 0.  0.
         25    1    3    3    0    0  0.14967900178E+02 -0.92024120842E+02  0.44453909343E+02  0.16222248614E+03  0.12509000000E+03 0.  0.
         25    1    4    4    0    0  0.26732440361E+02  0.34697065497E+02 -0.40451108569E+02  0.13857239987E+03  0.12509000000E+03 0.  0.
<mgrwt>
<rscale>  2 0.44460231E+03</rscale>
<asrwt>0</asrwt>
<pdfrwt beam="1">  1       21 0.32775486E-01 0.44460231E+03</pdfrwt>
<pdfrwt beam="2">  1       21 0.32607423E-01 0.44460231E+03</pdfrwt>
<totfact> 0.75376212E+04</totfact>
</mgrwt>
</event>
<event>
 7    0  0.4737014E-002  0.4517258E+03  0.7546771E-02  0.1027209E+00
         21   -1    0    0  502  501  0.00000000000E+00  0.00000000000E+00  0.31601329632E+03  0.31601329632E+03  0.00000000000E+00 0.  1.
         21   -1    0    0  501  502 -0.00000000000E+00 -0.00000000000E+00 -0.16143009989E+03  0.16143009989E+03  0.00000000000E+00 0.  1.
      99926    2    1    2    0    0  0.35527136788E-14  0.00000000000E+00  0.15458319643E+03  0.47744339621E+03  0.45172583717E+03 0.  0.
      99925    2    3    3    0    0 -0.18248731231E+02 -0.90752633603E+02  0.34374596564E+02  0.28080496589E+03  0.26287023278E+03 0.  0.
         25    1    4    4    0    0  0.18079524793E+02 -0.54336635327E+02 -0.11324510250E+02  0.13804018179E+03  0.12509000000E+03 0.  0.
         25    1    4    4    0    0 -0.36328256023E+02 -0.36415998275E+02  0.45699106814E+02  0.14276478410E+03  0.12509000000E+03 0.  0.
         25    1    3    3    0    0  0.18248731231E+02  0.90752633603E+02  0.12020859987E+03  0.19663843032E+03  0.12509000000E+03 0.  0.
<mgrwt>
<rscale>  2 0.45172584E+03</rscale>
<asrwt>0</asrwt>
<pdfrwt beam="1">  1       21 0.46472544E-01 0.45172584E+03</pdfrwt>
<pdfrwt beam="2">  1       21 0.23739721E-01 0.45172584E+03</pdfrwt>
<totfact> 0.68653562E+04</totfact>
</mgrwt>
</event>
<event>
 7    0  0.4737014E-002  0.4539504E+03  0.7546771E-02  0.1026551E+00
         21   -1    0    0  502  501  0.00000000000E+00  0.00000000000E+00  0.19677814466E+03  0.19677814466E+03  0.00000000000E+00 0. -1.
         21   -1    0    0  501  502 -0.00000000000E+00 -0.00000000000E+00 -0.26180620978E+03  0.26180620978E+03  0.00000000000E+00 0. -1.
      99926    2    1    2    0    0  0.71054273576E-14 -0.28421709430E-13 -0.65028065121E+02  0.45858435444E+03  0.45395039474E+03 0.  0.
      99925    2    3    3    0    0 -0.30112363999E+02  0.10814220587E+03 -0.41069913388E+02  0.28881099879E+03  0.26291360573E+03 0.  0.
         25    1    4    4    0    0 -0.40172834741E+02  0.21001294872E+02 -0.21638597126E+02  0.13479854607E+03  0.12509000000E+03 0.  0.
         25    1    4    4    0    0  0.10060470742E+02  0.87140910993E+02 -0.19431316262E+02  0.15401245272E+03  0.12509000000E+03 0.  0.
         25    1    3    3    0    0  0.30112363999E+02 -0.10814220587E+03 -0.23958151733E+02  0.16977335565E+03  0.12509000000E+03 0.  0.
<mgrwt>
<rscale>  2 0.45395039E+03</rscale>
<asrwt>0</asrwt>
<pdfrwt beam="1">  1       21 0.28937962E-01 0.45395039E+03</pdfrwt>
<pdfrwt beam="2">  1       21 0.38500913E-01 0.45395039E+03</pdfrwt>
<totfact> 0.68858431E+04</totfact>
</mgrwt>
</event>
<event>
 7    0  0.4737014E-002  0.4701053E+03  0.7546771E-02  0.1021890E+00
         21   -1    0    0  502  501  0.00000000000E+00  0.00000000000E+00  0.45264532043E+03  0.45264532043E+03  0.00000000000E+00 0. -1.
         21   -1    0    0  501  502 -0.00000000000E+00 -0.00000000000E+00 -0.12205968189E+03  0.12205968189E+03  0.00000000000E+00 0. -1.
      99926    2    1    2    0    0  0.00000000000E+00  0.00000000000E+00  0.33058563854E+03  0.57470500232E+03  0.47010528107E+03 0.  0.
      99925    2    3    3    0    0 -0.53523868117E+02 -0.10449892338E+03  0.26407439532E+03  0.39070477673E+03  0.26292604825E+03 0.  0.
         25    1    4    4    0    0  0.63805413320E+01 -0.75525817018E+02  0.13388040990E+03  0.19828346527E+03  0.12509000000E+03 0.  0.
         25    1    3    3    0    0  0.53523868117E+02  0.10449892338E+03  0.66511243214E+02  0.18400022559E+03  0.12509000000E+03 0.  0.
         25    1    4    4    0    0 -0.59904409449E+02 -0.28973106357E+02  0.13019398542E+03  0.19242131146E+03  0.12509000000E+03 0.  0.
<mgrwt>
<rscale>  2 0.47010528E+03</rscale>
<asrwt>0</asrwt>
<pdfrwt beam="1">  1       21 0.66565488E-01 0.47010528E+03</pdfrwt>
<pdfrwt beam="2">  1       21 0.17949953E-01 0.47010528E+03</pdfrwt>
<totfact> 0.53571697E+04</totfact>
</mgrwt>
</event>
<event>
 7    0  0.4737014E-002  0.4583445E+03  0.7546771E-02  0.1025262E+00
         21   -1    0    0  502  501  0.00000000000E+00  0.00000000000E+00  0.72779061481E+02  0.72779061481E+02  0.00000000000E+00 0. -1.
         21   -1    0    0  501  502 -0.00000000000E+00 -0.00000000000E+00 -0.72163513920E+03  0.72163513920E+03  0.00000000000E+00 0. -1.
      99926    2    1    2    0    0 -0.71054273576E-14  0.00000000000E+00 -0.64885607772E+03  0.79441420069E+03  0.45834453488E+03 0.  0.
      99925    2    3    3    0    0  0.49553218476E+02 -0.49754875511E+02 -0.24496776887E+03  0.36580675414E+03  0.26243914437E+03 0.  0.
         25    1    4    4    0    0  0.39320700718E+01  0.10319447526E+02 -0.11099915237E+03  0.16760152773E+03  0.12509000000E+03 0.  0.
         25    1    3    3    0    0 -0.49553218476E+02  0.49754875511E+02 -0.40388830886E+03  0.42860744654E+03  0.12509000000E+03 0.  0.
         25    1    4    4    0    0  0.45621148404E+02 -0.60074323038E+02 -0.13396861650E+03  0.19820522641E+03  0.12509000000E+03 0.  0.
<mgrwt>
<rscale>  2 0.45834453E+03</rscale>
<asrwt>0</asrwt>
<pdfrwt beam="1">  1       21 0.10702803E-01 0.45834453E+03</pdfrwt>
<pdfrwt beam="2">  1       21 0.10612281E+00 0.45834453E+03</pdfrwt>
<totfact> 0.46795730E+04</totfact>
</mgrwt>
</event>
<event>
 7    0  0.4737014E-002  0.4580610E+03  0.7546771E-02  0.1025345E+00
         21   -1    0    0  502  501  0.00000000000E+00  0.00000000000E+00  0.42045526222E+03  0.42045526222E+03  0.00000000000E+00 0.  1.
         21   -1    0    0  501  502 -0.00000000000E+00 -0.00000000000E+00 -0.12475757985E+03  0.12475757985E+03  0.00000000000E+00 0.  1.
      99926    2    1    2    0    0  0.35527136788E-14  0.00000000000E+00  0.29569768238E+03  0.54521284207E+03  0.45806104811E+03 0.  0.
      99925    2    3    3    0    0 -0.23460555590E+02 -0.11044859437E+03  0.21693601758E+03  0.35920155852E+03  0.26308788314E+03 0.  0.
         25    1    3    3    0    0  0.23460555590E+02  0.11044859437E+03  0.78761664794E+02  0.18601128355E+03  0.12509000000E+03 0.  0.
         25    1    4    4    0    0 -0.33944717706E+02 -0.51637577952E+02  0.15134908584E+03  0.20584639225E+03  0.12509000000E+03 0.  0.
         25    1    4    4    0    0  0.10484162117E+02 -0.58811016415E+02  0.65586931740E+02  0.15335516627E+03  0.12509000000E+03 0.  0.
<mgrwt>
<rscale>  2 0.45806105E+03</rscale>
<asrwt>0</asrwt>
<pdfrwt beam="1">  1       21 0.61831656E-01 0.45806105E+03</pdfrwt>
<pdfrwt beam="2">  1       21 0.18346703E-01 0.45806105E+03</pdfrwt>
<totfact> 0.60700275E+04</totfact>
</mgrwt>
</event>
<event>
 7    0  0.4737014E-002  0.4275388E+03  0.7546771E-02  0.1034640E+00
         21   -1    0    0  502  501  0.00000000000E+00  0.00000000000E+00  0.12511696829E+04  0.12511696829E+04  0.00000000000E+00 0.  1.
         21   -1    0    0  501  502 -0.00000000000E+00 -0.00000000000E+00 -0.36523704071E+02  0.36523704071E+02  0.00000000000E+00 0.  1.
      99926    2    1    2    0    0  0.17763568394E-14  0.00000000000E+00  0.12146459788E+04  0.12876933869E+04  0.42753877597E+03 0.  0.
      99925    2    3    3    0    0  0.11960025943E+02 -0.70134400971E+02  0.92460038947E+03  0.96390977338E+03  0.26301006557E+03 0.  0.
         25    1    4    4    0    0  0.18259312597E+02 -0.21487874736E+02  0.58078269741E+03  0.59476985547E+03  0.12509000000E+03 0.  0.
         25    1    4    4    0    0 -0.62992866548E+01 -0.48646526235E+02  0.34381769205E+03  0.36913991791E+03  0.12509000000E+03 0.  0.
         25    1    3    3    0    0 -0.11960025943E+02  0.70134400971E+02  0.29004558933E+03  0.32378361356E+03  0.12509000000E+03 0.  0.
<mgrwt>
<rscale>  2 0.42753878E+03</rscale>
<asrwt>0</asrwt>
<pdfrwt beam="1">  1       21 0.18399551E+00 0.42753878E+03</pdfrwt>
<pdfrwt beam="2">  1       21 0.53711338E-02 0.42753878E+03</pdfrwt>
<totfact> 0.36711336E+04</totfact>
</mgrwt>
</event>
<event>
 7    0  0.4737014E-002  0.4553177E+03  0.7546771E-02  0.1026148E+00
         21   -1    0    0  502  501  0.00000000000E+00  0.00000000000E+00  0.28725765397E+03  0.28725765397E+03  0.00000000000E+00 0.  1.
         21   -1    0    0  501  502 -0.00000000000E+00 -0.00000000000E+00 -0.18042530435E+03  0.18042530435E+03  0.00000000000E+00 0.  1.
      99926    2    1    2    0    0  0.00000000000E+00  0.00000000000E+00  0.10683234961E+03  0.46768295832E+03  0.45531768973E+03 0.  0.
      99925    2    3    3    0    0  0.67086291265E+02  0.16881731119E+02 -0.25148344487E+02  0.27312711791E+03  0.26302171011E+03 0.  0.
         25    1    4    4    0    0  0.30418737849E+02 -0.19509467627E+01 -0.51749080285E+02  0.13876087783E+03  0.12509000000E+03 0.  0.
         25    1    3    3    0    0 -0.67086291265E+02 -0.16881731119E+02  0.13198069410E+03  0.19455584041E+03  0.12509000000E+03 0.  0.
         25    1    4    4    0    0  0.36667553416E+02  0.18832677882E+02  0.26600735798E+02  0.13436624009E+03  0.12509000000E+03 0.  0.
<mgrwt>
<rscale>  2 0.45531769E+03</rscale>
<asrwt>0</asrwt>
<pdfrwt beam="1">  1       21 0.42243773E-01 0.45531769E+03</pdfrwt>
<pdfrwt beam="2">  1       21 0.26533133E-01 0.45531769E+03</pdfrwt>
<totfact> 0.67438521E+04</totfact>
</mgrwt>
</event>
<event>
 7    0  0.4737014E-002  0.4615316E+03  0.7546771E-02  0.1024338E+00
         21   -1    0    0  502  501  0.00000000000E+00  0.00000000000E+00  0.13550699798E+03  0.13550699798E+03  0.00000000000E+00 0. -1.
         21   -1    0    0  501  502 -0.00000000000E+00 -0.00000000000E+00 -0.39298974722E+03  0.39298974722E+03  0.00000000000E+00 0. -1.
      99926    2    1    2    0    0  0.00000000000E+00  0.71054273576E-14 -0.25748274924E+03  0.52849674519E+03  0.46153162787E+03 0.  0.
      99925    2    3    3    0    0  0.42147389842E+01  0.32094089200E+02 -0.29767357829E+02  0.26667695570E+03  0.26302606054E+03 0.  0.
         25    1    3    3    0    0 -0.42147389842E+01 -0.32094089200E+02 -0.22771539141E+03  0.26181978950E+03  0.12509000000E+03 0.  0.
         25    1    4    4    0    0 -0.50695405122E+01 -0.15668314476E+02 -0.39220282238E+02  0.13212469473E+03  0.12509000000E+03 0.  0.
         25    1    4    4    0    0  0.92842794963E+01  0.47762403676E+02  0.94529244089E+01  0.13455226096E+03  0.12509000000E+03 0.  0.
<mgrwt>
<rscale>  2 0.46153163E+03</rscale>
<asrwt>0</asrwt>
<pdfrwt beam="1">  1       21 0.19927500E-01 0.46153163E+03</pdfrwt>
<pdfrwt beam="2">  1       21 0.57792609E-01 0.46153163E+03</pdfrwt>
<totfact> 0.60133920E+04</totfact>
</mgrwt>
</event>
<event>
 7    0  0.5939893E-002  0.4158267E+03  0.7546771E-02  0.1038433E+00
         21   -1    0    0  502  501  0.00000000000E+00  0.00000000000E+00  0.26413981683E+03  0.26413981683E+03  0.00000000000E+00 0.  1.
         21   -1    0    0  501  502 -0.00000000000E+00 -0.00000000000E+00 -0.16365559506E+03  0.16365559506E+03  0.00000000000E+00 0.  1.
      99926    2    1    2    0    0 -0.17763568394E-14  0.00000000000E+00  0.10048422177E+03  0.42779541189E+03  0.41582668939E+03 0.  0.
      99925    2    3    3    0    0 -0.68451151997E+01  0.55538773172E+02  0.10796924600E+03  0.29055494914E+03  0.26388143068E+03 0.  0.
         25    1    3    3    0    0  0.68451151997E+01 -0.55538773172E+02 -0.74850242305E+01  0.13724046275E+03  0.12509000000E+03 0.  0.
         25    1    4    4    0    0 -0.17009746072E+02  0.66720562369E+02  0.45098608534E+02  0.14974096799E+03  0.12509000000E+03 0.  0.
         25    1    4    4    0    0  0.10164630872E+02 -0.11181789196E+02  0.62870637464E+02  0.14081398114E+03  0.12509000000E+03 0.  0.
<mgrwt>
<rscale>  2 0.41582669E+03</rscale>
<asrwt>0</asrwt>
<pdfrwt beam="1">  1       21 0.38844091E-01 0.41582669E+03</pdfrwt>
<pdfrwt beam="2">  1       21 0.24066999E-01 0.41582669E+03</pdfrwt>
<totfact> 0.97715978E+04</totfact>
</mgrwt>
</event>
<event>
 7    0  0.4737014E-002  0.4534989E+03  0.7546771E-02  0.1026684E+00
         21   -1    0    0  502  501  0.00000000000E+00  0.00000000000E+00  0.48665982709E+03  0.48665982709E+03  0.00000000000E+00 0.  1.
         21   -1    0    0  501  502 -0.00000000000E+00 -0.00000000000E+00 -0.10564938607E+03  0.10564938607E+03  0.00000000000E+00 0.  1.
      99926    2    1    2    0    0  0.00000000000E+00  0.35527136788E-14  0.38101044102E+03  0.59230921316E+03  0.45349889506E+03 0.  0.
      99925    2    3    3    0    0 -0.98134398924E+02 -0.14413569830E+02  0.17289475805E+03  0.33001594819E+03  0.26302056469E+03 0.  0.
         25    1    3    3    0    0  0.98134398924E+02  0.14413569830E+02  0.20811568297E+03  0.26229326497E+03  0.12509000000E+03 0.  0.
         25    1    4    4    0    0 -0.57279414272E+02 -0.44408479370E+02  0.10675121513E+03  0.17971192050E+03  0.12509000000E+03 0.  0.
         25    1    4    4    0    0 -0.40854984653E+02  0.29994909540E+02  0.66143542920E+02  0.15030402769E+03  0.12509000000E+03 0.  0.
<mgrwt>
<rscale>  2 0.45349890E+03</rscale>
<asrwt>0</asrwt>
<pdfrwt beam="1">  1       21 0.71567621E-01 0.45349890E+03</pdfrwt>
<pdfrwt beam="2">  1       21 0.15536675E-01 0.45349890E+03</pdfrwt>
<totfact> 0.59861157E+04</totfact>
</mgrwt>
</event>
<event>
 7    0  0.4737014E-002  0.4557795E+03  0.7546771E-02  0.1026012E+00
         21   -1    0    0  502  501  0.00000000000E+00  0.00000000000E+00  0.72446412638E+02  0.72446412638E+02  0.00000000000E+00 0. -1.
         21   -1    0    0  501  502 -0.00000000000E+00 -0.00000000000E+00 -0.71685717161E+03  0.71685717161E+03  0.00000000000E+00 0. -1.
      99926    2    1    2    0    0  0.00000000000E+00  0.14210854715E-13 -0.64441075897E+03  0.78930358425E+03  0.45577946622E+03 0.  0.
      99925    2    3    3    0    0 -0.66869809251E+02  0.84649791716E+02 -0.34216033719E+03  0.44486203014E+03  0.26304252677E+03 0.  0.
         25    1    4    4    0    0 -0.50897911672E+02  0.48739088128E+02 -0.12103341720E+03  0.18778363162E+03  0.12509000000E+03 0.  0.
         25    1    4    4    0    0 -0.15971897580E+02  0.35910703589E+02 -0.22112691998E+03  0.25707839852E+03  0.12509000000E+03 0.  0.
         25    1    3    3    0    0  0.66869809251E+02 -0.84649791716E+02 -0.30225042179E+03  0.34444155411E+03  0.12509000000E+03 0.  0.
<mgrwt>
<rscale>  2 0.45577947E+03</rscale>
<asrwt>0</asrwt>
<pdfrwt beam="1">  1       21 0.10653884E-01 0.45577947E+03</pdfrwt>
<pdfrwt beam="2">  1       21 0.10542017E+00 0.45577947E+03</pdfrwt>
<totfact> 0.47992284E+04</totfact>
</mgrwt>
</event>
<event>
 7    0  0.4737014E-002  0.4609413E+03  0.7546771E-02  0.1024509E+00
         21   -1    0    0  502  501  0.00000000000E+00  0.00000000000E+00  0.45106303112E+02  0.45106303112E+02  0.00000000000E+00 0.  1.
         21   -1    0    0  501  502 -0.00000000000E+00 -0.00000000000E+00 -0.11775899082E+04  0.11775899082E+04  0.00000000000E+00 0.  1.
      99926    2    1    2    0    0  0.00000000000E+00 -0.14210854715E-13 -0.11324836051E+04  0.12226962113E+04  0.46094132964E+03 0.  0.
      99925    2    3    3    0    0  0.88188997734E+02 -0.78793795363E+02 -0.67841214578E+03  0.73708920995E+03  0.26281495844E+03 0.  0.
         25    1    4    4    0    0  0.54568514425E+02 -0.17904507706E+02 -0.24980976580E+03  0.28522047849E+03  0.12509000000E+03 0.  0.
         25    1    4    4    0    0  0.33620483309E+02 -0.60889287658E+02 -0.42860237997E+03  0.45186873146E+03  0.12509000000E+03 0.  0.
         25    1    3    3    0    0 -0.88188997734E+02  0.78793795363E+02 -0.45407145933E+03  0.48560700138E+03  0.12509000000E+03 0.  0.
<mgrwt>
<rscale>  2 0.46094133E+03</rscale>
<asrwt>0</asrwt>
<pdfrwt beam="1">  1       21 0.66332797E-02 0.46094133E+03</pdfrwt>
<pdfrwt beam="2">  1       21 0.17317499E+00 0.46094133E+03</pdfrwt>
<totfact> 0.30030874E+04</totfact>
</mgrwt>
</event>
<event>
 7    0  0.4737014E-002  0.4659449E+03  0.7546771E-02  0.1023071E+00
         21   -1    0    0  502  501  0.00000000000E+00  0.00000000000E+00  0.15842194215E+03  0.15842194215E+03  0.00000000000E+00 0. -1.
         21   -1    0    0  501  502 -0.00000000000E+00 -0.00000000000E+00 -0.34260501793E+03  0.34260501793E+03  0.00000000000E+00 0. -1.
      99926    2    1    2    0    0  0.00000000000E+00  0.00000000000E+00 -0.18418307578E+03  0.50102696008E+03  0.46594485653E+03 0.  0.
      99925    2    3    3    0    0 -0.70300300764E+02  0.19728251862E+02 -0.22146106407E+03  0.35146596009E+03  0.26296764438E+03 0.  0.
         25    1    4    4    0    0 -0.54557989703E+02  0.45789384102E+02 -0.10973575546E+03  0.18100465757E+03  0.12509000000E+03 0.  0.
         25    1    4    4    0    0 -0.15742311060E+02 -0.26061132241E+02 -0.11172530861E+03  0.17046130252E+03  0.12509000000E+03 0.  0.
         25    1    3    3    0    0  0.70300300764E+02 -0.19728251862E+02  0.37277988289E+02  0.14956100000E+03  0.12509000000E+03 0.  0.
<mgrwt>
<rscale>  2 0.46594486E+03</rscale>
<asrwt>0</asrwt>
<pdfrwt beam="1">  1       21 0.23297345E-01 0.46594486E+03</pdfrwt>
<pdfrwt beam="2">  1       21 0.50383090E-01 0.46594486E+03</pdfrwt>
<totfact> 0.59828876E+04</totfact>
</mgrwt>
</event>
<event>
 7    0  0.4737014E-002  0.4558614E+03  0.7546771E-02  0.1025988E+00
         21   -1    0    0  502  501  0.00000000000E+00  0.00000000000E+00  0.11086522223E+04  0.11086522223E+04  0.00000000000E+00 0. -1.
         21   -1    0    0  501  502 -0.00000000000E+00 -0.00000000000E+00 -0.46860860792E+02  0.46860860792E+02  0.00000000000E+00 0. -1.
      99926    2    1    2    0    0  0.26645352591E-14  0.14210854715E-13  0.10617913615E+04  0.11555130831E+04  0.45586137129E+03 0.  0.
      99925    2    3    3    0    0 -0.50197524385E+01 -0.11286792843E+03  0.70683424368E+03  0.76256724614E+03  0.26292544508E+03 0.  0.
         25    1    4    4    0    0 -0.41821386582E+02 -0.49237421367E+02  0.33076407585E+03  0.35947981029E+03  0.12509000000E+03 0.  0.
         25    1    4    4    0    0  0.36801634143E+02 -0.63630507061E+02  0.37607016784E+03  0.40308743585E+03  0.12509000000E+03 0.  0.
         25    1    3    3    0    0  0.50197524385E+01  0.11286792843E+03  0.35495711786E+03  0.39294583698E+03  0.12509000000E+03 0.  0.
<mgrwt>
<rscale>  2 0.45586137E+03</rscale>
<asrwt>0</asrwt>
<pdfrwt beam="1">  1       21 0.16303707E+00 0.45586137E+03</pdfrwt>
<pdfrwt beam="2">  1       21 0.68913038E-02 0.45586137E+03</pdfrwt>
<totfact> 0.33374230E+04</totfact>
</mgrwt>
</event>
<event>
 7    0  0.4737014E-002  0.4560943E+03  0.7546771E-02  0.1025920E+00
         21   -1    0    0  502  501  0.00000000000E+00  0.00000000000E+00  0.15288909218E+04  0.15288909218E+04  0.00000000000E+00 0.  1.
         21   -1    0    0  501  502 -0.00000000000E+00 -0.00000000000E+00 -0.34015183517E+02  0.34015183517E+02  0.00000000000E+00 0.  1.
      99926    2    1    2    0    0  0.00000000000E+00  0.00000000000E+00  0.14948757383E+04  0.15629061053E+04  0.45609431166E+03 0.  0.
      99925    2    3    3    0    0 -0.15552612832E+02  0.64513426169E+02  0.12580685104E+04  0.12869911960E+04  0.26307051470E+03 0.  0.
         25    1    4    4    0    0 -0.54871297947E+01 -0.44303189591E+01  0.49535373517E+03  0.51095260775E+03  0.12509000000E+03 0.  0.
         25    1    4    4    0    0 -0.10065483037E+02  0.68943745128E+02  0.76271477525E+03  0.77603858824E+03  0.12509000000E+03 0.  0.
         25    1    3    3    0    0  0.15552612832E+02 -0.64513426169E+02  0.23680722783E+03  0.27591490930E+03  0.12509000000E+03 0.  0.
<mgrwt>
<rscale>  2 0.45609431E+03</rscale>
<asrwt>0</asrwt>
<pdfrwt beam="1">  1       21 0.22483686E+00 0.45609431E+03</pdfrwt>
<pdfrwt beam="2">  1       21 0.50022339E-02 0.45609431E+03</pdfrwt>
<totfact> 0.22090349E+04</totfact>
</mgrwt>
</event>
<event>
 7    0  0.4737014E-002  0.4293863E+03  0.7546771E-02  0.1034054E+00
         21   -1    0    0  502  501  0.00000000000E+00  0.00000000000E+00  0.79056345329E+03  0.79056345329E+03  0.00000000000E+00 0.  1.
         21   -1    0    0  501  502 -0.00000000000E+00 -0.00000000000E+00 -0.58304166000E+02  0.58304166000E+02  0.00000000000E+00 0.  1.
      99926    2    1    2    0    0  0.00000000000E+00  0.71054273576E-14  0.73225928729E+03  0.84886761929E+03  0.42938627278E+03 0.  0.
      99925    2    3    3    0    0  0.43239485137E+02 -0.56017300695E+02  0.37289529943E+03  0.46183070255E+03  0.26311423836E+03 0.  0.
         25    1    4    4    0    0  0.37497727179E+02 -0.65338689780E+02  0.18198312137E+03  0.23332507043E+03  0.12509000000E+03 0.  0.
         25    1    3    3    0    0 -0.43239485137E+02  0.56017300695E+02  0.35936398786E+03  0.38703691674E+03  0.12509000000E+03 0.  0.
         25    1    4    4    0    0  0.57417579580E+01  0.93213890850E+01  0.19091217807E+03  0.22850563212E+03  0.12509000000E+03 0.  0.
<mgrwt>
<rscale>  2 0.42938627E+03</rscale>
<asrwt>0</asrwt>
<pdfrwt beam="1">  1       21 0.11625933E+00 0.42938627E+03</pdfrwt>
<pdfrwt beam="2">  1       21 0.85741425E-02 0.42938627E+03</pdfrwt>
<totfact> 0.55901854E+04</totfact>
</mgrwt>
</event>
<event>
 7    0  0.4737014E-002  0.4540170E+03  0.7546771E-02  0.1026531E+00
         21   -1    0    0  502  501  0.00000000000E+00  0.00000000000E+00  0.11965286280E+03  0.11965286280E+03  0.00000000000E+00 0. -1.
         21   -1    0    0  501  502 -0.00000000000E+00 -0.00000000000E+00 -0.43068629656E+03  0.43068629656E+03  0.00000000000E+00 0. -1.
      99926    2    1    2    0    0 -0.71054273576E-14  0.71054273576E-14 -0.31103343376E+03  0.55033915936E+03  0.45401695278E+03 0.  0.
      99925    2    3    3    0    0  0.62116848034E+02 -0.53912833373E+02 -0.28838668724E+03  0.39892753617E+03  0.26308021841E+03 0.  0.
         25    1    3    3    0    0 -0.62116848034E+02  0.53912833373E+02 -0.22646746513E+02  0.15141162320E+03  0.12509000000E+03 0.  0.
         25    1    4    4    0    0  0.30480111783E+02 -0.61946950605E+02 -0.18278332202E+03  0.23199938106E+03  0.12509000000E+03 0.  0.
         25    1    4    4    0    0  0.31636736251E+02  0.80341172322E+01 -0.10560336523E+03  0.16692815511E+03  0.12509000000E+03 0.  0.
<mgrwt>
<rscale>  2 0.45401695E+03</rscale>
<asrwt>0</asrwt>
<pdfrwt beam="1">  1       21 0.17596009E-01 0.45401695E+03</pdfrwt>
<pdfrwt beam="2">  1       21 0.63336220E-01 0.45401695E+03</pdfrwt>
<totfact> 0.62327456E+04</totfact>
</mgrwt>
</event>
<event>
 7    0  0.4737014E-002  0.4566747E+03  0.7546771E-02  0.1025750E+00
         21   -1    0    0  502  501  0.00000000000E+00  0.00000000000E+00  0.24179616117E+03  0.24179616117E+03  0.00000000000E+00 0.  1.
         21   -1    0    0  501  502 -0.00000000000E+00 -0.00000000000E+00 -0.21562772744E+03  0.21562772744E+03  0.00000000000E+00 0.  1.
      99926    2    1    2    0    0  0.71054273576E-14  0.00000000000E+00  0.26168433724E+02  0.45742388861E+03  0.45667474963E+03 0.  0.
      99925    2    3    3    0    0 -0.33985689987E+02  0.69470755604E+02  0.10071672838E+03  0.29254159925E+03  0.26354414224E+03 0.  0.
         25    1    4    4    0    0  0.77135404098E+01 -0.97295817274E-01  0.39842741462E+02  0.13150840399E+03  0.12509000000E+03 0.  0.
         25    1    3    3    0    0  0.33985689987E+02 -0.69470755604E+02 -0.74548294656E+02  0.16488228936E+03  0.12509000000E+03 0.  0.
         25    1    4    4    0    0 -0.41699230397E+02  0.69568051421E+02  0.60873986918E+02  0.16103319527E+03  0.12509000000E+03 0.  0.
<mgrwt>
<rscale>  2 0.45667475E+03</rscale>
<asrwt>0</asrwt>
<pdfrwt beam="1">  1       21 0.35558259E-01 0.45667475E+03</pdfrwt>
<pdfrwt beam="2">  1       21 0.31709960E-01 0.45667475E+03</pdfrwt>
<totfact> 0.67462628E+04</totfact>
</mgrwt>
</event>
<event>
 7    0  0.4737014E-002  0.4737903E+03  0.7546771E-02  0.1020856E+00
         21   -1    0    0  502  501  0.00000000000E+00  0.00000000000E+00  0.47872701056E+03  0.47872701056E+03  0.00000000000E+00 0.  1.
         21   -1    0    0  501  502 -0.00000000000E+00 -0.00000000000E+00 -0.11722612893E+03  0.11722612893E+03  0.00000000000E+00 0.  1.
      99926    2    1    2    0    0  0.17763568394E-14 -0.14210854715E-13  0.36150088162E+03  0.59595313949E+03  0.47379030916E+03 0.  0.
      99925    2    3    3    0    0 -0.14682031118E+02  0.11994242622E+03  0.28516650347E+03  0.40601579973E+03  0.26253980134E+03 0.  0.
         25    1    3    3    0    0  0.14682031118E+02 -0.11994242622E+03  0.76334378157E+02  0.18993733976E+03  0.12509000000E+03 0.  0.
         25    1    4    4    0    0 -0.17904353516E+02  0.83777374554E+02  0.19760568959E+03  0.24906772376E+03  0.12509000000E+03 0.  0.
         25    1    4    4    0    0  0.32223223981E+01  0.36165051666E+02  0.87560813876E+02  0.15694807597E+03  0.12509000000E+03 0.  0.
<mgrwt>
<rscale>  2 0.47379031E+03</rscale>
<asrwt>0</asrwt>
<pdfrwt beam="1">  1       21 0.70401030E-01 0.47379031E+03</pdfrwt>
<pdfrwt beam="2">  1       21 0.17239137E-01 0.47379031E+03</pdfrwt>
<totfact> 0.50932688E+04</totfact>
</mgrwt>
</event>
<event>
 7    0  0.4737014E-002  0.4551947E+03  0.7546771E-02  0.1026184E+00
         21   -1    0    0  502  501  0.00000000000E+00  0.00000000000E+00  0.74503205458E+02  0.74503205458E+02  0.00000000000E+00 0. -1.
         21   -1    0    0  501  502 -0.00000000000E+00 -0.00000000000E+00 -0.69527958511E+03  0.69527958511E+03  0.00000000000E+00 0. -1.
      99926    2    1    2    0    0  0.00000000000E+00 -0.26645352591E-14 -0.62077637965E+03  0.76978279057E+03  0.45519471781E+03 0.  0.
      99925    2    3    3    0    0  0.10930254645E+03 -0.63112329735E+01 -0.44021558063E+03  0.52435135704E+03  0.26299754728E+03 0.  0.
         25    1    4    4    0    0  0.62608974549E+02 -0.24924694947E+02 -0.28716214369E+03  0.32039152452E+03  0.12509000000E+03 0.  0.
         25    1    3    3    0    0 -0.10930254645E+03  0.63112329735E+01 -0.18056079902E+03  0.24543143353E+03  0.12509000000E+03 0.  0.
         25    1    4    4    0    0  0.46693571899E+02  0.18613461974E+02 -0.15305343694E+03  0.20395983252E+03  0.12509000000E+03 0.  0.
<mgrwt>
<rscale>  2 0.45519472E+03</rscale>
<asrwt>0</asrwt>
<pdfrwt beam="1">  1       21 0.10956354E-01 0.45519472E+03</pdfrwt>
<pdfrwt beam="2">  1       21 0.10224699E+00 0.45519472E+03</pdfrwt>
<totfact> 0.49185823E+04</totfact>
</mgrwt>
</event>
<event>
 7    0  0.4737014E-002  0.4445451E+03  0.7546771E-02  0.1029361E+00
         21   -1    0    0  502  501  0.00000000000E+00  0.00000000000E+00  0.62424899011E+03  0.62424899011E+03  0.00000000000E+00 0.  1.
         21   -1    0    0  501  502 -0.00000000000E+00 -0.00000000000E+00 -0.79143234014E+02  0.79143234014E+02  0.00000000000E+00 0.  1.
      99926    2    1    2    0    0  0.35527136788E-14 -0.14210854715E-13  0.54510575609E+03  0.70339222412E+03  0.44454508841E+03 0.  0.
      99925    2    3    3    0    0 -0.30888529031E+02  0.97103178348E+02  0.37233553407E+03  0.46700232123E+03  0.26281988059E+03 0.  0.
         25    1    3    3    0    0  0.30888529031E+02 -0.97103178348E+02  0.17277022202E+03  0.23638990289E+03  0.12509000000E+03 0.  0.
         25    1    4    4    0    0  0.14300374511E+02  0.23774078942E+02  0.19737970155E+03  0.23532097702E+03  0.12509000000E+03 0.  0.
         25    1    4    4    0    0 -0.45188903542E+02  0.73329099406E+02  0.17495583252E+03  0.23168134421E+03  0.12509000000E+03 0.  0.
<mgrwt>
<rscale>  2 0.44454509E+03</rscale>
<asrwt>0</asrwt>
<pdfrwt beam="1">  1       21 0.91801319E-01 0.44454509E+03</pdfrwt>
<pdfrwt beam="2">  1       21 0.11638711E-01 0.44454509E+03</pdfrwt>
<totfact> 0.57288764E+04</totfact>
</mgrwt>
</event>
<event>
 7    0  0.4737014E-002  0.4570495E+03  0.7546771E-02  0.1025640E+00
         21   -1    0    0  502  501  0.00000000000E+00  0.00000000000E+00  0.74402043878E+02  0.74402043878E+02  0.00000000000E+00 0.  1.
         21   -1    0    0  501  502 -0.00000000000E+00 -0.00000000000E+00 -0.70191020170E+03  0.70191020170E+03  0.00000000000E+00 0.  1.
      99926    2    1    2    0    0 -0.71054273576E-14  0.00000000000E+00 -0.62750815782E+03  0.77631224558E+03  0.45704946614E+03 0.  0.
      99925    2    3    3    0    0 -0.46471402386E+02  0.81913530810E+02 -0.28189876423E+03  0.39688797276E+03  0.26302800587E+03 0.  0.
         25    1    4    4    0    0 -0.55744713135E+02  0.35088811954E+02 -0.17860836709E+03  0.22778752086E+03  0.12509000000E+03 0.  0.
         25    1    4    4    0    0  0.92733107491E+01  0.46824718857E+02 -0.10329039714E+03  0.16910045189E+03  0.12509000000E+03 0.  0.
         25    1    3    3    0    0  0.46471402386E+02 -0.81913530810E+02 -0.34560939359E+03  0.37942427282E+03  0.12509000000E+03 0.  0.
<mgrwt>
<rscale>  2 0.45704947E+03</rscale>
<asrwt>0</asrwt>
<pdfrwt beam="1">  1       21 0.10941476E-01 0.45704947E+03</pdfrwt>
<pdfrwt beam="2">  1       21 0.10322210E+00 0.45704947E+03</pdfrwt>
<totfact> 0.48152593E+04</totfact>
</mgrwt>
</event>
<event>
 7    0  0.4737014E-002  0.4560511E+03  0.7546771E-02  0.1025933E+00
         21   -1    0    0  502  501  0.00000000000E+00  0.00000000000E+00  0.70260131437E+03  0.70260131437E+03  0.00000000000E+00 0.  1.
         21   -1    0    0  501  502 -0.00000000000E+00 -0.00000000000E+00 -0.74004487176E+02  0.74004487176E+02  0.00000000000E+00 0.  1.
      99926    2    1    2    0    0  0.00000000000E+00  0.00000000000E+00  0.62859682719E+03  0.77660580154E+03  0.45605109345E+03 0.  0.
      99925    2    3    3    0    0  0.21764418517E+02  0.43725298498E+02  0.57082780869E+03  0.63041975829E+03  0.26305720449E+03 0.  0.
         25    1    4    4    0    0 -0.57948269215E+01 -0.10878445132E+02  0.22720215799E+03  0.25965409545E+03  0.12509000000E+03 0.  0.
         25    1    4    4    0    0  0.27559245438E+02  0.54603743630E+02  0.34362565070E+03  0.37076566284E+03  0.12509000000E+03 0.  0.
         25    1    3    3    0    0 -0.21764418517E+02 -0.43725298498E+02  0.57769018504E+02  0.14618604325E+03  0.12509000000E+03 0.  0.
<mgrwt>
<rscale>  2 0.45605109E+03</rscale>
<asrwt>0</asrwt>
<pdfrwt beam="1">  1       21 0.10332372E+00 0.45605109E+03</pdfrwt>
<pdfrwt beam="2">  1       21 0.10883013E-01 0.45605109E+03</pdfrwt>
<totfact> 0.48515683E+04</totfact>
</mgrwt>
</event>
<event>
 7    0  0.4737014E-002  0.4495567E+03  0.7546771E-02  0.1027854E+00
         21   -1    0    0  502  501  0.00000000000E+00  0.00000000000E+00  0.18895524221E+03  0.18895524221E+03  0.00000000000E+00 0. -1.
         21   -1    0    0  501  502 -0.00000000000E+00 -0.00000000000E+00 -0.26739300752E+03  0.26739300752E+03  0.00000000000E+00 0. -1.
      99926    2    1    2    0    0  0.00000000000E+00 -0.14210854715E-13 -0.78437765305E+02  0.45634824974E+03  0.44955671723E+03 0.  0.
      99925    2    3    3    0    0  0.36487918734E+02  0.97444796083E+02 -0.79029992797E+02  0.29363772355E+03  0.26296485779E+03 0.  0.
         25    1    4    4    0    0  0.19905678467E+02  0.20290996219E+02 -0.53293941250E+01  0.12838952880E+03  0.12509000000E+03 0.  0.
         25    1    3    3    0    0 -0.36487918734E+02 -0.97444796083E+02  0.59222749164E+00  0.16271052618E+03  0.12509000000E+03 0.  0.
         25    1    4    4    0    0  0.16582240267E+02  0.77153799864E+02 -0.73700598672E+02  0.16524819476E+03  0.12509000000E+03 0.  0.
<mgrwt>
<rscale>  2 0.44955672E+03</rscale>
<asrwt>0</asrwt>
<pdfrwt beam="1">  1       21 0.27787536E-01 0.44955672E+03</pdfrwt>
<pdfrwt beam="2">  1       21 0.39322501E-01 0.44955672E+03</pdfrwt>
<totfact> 0.71500942E+04</totfact>
</mgrwt>
</event>
<event>
 7    0  0.4737014E-002  0.4572499E+03  0.7546771E-02  0.1025582E+00
         21   -1    0    0  502  501  0.00000000000E+00  0.00000000000E+00  0.45597299142E+03  0.45597299142E+03  0.00000000000E+00 0. -1.
         21   -1    0    0  501  502 -0.00000000000E+00 -0.00000000000E+00 -0.11463260012E+03  0.11463260012E+03  0.00000000000E+00 0. -1.
      99926    2    1    2    0    0 -0.14210854715E-13  0.00000000000E+00  0.34134039130E+03  0.57060559155E+03  0.45724990801E+03 0.  0.
      99925    2    3    3    0    0  0.10524451581E+03 -0.26506172952E+00  0.27306720115E+03  0.39344686340E+03  0.26297958022E+03 0.  0.
         25    1    4    4    0    0  0.32170067964E+02  0.39839682903E+00  0.79488812762E+02  0.15166097536E+03  0.12509000000E+03 0.  0.
         25    1    3    3    0    0 -0.10524451581E+03  0.26506172952E+00  0.68273190145E+02  0.17715872814E+03  0.12509000000E+03 0.  0.
         25    1    4    4    0    0  0.73074447842E+02 -0.66345855855E+00  0.19357838839E+03  0.24178588804E+03  0.12509000000E+03 0.  0.
<mgrwt>
<rscale>  2 0.45724991E+03</rscale>
<asrwt>0</asrwt>
<pdfrwt beam="1">  1       21 0.67054851E-01 0.45724991E+03</pdfrwt>
<pdfrwt beam="2">  1       21 0.16857735E-01 0.45724991E+03</pdfrwt>
<totfact> 0.59460084E+04</totfact>
</mgrwt>
</event>
<event>
 7    0  0.4737014E-002  0.4517040E+03  0.7546771E-02  0.1027215E+00
         21   -1    0    0  502  501  0.00000000000E+00  0.00000000000E+00  0.87563532437E+03  0.87563532437E+03  0.00000000000E+00 0. -1.
         21   -1    0    0  501  502 -0.00000000000E+00 -0.00000000000E+00 -0.58253847600E+02  0.58253847600E+02  0.00000000000E+00 0. -1.
      99926    2    1    2    0    0  0.71054273576E-14  0.00000000000E+00  0.81738147677E+03  0.93388917197E+03  0.45170400370E+03 0.  0.
      99925    2    3    3    0    0 -0.42138194162E+02 -0.53820579570E+02  0.69420123472E+03  0.74549288134E+03  0.26300570268E+03 0.  0.
         25    1    4    4    0    0 -0.53357077294E+02 -0.47315579193E+02  0.41516583149E+03  0.43942680559E+03  0.12509000000E+03 0.  0.
         25    1    3    3    0    0  0.42138194162E+02  0.53820579570E+02  0.12318024205E+03  0.18839629063E+03  0.12509000000E+03 0.  0.
         25    1    4    4    0    0  0.11218883132E+02 -0.65050003772E+01  0.27903540323E+03  0.30606607575E+03  0.12509000000E+03 0.  0.
<mgrwt>
<rscale>  2 0.45170400E+03</rscale>
<asrwt>0</asrwt>
<pdfrwt beam="1">  1       21 0.12876989E+00 0.45170400E+03</pdfrwt>
<pdfrwt beam="2">  1       21 0.85667428E-02 0.45170400E+03</pdfrwt>
<totfact> 0.42895312E+04</totfact>
</mgrwt>
</event>
<event>
 7    0  0.4737014E-002  0.4535153E+03  0.7546771E-02  0.1026679E+00
         21   -1    0    0  502  501  0.00000000000E+00  0.00000000000E+00  0.66956167194E+03  0.66956167194E+03  0.00000000000E+00 0.  1.
         21   -1    0    0  501  502 -0.00000000000E+00 -0.00000000000E+00 -0.76795054303E+02  0.76795054303E+02  0.00000000000E+00 0.  1.
      99926    2    1    2    0    0  0.00000000000E+00  0.00000000000E+00  0.59276661763E+03  0.74635672624E+03  0.45351526967E+03 0.  0.
      99925    2    3    3    0    0 -0.10289417349E+03 -0.29685308215E+02  0.32054139870E+03  0.42820187968E+03  0.26294796638E+03 0.  0.
         25    1    4    4    0    0 -0.80110545746E+02 -0.46376111760E+02  0.18030065912E+03  0.23816859378E+03  0.12509000000E+03 0.  0.
         25    1    4    4    0    0 -0.22783627743E+02  0.16690803545E+02  0.14024073957E+03  0.19003328591E+03  0.12509000000E+03 0.  0.
         25    1    3    3    0    0  0.10289417349E+03  0.29685308215E+02  0.27222521894E+03  0.31815484656E+03  0.12509000000E+03 0.  0.
<mgrwt>
<rscale>  2 0.45351527E+03</rscale>
<asrwt>0</asrwt>
<pdfrwt beam="1">  1       21 0.98464949E-01 0.45351527E+03</pdfrwt>
<pdfrwt beam="2">  1       21 0.11293391E-01 0.45351527E+03</pdfrwt>
<totfact> 0.51050462E+04</totfact>
</mgrwt>
</event>
<event>
 7    0  0.4737014E-002  0.4585722E+03  0.7546771E-02  0.1025196E+00
         21   -1    0    0  502  501  0.00000000000E+00  0.00000000000E+00  0.13150909270E+04  0.13150909270E+04  0.00000000000E+00 0.  1.
         21   -1    0    0  501  502 -0.00000000000E+00 -0.00000000000E+00 -0.39976023862E+02  0.39976023862E+02  0.00000000000E+00 0.  1.
      99926    2    1    2    0    0  0.00000000000E+00  0.88817841970E-15  0.12751149032E+04  0.13550669509E+04  0.45857215912E+03 0.  0.
      99925    2    3    3    0    0  0.39806074975E+02 -0.73274035491E+01  0.11220353102E+04  0.11532772477E+04  0.26352790775E+03 0.  0.
         25    1    4    4    0    0  0.30346321603E+02 -0.11491431401E+02  0.39834892089E+03  0.41878672747E+03  0.12509000000E+03 0.  0.
         25    1    3    3    0    0 -0.39806074975E+02  0.73274035491E+01  0.15307959293E+03  0.20178970320E+03  0.12509000000E+03 0.  0.
         25    1    4    4    0    0  0.94597533725E+01  0.41640278521E+01  0.72368638936E+03  0.73449052023E+03  0.12509000000E+03 0.  0.
<mgrwt>
<rscale>  2 0.45857216E+03</rscale>
<asrwt>0</asrwt>
<pdfrwt beam="1">  1       21 0.19339570E+00 0.45857216E+03</pdfrwt>
<pdfrwt beam="2">  1       21 0.58788279E-02 0.45857216E+03</pdfrwt>
<totfact> 0.26802411E+04</totfact>
</mgrwt>
</event>
<event>
 7    0  0.4737014E-002  0.4411596E+03  0.7546771E-02  0.1030392E+00
         21   -1    0    0  502  501  0.00000000000E+00  0.00000000000E+00  0.24547301093E+03  0.24547301093E+03  0.00000000000E+00 0. -1.
         21   -1    0    0  501  502 -0.00000000000E+00 -0.00000000000E+00 -0.19821095825E+03  0.19821095825E+03  0.00000000000E+00 0. -1.
      99926    2    1    2    0    0  0.00000000000E+00 -0.22204460493E-15  0.47262052683E+02  0.44368396918E+03  0.44115956624E+03 0.  0.
      99925    2    3    3    0    0  0.20383569631E+02 -0.14357238387E+01  0.12833625393E+03  0.29322438849E+03  0.26285508692E+03 0.  0.
         25    1    4    4    0    0  0.24872719798E+02  0.57761773909E+01  0.23549753474E+02  0.12982340083E+03  0.12509000000E+03 0.  0.
         25    1    3    3    0    0 -0.20383569631E+02  0.14357238387E+01 -0.81074201247E+02  0.15045958069E+03  0.12509000000E+03 0.  0.
         25    1    4    4    0    0 -0.44891501665E+01 -0.72119012296E+01  0.10478650046E+03  0.16340098765E+03  0.12509000000E+03 0.  0.
<mgrwt>
<rscale>  2 0.44115957E+03</rscale>
<asrwt>0</asrwt>
<pdfrwt beam="1">  1       21 0.36098972E-01 0.44115957E+03</pdfrwt>
<pdfrwt beam="2">  1       21 0.29148670E-01 0.44115957E+03</pdfrwt>
<totfact> 0.77604828E+04</totfact>
</mgrwt>
</event>
<event>
 7    0  0.4737014E-002  0.4421545E+03  0.7546771E-02  0.1030088E+00
         21   -1    0    0  502  501  0.00000000000E+00  0.00000000000E+00  0.32200673425E+03  0.32200673425E+03  0.00000000000E+00 0. -1.
         21   -1    0    0  501  502 -0.00000000000E+00 -0.00000000000E+00 -0.15178298377E+03  0.15178298377E+03  0.00000000000E+00 0. -1.
      99926    2    1    2    0    0  0.00000000000E+00  0.22204460493E-15  0.17022375048E+03  0.47378971802E+03  0.44215446586E+03 0.  0.
      99925    2    3    3    0    0 -0.46529444932E+02 -0.69955084384E+00  0.12756892518E+02  0.26737073132E+03  0.26298078074E+03 0.  0.
         25    1    3    3    0    0  0.46529444932E+02  0.69955084384E+00  0.15746685796E+03  0.20641898671E+03  0.12509000000E+03 0.  0.
         25    1    4    4    0    0  0.26328058806E+01 -0.53333539637E+01  0.37294611869E+02  0.13066664649E+03  0.12509000000E+03 0.  0.
         25    1    4    4    0    0 -0.49162250813E+02  0.46338031199E+01 -0.24537719351E+02  0.13670408482E+03  0.12509000000E+03 0.  0.
<mgrwt>
<rscale>  2 0.44215447E+03</rscale>
<asrwt>0</asrwt>
<pdfrwt beam="1">  1       21 0.47353932E-01 0.44215447E+03</pdfrwt>
<pdfrwt beam="2">  1       21 0.22321027E-01 0.44215447E+03</pdfrwt>
<totfact> 0.74462679E+04</totfact>
</mgrwt>
</event>
<event>
 7    0  0.4737014E-002  0.4591935E+03  0.7546771E-02  0.1025015E+00
         21   -1    0    0  502  501  0.00000000000E+00  0.00000000000E+00  0.33345295107E+03  0.33345295107E+03  0.00000000000E+00 0. -1.
         21   -1    0    0  501  502 -0.00000000000E+00 -0.00000000000E+00 -0.15808725091E+03  0.15808725091E+03  0.00000000000E+00 0. -1.
      99926    2    1    2    0    0  0.00000000000E+00  0.00000000000E+00  0.17536570016E+03  0.49154020198E+03  0.45919346835E+03 0.  0.
      99925    2    3    3    0    0 -0.81596182828E+02  0.79595978775E+02  0.13829562974E+03  0.31829137772E+03  0.26304042091E+03 0.  0.
         25    1    4    4    0    0 -0.13755142790E+02  0.17806189869E+02  0.90259879869E+02  0.15588655607E+03  0.12509000000E+03 0.  0.
         25    1    3    3    0    0  0.81596182828E+02 -0.79595978775E+02  0.37070070419E+02  0.17324882427E+03  0.12509000000E+03 0.  0.
         25    1    4    4    0    0 -0.67841040038E+02  0.61789788906E+02  0.48035749873E+02  0.16240482164E+03  0.12509000000E+03 0.  0.
<mgrwt>
<rscale>  2 0.45919347E+03</rscale>
<asrwt>0</asrwt>
<pdfrwt beam="1">  1       21 0.49037199E-01 0.45919347E+03</pdfrwt>
<pdfrwt beam="2">  1       21 0.23248125E-01 0.45919347E+03</pdfrwt>
<totfact> 0.63721291E+04</totfact>
</mgrwt>
</event>
<event>
 7    0  0.4737014E-002  0.4560090E+03  0.7546771E-02  0.1025945E+00
         21   -1    0    0  502  501  0.00000000000E+00  0.00000000000E+00  0.32616293374E+03  0.32616293374E+03  0.00000000000E+00 0.  1.
         21   -1    0    0  501  502 -0.00000000000E+00 -0.00000000000E+00 -0.15938677479E+03  0.15938677479E+03  0.00000000000E+00 0.  1.
      99926    2    1    2    0    0  0.00000000000E+00  0.17763568394E-14  0.16677615895E+03  0.48554970853E+03  0.45600902651E+03 0.  0.
      99925    2    3    3    0    0 -0.89605330180E+02 -0.50105807054E+01  0.29764848967E+02  0.27945791277E+03  0.26297634430E+03 0.  0.
         25    1    4    4    0    0 -0.35127784608E+02 -0.28678852143E+02 -0.15065451455E+02  0.13390636183E+03  0.12509000000E+03 0.  0.
         25    1    3    3    0    0  0.89605330180E+02  0.50105807054E+01  0.13701130999E+03  0.20609179576E+03  0.12509000000E+03 0.  0.
         25    1    4    4    0    0 -0.54477545572E+02  0.23668271438E+02  0.44830300422E+02  0.14555155094E+03  0.12509000000E+03 0.  0.
<mgrwt>
<rscale>  2 0.45600903E+03</rscale>
<asrwt>0</asrwt>
<pdfrwt beam="1">  1       21 0.47965137E-01 0.45600903E+03</pdfrwt>
<pdfrwt beam="2">  1       21 0.23439231E-01 0.45600903E+03</pdfrwt>
<totfact> 0.65769893E+04</totfact>
</mgrwt>
</event>
<event>
 7    0  0.4737014E-002  0.4617497E+03  0.7546771E-02  0.1024275E+00
         21   -1    0    0  502  501  0.00000000000E+00  0.00000000000E+00  0.14101772326E+03  0.14101772326E+03  0.00000000000E+00 0. -1.
         21   -1    0    0  501  502 -0.00000000000E+00 -0.00000000000E+00 -0.37798937096E+03  0.37798937096E+03  0.00000000000E+00 0. -1.
      99926    2    1    2    0    0  0.00000000000E+00  0.00000000000E+00 -0.23697164771E+03  0.51900709422E+03  0.46174971796E+03 0.  0.
      99925    2    3    3    0    0 -0.28778947613E+02 -0.91045069911E+02 -0.67659681002E+02  0.28785458450E+03  0.26299238925E+03 0.  0.
         25    1    4    4    0    0  0.80644485812E+01 -0.72859087592E+02 -0.13948632895E+02  0.14565560214E+03  0.12509000000E+03 0.  0.
         25    1    4    4    0    0 -0.36843396195E+02 -0.18185982319E+02 -0.53711048106E+02  0.14219898236E+03  0.12509000000E+03 0.  0.
         25    1    3    3    0    0  0.28778947613E+02  0.91045069911E+02 -0.16931196670E+03  0.23115250972E+03  0.12509000000E+03 0.  0.
<mgrwt>
<rscale>  2 0.46174972E+03</rscale>
<asrwt>0</asrwt>
<pdfrwt beam="1">  1       21 0.20737901E-01 0.46174972E+03</pdfrwt>
<pdfrwt beam="2">  1       21 0.55586671E-01 0.46174972E+03</pdfrwt>
<totfact> 0.60641382E+04</totfact>
</mgrwt>
</event>
<event>
 7    0  0.4737014E-002  0.4491981E+03  0.7546771E-02  0.1027961E+00
         21   -1    0    0  502  501  0.00000000000E+00  0.00000000000E+00  0.82725969257E+03  0.82725969257E+03  0.00000000000E+00 0. -1.
         21   -1    0    0  501  502 -0.00000000000E+00 -0.00000000000E+00 -0.60978116854E+02  0.60978116854E+02  0.00000000000E+00 0. -1.
      99926    2    1    2    0    0  0.00000000000E+00  0.00000000000E+00  0.76628157572E+03  0.88823780943E+03  0.44919812200E+03 0.  0.
      99925    2    3    3    0    0  0.10059945929E+03 -0.37924423006E+02  0.47484659892E+03  0.55336415136E+03  0.26300965463E+03 0.  0.
         25    1    4    4    0    0  0.34595516335E+02 -0.24967782040E+02  0.15696659680E+03  0.20519810063E+03  0.12509000000E+03 0.  0.
         25    1    3    3    0    0 -0.10059945929E+03  0.37924423006E+02  0.29143497680E+03  0.33487365807E+03  0.12509000000E+03 0.  0.
         25    1    4    4    0    0  0.66003942954E+02 -0.12956640967E+02  0.31788000212E+03  0.34816605073E+03  0.12509000000E+03 0.  0.
<mgrwt>
<rscale>  2 0.44919812E+03</rscale>
<asrwt>0</asrwt>
<pdfrwt beam="1">  1       21 0.12165583E+00 0.44919812E+03</pdfrwt>
<pdfrwt beam="2">  1       21 0.89673706E-02 0.44919812E+03</pdfrwt>
<totfact> 0.45791440E+04</totfact>
</mgrwt>
</event>
<event>
 7    0  0.4737014E-002  0.4522534E+03  0.7546771E-02  0.1027052E+00
         21   -1    0    0  502  501  0.00000000000E+00  0.00000000000E+00  0.34537550617E+02  0.34537550617E+02  0.00000000000E+00 0.  1.
         21   -1    0    0  501  502 -0.00000000000E+00 -0.00000000000E+00 -0.14805125559E+04  0.14805125559E+04  0.00000000000E+00 0.  1.
      99926    2    1    2    0    0  0.00000000000E+00  0.00000000000E+00 -0.14459750052E+04  0.15150501065E+04  0.45225336853E+03 0.  0.
      99925    2    3    3    0    0 -0.98841799851E+02 -0.46918124063E+02 -0.96439177968E+03  0.10055985160E+04  0.26307006475E+03 0.  0.
         25    1    4    4    0    0 -0.51594959893E+02 -0.56564889791E+00 -0.59085381455E+03  0.60615022735E+03  0.12509000000E+03 0.  0.
         25    1    4    4    0    0 -0.47246839958E+02 -0.46352475166E+02 -0.37353796512E+03  0.39944828868E+03  0.12509000000E+03 0.  0.
         25    1    3    3    0    0  0.98841799851E+02  0.46918124063E+02 -0.48158322557E+03  0.50945159045E+03  0.12509000000E+03 0.  0.
<mgrwt>
<rscale>  2 0.45225337E+03</rscale>
<asrwt>0</asrwt>
<pdfrwt beam="1">  1       21 0.50790519E-02 0.45225337E+03</pdfrwt>
<pdfrwt beam="2">  1       21 0.21772242E+00 0.45225337E+03</pdfrwt>
<totfact> 0.23918874E+04</totfact>
</mgrwt>
</event>
<event>
 7    0  0.4737014E-002  0.4561146E+03  0.7546771E-02  0.1025914E+00
         21   -1    0    0  502  501  0.00000000000E+00  0.00000000000E+00  0.53459472871E+03  0.53459472871E+03  0.00000000000E+00 0.  1.
         21   -1    0    0  501  502 -0.00000000000E+00 -0.00000000000E+00 -0.97288881504E+02  0.97288881504E+02  0.00000000000E+00 0.  1.
      99926    2    1    2    0    0  0.14210854715E-13  0.00000000000E+00  0.43730584721E+03  0.63188361022E+03  0.45611456111E+03 0.  0.
      99925    2    3    3    0    0  0.90699663445E+02  0.57456370891E+02  0.22013072941E+03  0.35922961081E+03  0.26279404815E+03 0.  0.
         25    1    4    4    0    0  0.72462013010E+02  0.11439499061E+02  0.14533189644E+03  0.20530580530E+03  0.12509000000E+03 0.  0.
         25    1    4    4    0    0  0.18237650435E+02  0.46016871830E+02  0.74798832971E+02  0.15392380550E+03  0.12509000000E+03 0.  0.
         25    1    3    3    0    0 -0.90699663445E+02 -0.57456370891E+02  0.21717511779E+03  0.27265399941E+03  0.12509000000E+03 0.  0.
<mgrwt>
<rscale>  2 0.45611456E+03</rscale>
<asrwt>0</asrwt>
<pdfrwt beam="1">  1       21 0.78616871E-01 0.45611456E+03</pdfrwt>
<pdfrwt beam="2">  1       21 0.14307189E-01 0.45611456E+03</pdfrwt>
<totfact> 0.56260821E+04</totfact>
</mgrwt>
</event>
<event>
 7    0  0.4737014E-002  0.4569640E+03  0.7546771E-02  0.1025665E+00
         21   -1    0    0  502  501  0.00000000000E+00  0.00000000000E+00  0.11295279628E+03  0.11295279628E+03  0.00000000000E+00 0. -1.
         21   -1    0    0  501  502 -0.00000000000E+00 -0.00000000000E+00 -0.46217562741E+03  0.46217562741E+03  0.00000000000E+00 0. -1.
      99926    2    1    2    0    0  0.35527136788E-14 -0.14210854715E-13 -0.34922283113E+03  0.57512842369E+03  0.45696402260E+03 0.  0.
      99925    2    3    3    0    0  0.16042045084E+02  0.10691731839E+03 -0.26867113874E+03  0.39121337963E+03  0.26301153478E+03 0.  0.
         25    1    4    4    0    0 -0.20743049977E+02  0.64994335361E+02 -0.17312136940E+03  0.22421653461E+03  0.12509000000E+03 0.  0.
         25    1    4    4    0    0  0.36785095061E+02  0.41922983033E+02 -0.95549769340E+02  0.16699684502E+03  0.12509000000E+03 0.  0.
         25    1    3    3    0    0 -0.16042045084E+02 -0.10691731839E+03 -0.80551692390E+02  0.18391504406E+03  0.12509000000E+03 0.  0.
<mgrwt>
<rscale>  2 0.45696402E+03</rscale>
<asrwt>0</asrwt>
<pdfrwt beam="1">  1       21 0.16610705E-01 0.45696402E+03</pdfrwt>
<pdfrwt beam="2">  1       21 0.67967004E-01 0.45696402E+03</pdfrwt>
<totfact> 0.59309500E+04</totfact>
</mgrwt>
</event>
<event>
 7    0  0.4737014E-002  0.4596677E+03  0.7546771E-02  0.1024878E+00
         21   -1    0    0  502  501  0.00000000000E+00  0.00000000000E+00  0.38928514855E+03  0.38928514855E+03  0.00000000000E+00 0.  1.
         21   -1    0    0  501  502 -0.00000000000E+00 -0.00000000000E+00 -0.13569386713E+03  0.13569386713E+03  0.00000000000E+00 0.  1.
      99926    2    1    2    0    0  0.00000000000E+00 -0.17763568394E-14  0.25359128143E+03  0.52497901568E+03  0.45966773749E+03 0.  0.
      99925    2    3    3    0    0  0.87119163452E+02 -0.10991381445E+02  0.24807764279E+03  0.37204613034E+03  0.26299286520E+03 0.  0.
         25    1    3    3    0    0 -0.87119163452E+02  0.10991381445E+02  0.55136386393E+01  0.15293288534E+03  0.12509000000E+03 0.  0.
         25    1    4    4    0    0  0.71820069744E+02 -0.35574009250E+02  0.14173536461E+03  0.20532913635E+03  0.12509000000E+03 0.  0.
         25    1    4    4    0    0  0.15299093708E+02  0.24582627804E+02  0.10634227818E+03  0.16671699399E+03  0.12509000000E+03 0.  0.
<mgrwt>
<rscale>  2 0.45966774E+03</rscale>
<asrwt>0</asrwt>
<pdfrwt beam="1">  1       21 0.57247816E-01 0.45966774E+03</pdfrwt>
<pdfrwt beam="2">  1       21 0.19954981E-01 0.45966774E+03</pdfrwt>
<totfact> 0.61249501E+04</totfact>
</mgrwt>
</event>
<event>
 7    0  0.4737014E-002  0.4596185E+03  0.7546771E-02  0.1024892E+00
         21   -1    0    0  502  501  0.00000000000E+00  0.00000000000E+00  0.36345922623E+03  0.36345922623E+03  0.00000000000E+00 0. -1.
         21   -1    0    0  501  502 -0.00000000000E+00 -0.00000000000E+00 -0.14530460767E+03  0.14530460767E+03  0.00000000000E+00 0. -1.
      99926    2    1    2    0    0  0.00000000000E+00  0.00000000000E+00  0.21815461856E+03  0.50876383390E+03  0.45961853866E+03 0.  0.
      99925    2    3    3    0    0  0.44533612664E+02  0.10409315440E+03  0.10214745528E+03  0.30401081809E+03  0.26300161111E+03 0.  0.
         25    1    4    4    0    0  0.21289808233E+02  0.55750394434E+02  0.94387664391E+02  0.16768393394E+03  0.12509000000E+03 0.  0.
         25    1    4    4    0    0  0.23243804431E+02  0.48342759965E+02  0.77597908863E+01  0.13632688414E+03  0.12509000000E+03 0.  0.
         25    1    3    3    0    0 -0.44533612664E+02 -0.10409315440E+03  0.11600716328E+03  0.20475301581E+03  0.12509000000E+03 0.  0.
<mgrwt>
<rscale>  2 0.45961854E+03</rscale>
<asrwt>0</asrwt>
<pdfrwt beam="1">  1       21 0.53449886E-01 0.45961854E+03</pdfrwt>
<pdfrwt beam="2">  1       21 0.21368325E-01 0.45961854E+03</pdfrwt>
<totfact> 0.62342392E+04</totfact>
</mgrwt>
</event>
<event>
 7    0  0.4737014E-002  0.4583956E+03  0.7546771E-02  0.1025248E+00
         21   -1    0    0  502  501  0.00000000000E+00  0.00000000000E+00  0.59886280851E+02  0.59886280851E+02  0.00000000000E+00 0. -1.
         21   -1    0    0  501  502 -0.00000000000E+00 -0.00000000000E+00 -0.87718958246E+03  0.87718958246E+03  0.00000000000E+00 0. -1.
      99926    2    1    2    0    0  0.00000000000E+00  0.00000000000E+00 -0.81730330161E+03  0.93707586331E+03  0.45839555711E+03 0.  0.
      99925    2    3    3    0    0  0.39068394082E+02  0.10697697391E+03 -0.46399681207E+03  0.54535734701E+03  0.26296612322E+03 0.  0.
         25    1    3    3    0    0 -0.39068394082E+02 -0.10697697391E+03 -0.35330648953E+03  0.39171851630E+03  0.12509000000E+03 0.  0.
         25    1    4    4    0    0  0.37061785609E+02  0.49776098788E+02 -0.30277294895E+03  0.33342195890E+03  0.12509000000E+03 0.  0.
         25    1    4    4    0    0  0.20066084731E+01  0.57200875123E+02 -0.16122386312E+03  0.21193538811E+03  0.12509000000E+03 0.  0.
<mgrwt>
<rscale>  2 0.45839556E+03</rscale>
<asrwt>0</asrwt>
<pdfrwt beam="1">  1       21 0.88068054E-02 0.45839556E+03</pdfrwt>
<pdfrwt beam="2">  1       21 0.12899848E+00 0.45839556E+03</pdfrwt>
<totfact> 0.40580183E+04</totfact>
</mgrwt>
</event>
<event>
 7    0  0.4737014E-002  0.4470265E+03  0.7546771E-02  0.1028612E+00
         21   -1    0    0  502  501  0.00000000000E+00  0.00000000000E+00  0.80556043253E+03  0.80556043253E+03  0.00000000000E+00 0. -1.
         21   -1    0    0  501  502 -0.00000000000E+00 -0.00000000000E+00 -0.62016678277E+02  0.62016678277E+02  0.00000000000E+00 0. -1.
      99926    2    1    2    0    0 -0.71054273576E-14 -0.14210854715E-13  0.74354375425E+03  0.86757711080E+03  0.44702654139E+03 0.  0.
      99925    2    3    3    0    0 -0.63447163181E+02 -0.83973365857E+02  0.48527268596E+03  0.56191631596E+03  0.26302718056E+03 0.  0.
         25    1    4    4    0    0 -0.10273375923E+02 -0.74978934127E+02  0.22903002776E+03  0.27171611018E+03  0.12509000000E+03 0.  0.
         25    1    3    3    0    0  0.63447163181E+02  0.83973365857E+02  0.25827106829E+03  0.30566079484E+03  0.12509000000E+03 0.  0.
         25    1    4    4    0    0 -0.53173787258E+02 -0.89944317302E+01  0.25624265820E+03  0.29020020578E+03  0.12509000000E+03 0.  0.
<mgrwt>
<rscale>  2 0.44702654E+03</rscale>
<asrwt>0</asrwt>
<pdfrwt beam="1">  1       21 0.11846476E+00 0.44702654E+03</pdfrwt>
<pdfrwt beam="2">  1       21 0.91201002E-02 0.44702654E+03</pdfrwt>
<totfact> 0.47567448E+04</totfact>
</mgrwt>
</event>
<event>
 7    0  0.4737014E-002  0.4382247E+03  0.7546771E-02  0.1031293E+00
         21   -1    0    0  502  501  0.00000000000E+00  0.00000000000E+00  0.33579550486E+03  0.33579550486E+03  0.00000000000E+00 0.  1.
         21   -1    0    0  501  502 -0.00000000000E+00 -0.00000000000E+00 -0.14297457225E+03  0.14297457225E+03  0.00000000000E+00 0.  1.
      99926    2    1    2    0    0  0.14210854715E-13  0.00000000000E+00  0.19282093260E+03  0.47877007711E+03  0.43822468517E+03 0.  0.
      99925    2    3    3    0    0 -0.69402146674E+02 -0.67096328408E+02  0.12343480556E+03  0.30619974949E+03  0.26306569544E+03 0.  0.
         25    1    4    4    0    0 -0.29934937003E+02 -0.64512253577E+02  0.93595118355E+02  0.17165513565E+03  0.12509000000E+03 0.  0.
         25    1    4    4    0    0 -0.39467209671E+02 -0.25840748306E+01  0.29839687209E+02  0.13454461384E+03  0.12509000000E+03 0.  0.
         25    1    3    3    0    0  0.69402146674E+02  0.67096328408E+02  0.69386127040E+02  0.17257032762E+03  0.12509000000E+03 0.  0.
<mgrwt>
<rscale>  2 0.43822469E+03</rscale>
<asrwt>0</asrwt>
<pdfrwt beam="1">  1       21 0.49381692E-01 0.43822469E+03</pdfrwt>
<pdfrwt beam="2">  1       21 0.21025672E-01 0.43822469E+03</pdfrwt>
<totfact> 0.76478072E+04</totfact>
</mgrwt>
</event>
<event>
 7    0  0.4737014E-002  0.4783989E+03  0.7546771E-02  0.1019576E+00
         21   -1    0    0  502  501  0.00000000000E+00  0.00000000000E+00  0.78688044575E+02  0.78688044575E+02  0.00000000000E+00 0.  1.
         21   -1    0    0  501  502 -0.00000000000E+00 -0.00000000000E+00 -0.72712919364E+03  0.72712919364E+03  0.00000000000E+00 0.  1.
      99926    2    1    2    0    0 -0.14210854715E-13  0.17763568394E-14 -0.64844114906E+03  0.80581723821E+03  0.47839888963E+03 0.  0.
      99925    2    3    3    0    0  0.67817505474E+02 -0.11155586265E+02 -0.59307453083E+03  0.65272696528E+03  0.26380187817E+03 0.  0.
         25    1    4    4    0    0  0.48598800586E+01 -0.13204728182E+02 -0.20981674856E+03  0.24468052509E+03  0.12509000000E+03 0.  0.
         25    1    4    4    0    0  0.62957625415E+02  0.20491419168E+01 -0.38325778226E+03  0.40804644018E+03  0.12509000000E+03 0.  0.
         25    1    3    3    0    0 -0.67817505474E+02  0.11155586265E+02 -0.55366618234E+02  0.15309027294E+03  0.12509000000E+03 0.  0.
<mgrwt>
<rscale>  2 0.47839889E+03</rscale>
<asrwt>0</asrwt>
<pdfrwt beam="1">  1       21 0.11571771E-01 0.47839889E+03</pdfrwt>
<pdfrwt beam="2">  1       21 0.10693076E+00 0.47839889E+03</pdfrwt>
<totfact> 0.39681044E+04</totfact>
</mgrwt>
</event>
<event>
 7    0  0.4737014E-002  0.4584373E+03  0.7546771E-02  0.1025235E+00
         21   -1    0    0  502  501  0.00000000000E+00  0.00000000000E+00  0.13152579841E+03  0.13152579841E+03  0.00000000000E+00 0.  1.
         21   -1    0    0  501  502 -0.00000000000E+00 -0.00000000000E+00 -0.39947433475E+03  0.39947433475E+03  0.00000000000E+00 0.  1.
      99926    2    1    2    0    0  0.00000000000E+00  0.00000000000E+00 -0.26794853635E+03  0.53100013316E+03  0.45843726210E+03 0.  0.
      99925    2    3    3    0    0 -0.14062076968E+02  0.11142649301E+03 -0.13277132863E+03  0.31528274642E+03  0.26298551126E+03 0.  0.
         25    1    4    4    0    0 -0.12409864959E+02  0.12398350813E+02 -0.62756914444E+02  0.14104489449E+03  0.12509000000E+03 0.  0.
         25    1    4    4    0    0 -0.16522120086E+01  0.99028142199E+02 -0.70014414183E+02  0.17423785193E+03  0.12509000000E+03 0.  0.
         25    1    3    3    0    0  0.14062076968E+02 -0.11142649301E+03 -0.13517720772E+03  0.21571738674E+03  0.12509000000E+03 0.  0.
<mgrwt>
<rscale>  2 0.45843726E+03</rscale>
<asrwt>0</asrwt>
<pdfrwt beam="1">  1       21 0.19342029E-01 0.45843726E+03</pdfrwt>
<pdfrwt beam="2">  1       21 0.58746226E-01 0.45843726E+03</pdfrwt>
<totfact> 0.61447622E+04</totfact>
</mgrwt>
</event>
<event>
 7    0  0.4737014E-002  0.4549321E+03  0.7546771E-02  0.1026261E+00
         21   -1    0    0  502  501  0.00000000000E+00  0.00000000000E+00  0.83976286512E+02  0.83976286512E+02  0.00000000000E+00 0. -1.
         21   -1    0    0  501  502 -0.00000000000E+00 -0.00000000000E+00 -0.61613601873E+03  0.61613601873E+03  0.00000000000E+00 0. -1.
      99926    2    1    2    0    0  0.00000000000E+00  0.00000000000E+00 -0.53215973222E+03  0.70011230525E+03  0.45493214808E+03 0.  0.
      99925    2    3    3    0    0  0.29001446657E+02  0.57130285044E+02 -0.19157687452E+03  0.33167079776E+03  0.26305677307E+03 0.  0.
         25    1    4    4    0    0  0.58909346264E+01  0.17173420866E+02 -0.14023293599E+03  0.18879198588E+03  0.12509000000E+03 0.  0.
         25    1    4    4    0    0  0.23110512030E+02  0.39956864178E+02 -0.51343938527E+02  0.14287881188E+03  0.12509000000E+03 0.  0.
         25    1    3    3    0    0 -0.29001446657E+02 -0.57130285044E+02 -0.34058285771E+03  0.36844150749E+03  0.12509000000E+03 0.  0.
<mgrwt>
<rscale>  2 0.45493215E+03</rscale>
<asrwt>0</asrwt>
<pdfrwt beam="1">  1       21 0.12349454E-01 0.45493215E+03</pdfrwt>
<pdfrwt beam="2">  1       21 0.90608241E-01 0.45493215E+03</pdfrwt>
<totfact> 0.52925113E+04</totfact>
</mgrwt>
</event>
<event>
 7    0  0.4737014E-002  0.4584470E+03  0.7546771E-02  0.1025233E+00
         21   -1    0    0  502  501  0.00000000000E+00  0.00000000000E+00  0.12439663010E+03  0.12439663010E+03  0.00000000000E+00 0.  1.
         21   -1    0    0  501  502 -0.00000000000E+00 -0.00000000000E+00 -0.42238613676E+03  0.42238613676E+03  0.00000000000E+00 0.  1.
      99926    2    1    2    0    0  0.00000000000E+00  0.00000000000E+00 -0.29798950665E+03  0.54678276686E+03  0.45844699591E+03 0.  0.
      99925    2    3    3    0    0  0.94705358282E+02 -0.37741568577E+02 -0.12007566424E+03  0.30658623419E+03  0.26302741866E+03 0.  0.
         25    1    4    4    0    0  0.42665858707E+02 -0.12450741283E+02 -0.10235405534E+03  0.16762833055E+03  0.12509000000E+03 0.  0.
         25    1    3    3    0    0 -0.94705358282E+02  0.37741568577E+02 -0.17791384241E+03  0.24019653267E+03  0.12509000000E+03 0.  0.
         25    1    4    4    0    0  0.52039499575E+02 -0.25290827294E+02 -0.17721608893E+02  0.13895790364E+03  0.12509000000E+03 0.  0.
<mgrwt>
<rscale>  2 0.45844700E+03</rscale>
<asrwt>0</asrwt>
<pdfrwt beam="1">  1       21 0.18293623E-01 0.45844700E+03</pdfrwt>
<pdfrwt beam="2">  1       21 0.62115607E-01 0.45844700E+03</pdfrwt>
<totfact> 0.60414871E+04</totfact>
</mgrwt>
</event>
<event>
 6    0  0.4737014E-002  0.4398333E+03  0.7546771E-02  0.1030798E+00
         21   -1    0    0  502  501  0.00000000000E+00  0.00000000000E+00  0.35659323379E+02  0.35659323379E+02  0.00000000000E+00 0. -1.
         21   -1    0    0  501  502 -0.00000000000E+00 -0.00000000000E+00 -0.13562604284E+04  0.13562604284E+04  0.00000000000E+00 0. -1.
      99926    2    1    2    0    0  0.00000000000E+00  0.00000000000E+00 -0.13206011050E+04  0.13919197518E+04  0.43983328298E+03 0.  0.
         25    1    3    3    0    0  0.18499919349E+02 -0.27949611374E+02 -0.33762081976E+03  0.36160579894E+03  0.12509000000E+03 0.  0.
         25    1    3    3    0    0 -0.84539919714E+02  0.27564700385E+02 -0.66182729454E+03  0.67938920115E+03  0.12509000000E+03 0.  0.
         25    1    3    3    0    0  0.66040000365E+02  0.38491098870E+00 -0.32115299074E+03  0.35092475171E+03  0.12509000000E+03 0.  0.
<mgrwt>
<rscale>  2 0.43983328E+03</rscale>
<asrwt>0</asrwt>
<pdfrwt beam="1">  1       21 0.52440190E-02 0.43983328E+03</pdfrwt>
<pdfrwt beam="2">  1       21 0.19945003E+00 0.43983328E+03</pdfrwt>
<totfact> 0.29922783E+04</totfact>
</mgrwt>
</event>
<event>
 7    0  0.4737014E-002  0.4532732E+03  0.7546771E-02  0.1026750E+00
         21   -1    0    0  502  501  0.00000000000E+00  0.00000000000E+00  0.21129602601E+03  0.21129602601E+03  0.00000000000E+00 0.  1.
         21   -1    0    0  501  502 -0.00000000000E+00 -0.00000000000E+00 -0.24309088862E+03  0.24309088862E+03  0.00000000000E+00 0.  1.
      99926    2    1    2    0    0  0.00000000000E+00  0.14210854715E-13 -0.31794862606E+02  0.45438691462E+03  0.45327315704E+03 0.  0.
      99925    2    3    3    0    0  0.78781446389E+02  0.78894940072E+02 -0.15996483581E+02  0.28607760192E+03  0.26297068081E+03 0.  0.
         25    1    4    4    0    0  0.62983341246E+02  0.10930938961E+02 -0.24468871931E+02  0.14259249803E+03  0.12509000000E+03 0.  0.
         25    1    4    4    0    0  0.15798105143E+02  0.67964001111E+02  0.84723883492E+01  0.14348510389E+03  0.12509000000E+03 0.  0.
         25    1    3    3    0    0 -0.78781446389E+02 -0.78894940072E+02 -0.15798379024E+02  0.16830931271E+03  0.12509000000E+03 0.  0.
<mgrwt>
<rscale>  2 0.45327316E+03</rscale>
<asrwt>0</asrwt>
<pdfrwt beam="1">  1       21 0.31072945E-01 0.45327316E+03</pdfrwt>
<pdfrwt beam="2">  1       21 0.35748660E-01 0.45327316E+03</pdfrwt>
<totfact> 0.69544021E+04</totfact>
</mgrwt>
</event>
<event>
 7    0  0.4737014E-002  0.4630719E+03  0.7546771E-02  0.1023894E+00
         21   -1    0    0  502  501  0.00000000000E+00  0.00000000000E+00  0.11983775801E+03  0.11983775801E+03  0.00000000000E+00 0.  1.
         21   -1    0    0  501  502 -0.00000000000E+00 -0.00000000000E+00 -0.44734571345E+03  0.44734571345E+03  0.00000000000E+00 0.  1.
      99926    2    1    2    0    0  0.00000000000E+00  0.17763568394E-14 -0.32750795544E+03  0.56718347146E+03  0.46307194844E+03 0.  0.
      99925    2    3    3    0    0  0.86803250467E+02  0.13844625971E+02 -0.10361303353E+03  0.29606924809E+03  0.26304916078E+03 0.  0.
         25    1    4    4    0    0  0.58690653833E+02  0.23637501380E+01 -0.93699601097E+02  0.16696497689E+03  0.12509000000E+03 0.  0.
         25    1    4    4    0    0  0.28112596634E+02  0.11480875833E+02 -0.99134324323E+01  0.12910427120E+03  0.12509000000E+03 0.  0.
         25    1    3    3    0    0 -0.86803250467E+02 -0.13844625971E+02 -0.22389492191E+03  0.27111422337E+03  0.12509000000E+03 0.  0.
<mgrwt>
<rscale>  2 0.46307195E+03</rscale>
<asrwt>0</asrwt>
<pdfrwt beam="1">  1       21 0.17623200E-01 0.46307195E+03</pdfrwt>
<pdfrwt beam="2">  1       21 0.65786134E-01 0.46307195E+03</pdfrwt>
<totfact> 0.57017134E+04</totfact>
</mgrwt>
</event>
<event>
 7    0  0.4737014E-002  0.4548453E+03  0.7546771E-02  0.1026287E+00
         21   -1    0    0  502  501  0.00000000000E+00  0.00000000000E+00  0.31043775112E+03  0.31043775112E+03  0.00000000000E+00 0.  1.
         21   -1    0    0  501  502 -0.00000000000E+00 -0.00000000000E+00 -0.16660690128E+03  0.16660690128E+03  0.00000000000E+00 0.  1.
      99926    2    1    2    0    0 -0.71054273576E-14  0.71054273576E-14  0.14383084985E+03  0.47704465240E+03  0.45484534406E+03 0.  0.
      99925    2    3    3    0    0 -0.55718401290E+02  0.52884236500E+02  0.17933485271E+03  0.32601708858E+03  0.26119890877E+03 0.  0.
         25    1    3    3    0    0  0.55718401290E+02 -0.52884236500E+02 -0.35504002861E+02  0.15102756381E+03  0.12509000000E+03 0.  0.
         25    1    4    4    0    0 -0.32378894802E+02  0.41749304476E+02  0.13317941212E+03  0.19019900411E+03  0.12509000000E+03 0.  0.
         25    1    4    4    0    0 -0.23339506488E+02  0.11134932023E+02  0.46155440589E+02  0.13581808447E+03  0.12509000000E+03 0.  0.
<mgrwt>
<rscale>  2 0.45484534E+03</rscale>
<asrwt>0</asrwt>
<pdfrwt beam="1">  1       21 0.45652610E-01 0.45484534E+03</pdfrwt>
<pdfrwt beam="2">  1       21 0.24501015E-01 0.45484534E+03</pdfrwt>
<totfact> 0.66998058E+04</totfact>
</mgrwt>
</event>
<event>
 7    0  0.4737014E-002  0.4373916E+03  0.7546771E-02  0.1031550E+00
         21   -1    0    0  502  501  0.00000000000E+00  0.00000000000E+00  0.30819581849E+03  0.30819581849E+03  0.00000000000E+00 0.  1.
         21   -1    0    0  501  502 -0.00000000000E+00 -0.00000000000E+00 -0.15518659030E+03  0.15518659030E+03  0.00000000000E+00 0.  1.
      99926    2    1    2    0    0  0.00000000000E+00  0.00000000000E+00  0.15300922819E+03  0.46338240879E+03  0.43739162413E+03 0.  0.
      99925    2    3    3    0    0 -0.66499196246E+02 -0.68486300421E+02  0.97749611360E+02  0.29660816078E+03  0.26326583157E+03 0.  0.
         25    1    4    4    0    0 -0.33422344087E+02 -0.14868583900E+02  0.86607956280E+01  0.13061640537E+03  0.12509000000E+03 0.  0.
         25    1    3    3    0    0  0.66499196246E+02  0.68486300421E+02  0.55259616835E+02  0.16677424801E+03  0.12509000000E+03 0.  0.
         25    1    4    4    0    0 -0.33076852159E+02 -0.53617716521E+02  0.89088815732E+02  0.16599175540E+03  0.12509000000E+03 0.  0.
<mgrwt>
<rscale>  2 0.43739162E+03</rscale>
<asrwt>0</asrwt>
<pdfrwt beam="1">  1       21 0.45322915E-01 0.43739162E+03</pdfrwt>
<pdfrwt beam="2">  1       21 0.22821557E-01 0.43739162E+03</pdfrwt>
<totfact> 0.78314787E+04</totfact>
</mgrwt>
</event>
<event>
 7    0  0.4737014E-002  0.4442017E+03  0.7546771E-02  0.1029465E+00
         21   -1    0    0  502  501  0.00000000000E+00  0.00000000000E+00  0.89815773567E+02  0.89815773567E+02  0.00000000000E+00 0.  1.
         21   -1    0    0  501  502 -0.00000000000E+00 -0.00000000000E+00 -0.54922181498E+03  0.54922181498E+03  0.00000000000E+00 0.  1.
      99926    2    1    2    0    0 -0.71054273576E-14  0.71054273576E-14 -0.45940604141E+03  0.63903758855E+03  0.44420167569E+03 0.  0.
      99925    2    3    3    0    0  0.52671278305E+02 -0.55796842561E+02 -0.19381381677E+03  0.33560013356E+03  0.26301350322E+03 0.  0.
         25    1    3    3    0    0 -0.52671278305E+02  0.55796842561E+02 -0.26559222464E+03  0.30343745498E+03  0.12509000000E+03 0.  0.
         25    1    4    4    0    0 -0.86191587116E+01 -0.51250149118E+01 -0.81620097773E+02  0.14969937921E+03  0.12509000000E+03 0.  0.
         25    1    4    4    0    0  0.61290437016E+02 -0.50671827649E+02 -0.11219371900E+03  0.18590075436E+03  0.12509000000E+03 0.  0.
<mgrwt>
<rscale>  2 0.44420168E+03</rscale>
<asrwt>0</asrwt>
<pdfrwt beam="1">  1       21 0.13208202E-01 0.44420168E+03</pdfrwt>
<pdfrwt beam="2">  1       21 0.80767916E-01 0.44420168E+03</pdfrwt>
<totfact> 0.61404949E+04</totfact>
</mgrwt>
</event>
<event>
 7    0  0.4737014E-002  0.4515794E+03  0.7546771E-02  0.1027252E+00
         21   -1    0    0  502  501  0.00000000000E+00  0.00000000000E+00  0.12770873758E+03  0.12770873758E+03  0.00000000000E+00 0. -1.
         21   -1    0    0  501  502 -0.00000000000E+00 -0.00000000000E+00 -0.39919730012E+03  0.39919730012E+03  0.00000000000E+00 0. -1.
      99926    2    1    2    0    0  0.00000000000E+00  0.00000000000E+00 -0.27148856254E+03  0.52690603770E+03  0.45157937616E+03 0.  0.
      99925    2    3    3    0    0 -0.43129915465E+02  0.30513417522E+02 -0.58946241570E+02  0.27468985154E+03  0.26303725380E+03 0.  0.
         25    1    4    4    0    0 -0.57546306302E+02  0.31229954625E+02 -0.43997020839E+02  0.14788554148E+03  0.12509000000E+03 0.  0.
         25    1    3    3    0    0  0.43129915465E+02 -0.30513417522E+02 -0.21254232097E+03  0.25221618616E+03  0.12509000000E+03 0.  0.
         25    1    4    4    0    0  0.14416390837E+02 -0.71653710304E+00 -0.14949220731E+02  0.12680431006E+03  0.12509000000E+03 0.  0.
<mgrwt>
<rscale>  2 0.45157938E+03</rscale>
<asrwt>0</asrwt>
<pdfrwt beam="1">  1       21 0.18780696E-01 0.45157938E+03</pdfrwt>
<pdfrwt beam="2">  1       21 0.58705486E-01 0.45157938E+03</pdfrwt>
<totfact> 0.65165434E+04</totfact>
</mgrwt>
</event>
<event>
 7    0  0.4737014E-002  0.4570853E+03  0.7546771E-02  0.1025630E+00
         21   -1    0    0  502  501  0.00000000000E+00  0.00000000000E+00  0.92034773194E+03  0.92034773194E+03  0.00000000000E+00 0. -1.
         21   -1    0    0  501  502 -0.00000000000E+00 -0.00000000000E+00 -0.56752192274E+02  0.56752192274E+02  0.00000000000E+00 0. -1.
      99926    2    1    2    0    0  0.00000000000E+00  0.00000000000E+00  0.86359553967E+03  0.97709992422E+03  0.45708533751E+03 0.  0.
      99925    2    3    3    0    0 -0.75199359414E+02  0.79594581373E+02  0.61847999300E+03  0.68092534672E+03  0.26296688958E+03 0.  0.
         25    1    4    4    0    0 -0.83550370693E+01  0.55054950686E+02  0.35851851630E+03  0.38377583153E+03  0.12509000000E+03 0.  0.
         25    1    3    3    0    0  0.75199359414E+02 -0.79594581373E+02  0.24511554667E+03  0.29617457750E+03  0.12509000000E+03 0.  0.
         25    1    4    4    0    0 -0.66844322345E+02  0.24539630687E+02  0.25996147671E+03  0.29714951519E+03  0.12509000000E+03 0.  0.
<mgrwt>
<rscale>  2 0.45708534E+03</rscale>
<asrwt>0</asrwt>
<pdfrwt beam="1">  1       21 0.13534525E+00 0.45708534E+03</pdfrwt>
<pdfrwt beam="2">  1       21 0.83459112E-02 0.45708534E+03</pdfrwt>
<totfact> 0.39415952E+04</totfact>
</mgrwt>
</event>
<event>
 7    0  0.4737014E-002  0.4448539E+03  0.7546771E-02  0.1029268E+00
         21   -1    0    0  502  501  0.00000000000E+00  0.00000000000E+00  0.14933302405E+03  0.14933302405E+03  0.00000000000E+00 0. -1.
         21   -1    0    0  501  502 -0.00000000000E+00 -0.00000000000E+00 -0.33129807569E+03  0.33129807569E+03  0.00000000000E+00 0. -1.
      99926    2    1    2    0    0  0.00000000000E+00  0.14210854715E-13 -0.18196505164E+03  0.48063109974E+03  0.44485387941E+03 0.  0.
      99925    2    3    3    0    0  0.26420835389E+02  0.96856575660E+02 -0.14258558851E+03  0.31547206424E+03  0.26289297533E+03 0.  0.
         25    1    4    4    0    0 -0.42899448241E+01  0.78091439006E+02 -0.50121579746E+02  0.15580872032E+03  0.12509000000E+03 0.  0.
         25    1    4    4    0    0  0.30710780213E+02  0.18765136654E+02 -0.92464008764E+02  0.15966334392E+03  0.12509000000E+03 0.  0.
         25    1    3    3    0    0 -0.26420835389E+02 -0.96856575660E+02 -0.39379463127E+02  0.16515903550E+03  0.12509000000E+03 0.  0.
<mgrwt>
<rscale>  2 0.44485388E+03</rscale>
<asrwt>0</asrwt>
<pdfrwt beam="1">  1       21 0.21960739E-01 0.44485388E+03</pdfrwt>
<pdfrwt beam="2">  1       21 0.48720305E-01 0.44485388E+03</pdfrwt>
<totfact> 0.72304787E+04</totfact>
</mgrwt>
</event>
<event>
 7    0  0.4737014E-002  0.4721229E+03  0.7546771E-02  0.1021323E+00
         21   -1    0    0  502  501  0.00000000000E+00  0.00000000000E+00  0.19875795128E+03  0.19875795128E+03  0.00000000000E+00 0.  1.
         21   -1    0    0  501  502 -0.00000000000E+00 -0.00000000000E+00 -0.28036621247E+03  0.28036621247E+03  0.00000000000E+00 0.  1.
      99926    2    1    2    0    0  0.00000000000E+00  0.00000000000E+00 -0.81608261199E+02  0.47912416375E+03  0.47212292466E+03 0.  0.
      99925    2    3    3    0    0  0.83391931908E+02  0.95457633177E+02 -0.71323959295E+02  0.30074353418E+03  0.26323600085E+03 0.  0.
         25    1    3    3    0    0 -0.83391931908E+02 -0.95457633177E+02 -0.10284301904E+02  0.17838062957E+03  0.12509000000E+03 0.  0.
         25    1    4    4    0    0  0.60428540338E+02  0.22671538786E+02 -0.62301773883E+02  0.15393058919E+03  0.12509000000E+03 0.  0.
         25    1    4    4    0    0  0.22963391570E+02  0.72786094391E+02 -0.90221854115E+01  0.14681294500E+03  0.12509000000E+03 0.  0.
<mgrwt>
<rscale>  2 0.47212292E+03</rscale>
<asrwt>0</asrwt>
<pdfrwt beam="1">  1       21 0.29229110E-01 0.47212292E+03</pdfrwt>
<pdfrwt beam="2">  1       21 0.41230326E-01 0.47212292E+03</pdfrwt>
<totfact> 0.58409732E+04</totfact>
</mgrwt>
</event>
<event>
 7    0  0.4737014E-002  0.4717772E+03  0.7546771E-02  0.1021420E+00
         21   -1    0    0  502  501  0.00000000000E+00  0.00000000000E+00  0.89817147022E+02  0.89817147022E+02  0.00000000000E+00 0.  1.
         21   -1    0    0  501  502 -0.00000000000E+00 -0.00000000000E+00 -0.61951907133E+03  0.61951907133E+03  0.00000000000E+00 0.  1.
      99926    2    1    2    0    0  0.00000000000E+00 -0.35527136788E-14 -0.52970192430E+03  0.70933621835E+03  0.47177721654E+03 0.  0.
      99925    2    3    3    0    0 -0.95767057068E+02  0.29022094101E+02 -0.44930360448E+03  0.53010170968E+03  0.26290774512E+03 0.  0.
         25    1    4    4    0    0 -0.49280587053E+02 -0.23488158847E+02 -0.19259451876E+03  0.23605174565E+03  0.12509000000E+03 0.  0.
         25    1    4    4    0    0 -0.46486470015E+02  0.52510252948E+02 -0.25670908572E+03  0.29404996404E+03  0.12509000000E+03 0.  0.
         25    1    3    3    0    0  0.95767057068E+02 -0.29022094101E+02 -0.80398319825E+02  0.17923450866E+03  0.12509000000E+03 0.  0.
<mgrwt>
<rscale>  2 0.47177722E+03</rscale>
<asrwt>0</asrwt>
<pdfrwt beam="1">  1       21 0.13208403E-01 0.47177722E+03</pdfrwt>
<pdfrwt beam="2">  1       21 0.91105750E-01 0.47177722E+03</pdfrwt>
<totfact> 0.46015480E+04</totfact>
</mgrwt>
</event>
<event>
 7    0  0.4737014E-002  0.4440074E+03  0.7546771E-02  0.1029524E+00
         21   -1    0    0  502  501  0.00000000000E+00  0.00000000000E+00  0.25645175026E+02  0.25645175026E+02  0.00000000000E+00 0. -1.
         21   -1    0    0  501  502 -0.00000000000E+00 -0.00000000000E+00 -0.19218287377E+04  0.19218287377E+04  0.00000000000E+00 0. -1.
      99926    2    1    2    0    0  0.00000000000E+00  0.71054273576E-14 -0.18961835626E+04  0.19474739127E+04  0.44400736186E+03 0.  0.
      99925    2    3    3    0    0  0.31815152708E+02  0.42383379018E+02 -0.82203166270E+03  0.86476510281E+03  0.26319968425E+03 0.  0.
         25    1    4    4    0    0  0.41474710440E+02 -0.92128593467E+01 -0.43715968617E+03  0.45668493264E+03  0.12509000000E+03 0.  0.
         25    1    3    3    0    0 -0.31815152708E+02 -0.42383379018E+02 -0.10741518999E+04  0.10827088099E+04  0.12509000000E+03 0.  0.
         25    1    4    4    0    0 -0.96595577324E+01  0.51596238365E+02 -0.38487197653E+03  0.40808017017E+03  0.12509000000E+03 0.  0.
<mgrwt>
<rscale>  2 0.44400736E+03</rscale>
<asrwt>0</asrwt>
<pdfrwt beam="1">  1       21 0.37713477E-02 0.44400736E+03</pdfrwt>
<pdfrwt beam="2">  1       21 0.28262199E+00 0.44400736E+03</pdfrwt>
<totfact> 0.15900561E+04</totfact>
</mgrwt>
</event>
<event>
 7    0  0.4737014E-002  0.4509855E+03  0.7546771E-02  0.1027429E+00
         21   -1    0    0  502  501  0.00000000000E+00  0.00000000000E+00  0.35434972682E+02  0.35434972682E+02  0.00000000000E+00 0. -1.
         21   -1    0    0  501  502 -0.00000000000E+00 -0.00000000000E+00 -0.14349378794E+04  0.14349378794E+04  0.00000000000E+00 0. -1.
      99926    2    1    2    0    0 -0.53290705182E-14  0.00000000000E+00 -0.13995029067E+04  0.14703728520E+04  0.45098551886E+03 0.  0.
      99925    2    3    3    0    0 -0.87816034799E+01  0.10829717078E+03 -0.84397666388E+03  0.89066403868E+03  0.26302172317E+03 0.  0.
         25    1    4    4    0    0 -0.42777649884E+02  0.68877140053E+02 -0.44773622000E+03  0.47189958524E+03  0.12509000000E+03 0.  0.
         25    1    4    4    0    0  0.33996046404E+02  0.39420030723E+02 -0.39624044388E+03  0.41876445343E+03  0.12509000000E+03 0.  0.
         25    1    3    3    0    0  0.87816034799E+01 -0.10829717078E+03 -0.55552624280E+03  0.57970881337E+03  0.12509000000E+03 0.  0.
<mgrwt>
<rscale>  2 0.45098552E+03</rscale>
<asrwt>0</asrwt>
<pdfrwt beam="1">  1       21 0.52110254E-02 0.45098552E+03</pdfrwt>
<pdfrwt beam="2">  1       21 0.21102028E+00 0.45098552E+03</pdfrwt>
<totfact> 0.25294309E+04</totfact>
</mgrwt>
</event>
<event>
 7    0  0.4737014E-002  0.4553146E+03  0.7546771E-02  0.1026149E+00
         21   -1    0    0  502  501  0.00000000000E+00  0.00000000000E+00  0.72776162412E+02  0.72776162412E+02  0.00000000000E+00 0.  1.
         21   -1    0    0  501  502 -0.00000000000E+00 -0.00000000000E+00 -0.71215403446E+03  0.71215403446E+03  0.00000000000E+00 0.  1.
      99926    2    1    2    0    0  0.00000000000E+00 -0.14210854715E-13 -0.63937787205E+03  0.78493019688E+03  0.45531456236E+03 0.  0.
      99925    2    3    3    0    0 -0.78366974430E+02 -0.64908648604E+02 -0.49002038785E+03  0.56513556197E+03  0.26249515720E+03 0.  0.
         25    1    4    4    0    0 -0.52745058111E+01 -0.99811328736E+01 -0.19603993831E+03  0.23282312801E+03  0.12509000000E+03 0.  0.
         25    1    3    3    0    0  0.78366974430E+02  0.64908648604E+02 -0.14935748420E+03  0.21979463490E+03  0.12509000000E+03 0.  0.
         25    1    4    4    0    0 -0.73092468619E+02 -0.54927515731E+02 -0.29398044954E+03  0.33231243396E+03  0.12509000000E+03 0.  0.
<mgrwt>
<rscale>  2 0.45531456E+03</rscale>
<asrwt>0</asrwt>
<pdfrwt beam="1">  1       21 0.10702377E-01 0.45531456E+03</pdfrwt>
<pdfrwt beam="2">  1       21 0.10472853E+00 0.45531456E+03</pdfrwt>
<totfact> 0.48382826E+04</totfact>
</mgrwt>
</event>
<event>
 7    0  0.4737014E-002  0.4574949E+03  0.7546771E-02  0.1025510E+00
         21   -1    0    0  502  501  0.00000000000E+00  0.00000000000E+00  0.80463852523E+03  0.80463852523E+03  0.00000000000E+00 0.  1.
         21   -1    0    0  501  502 -0.00000000000E+00 -0.00000000000E+00 -0.65029690042E+02  0.65029690042E+02  0.00000000000E+00 0.  1.
      99926    2    1    2    0    0  0.00000000000E+00  0.00000000000E+00  0.73960883518E+03  0.86966821527E+03  0.45749489130E+03 0.  0.
      99925    2    3    3    0    0 -0.34868707435E+02 -0.10770381550E+03  0.42070749417E+03  0.50888918036E+03  0.26297806677E+03 0.  0.
         25    1    3    3    0    0  0.34868707435E+02  0.10770381550E+03  0.31890134101E+03  0.36077903491E+03  0.12509000000E+03 0.  0.
         25    1    4    4    0    0 -0.37974796215E+02 -0.21295204816E+02  0.16765132417E+03  0.21365871265E+03  0.12509000000E+03 0.  0.
         25    1    4    4    0    0  0.31060887799E+01 -0.86408610679E+02  0.25305617000E+03  0.29523046771E+03  0.12509000000E+03 0.  0.
<mgrwt>
<rscale>  2 0.45749489E+03</rscale>
<asrwt>0</asrwt>
<pdfrwt beam="1">  1       21 0.11832919E+00 0.45749489E+03</pdfrwt>
<pdfrwt beam="2">  1       21 0.95631902E-02 0.45749489E+03</pdfrwt>
<totfact> 0.43710254E+04</totfact>
</mgrwt>
</event>
<event>
 7    0  0.4737014E-002  0.4567536E+03  0.7546771E-02  0.1025727E+00
         21   -1    0    0  502  501  0.00000000000E+00  0.00000000000E+00  0.26487669070E+03  0.26487669070E+03  0.00000000000E+00 0. -1.
         21   -1    0    0  501  502 -0.00000000000E+00 -0.00000000000E+00 -0.19690656547E+03  0.19690656547E+03  0.00000000000E+00 0. -1.
      99926    2    1    2    0    0  0.00000000000E+00  0.00000000000E+00  0.67970125234E+02  0.46178325618E+03  0.45675358538E+03 0.  0.
      99925    2    3    3    0    0 -0.11181076270E+03 -0.25607884926E+02  0.48315242987E+02  0.29092883592E+03  0.26295972018E+03 0.  0.
         25    1    4    4    0    0 -0.78333690431E+02 -0.16613067645E+02  0.60879769538E+02  0.16051796009E+03  0.12509000000E+03 0.  0.
         25    1    3    3    0    0  0.11181076270E+03  0.25607884926E+02  0.19654882247E+02  0.17085442026E+03  0.12509000000E+03 0.  0.
         25    1    4    4    0    0 -0.33477072269E+02 -0.89948172809E+01 -0.12564526551E+02  0.13041087582E+03  0.12509000000E+03 0.  0.
<mgrwt>
<rscale>  2 0.45675359E+03</rscale>
<asrwt>0</asrwt>
<pdfrwt beam="1">  1       21 0.38952455E-01 0.45675359E+03</pdfrwt>
<pdfrwt beam="2">  1       21 0.28956848E-01 0.45675359E+03</pdfrwt>
<totfact> 0.67107437E+04</totfact>
</mgrwt>
</event>
<event>
 7    0  0.4737014E-002  0.4598475E+03  0.7546771E-02  0.1024825E+00
         21   -1    0    0  502  501  0.00000000000E+00  0.00000000000E+00  0.54957949870E+03  0.54957949870E+03  0.00000000000E+00 0. -1.
         21   -1    0    0  501  502 -0.00000000000E+00 -0.00000000000E+00 -0.96191595058E+02  0.96191595058E+02  0.00000000000E+00 0. -1.
      99926    2    1    2    0    0  0.14210854715E-13  0.00000000000E+00  0.45338790364E+03  0.64577109375E+03  0.45984749033E+03 0.  0.
      99925    2    3    3    0    0  0.73632799372E+02 -0.34509012172E+02  0.40352684436E+03  0.48846154415E+03  0.26296027253E+03 0.  0.
         25    1    3    3    0    0 -0.73632799372E+02  0.34509012172E+02  0.49861059273E+02  0.15730954960E+03  0.12509000000E+03 0.  0.
         25    1    4    4    0    0  0.41711692697E+02 -0.57956351975E+02  0.21149578009E+03  0.25588430420E+03  0.12509000000E+03 0.  0.
         25    1    4    4    0    0  0.31921106676E+02  0.23447339802E+02  0.19203106428E+03  0.23257723995E+03  0.12509000000E+03 0.  0.
<mgrwt>
<rscale>  2 0.45984749E+03</rscale>
<asrwt>0</asrwt>
<pdfrwt beam="1">  1       21 0.80820513E-01 0.45984749E+03</pdfrwt>
<pdfrwt beam="2">  1       21 0.14145823E-01 0.45984749E+03</pdfrwt>
<totfact> 0.53856109E+04</totfact>
</mgrwt>
</event>
<event>
 7    0  0.4737014E-002  0.4565760E+03  0.7546771E-02  0.1025779E+00
         21   -1    0    0  502  501  0.00000000000E+00  0.00000000000E+00  0.49769279962E+03  0.49769279962E+03  0.00000000000E+00 0.  1.
         21   -1    0    0  501  502 -0.00000000000E+00 -0.00000000000E+00 -0.10471399388E+03  0.10471399388E+03  0.00000000000E+00 0.  1.
      99926    2    1    2    0    0  0.00000000000E+00  0.00000000000E+00  0.39297880574E+03  0.60240679350E+03  0.45657595546E+03 0.  0.
      99925    2    3    3    0    0 -0.74311770760E+02 -0.68587921233E+02  0.17528446218E+03  0.33173193776E+03  0.26285907562E+03 0.  0.
         25    1    4    4    0    0 -0.34559169374E+02 -0.43450979158E+02  0.42411220589E+02  0.14327785422E+03  0.12509000000E+03 0.  0.
         25    1    4    4    0    0 -0.39752601386E+02 -0.25136942075E+02  0.13287324159E+03  0.18845408354E+03  0.12509000000E+03 0.  0.
         25    1    3    3    0    0  0.74311770760E+02  0.68587921233E+02  0.21769434356E+03  0.27067485574E+03  0.12509000000E+03 0.  0.
<mgrwt>
<rscale>  2 0.45657596E+03</rscale>
<asrwt>0</asrwt>
<pdfrwt beam="1">  1       21 0.73190116E-01 0.45657596E+03</pdfrwt>
<pdfrwt beam="2">  1       21 0.15399117E-01 0.45657596E+03</pdfrwt>
<totfact> 0.57807226E+04</totfact>
</mgrwt>
</event>
<event>
 7    0  0.4737014E-002  0.4652013E+03  0.7546771E-02  0.1023283E+00
         21   -1    0    0  502  501  0.00000000000E+00  0.00000000000E+00  0.34057950406E+04  0.34057950406E+04  0.00000000000E+00 0. -1.
         21   -1    0    0  501  502 -0.00000000000E+00 -0.00000000000E+00 -0.15885589611E+02  0.15885589611E+02  0.00000000000E+00 0. -1.
      99926    2    1    2    0    0 -0.71054273576E-14 -0.14210854715E-13  0.33899094510E+04  0.34216806302E+04  0.46520129971E+03 0.  0.
      99925    2    3    3    0    0  0.38409530105E+02  0.70376614783E+02  0.27950426027E+04  0.28085393454E+04  0.26306262284E+03 0.  0.
         25    1    4    4    0    0  0.59424694956E+02  0.37426814574E+02  0.15450470607E+04  0.15516926205E+04  0.12509000000E+03 0.  0.
         25    1    4    4    0    0 -0.21015164851E+02  0.32949800209E+02  0.12499955420E+04  0.12568467248E+04  0.12509000000E+03 0.  0.
         25    1    3    3    0    0 -0.38409530105E+02 -0.70376614783E+02  0.59486684827E+03  0.61314128485E+03  0.12509000000E+03 0.  0.
<mgrwt>
<rscale>  2 0.46520130E+03</rscale>
<asrwt>0</asrwt>
<pdfrwt beam="1">  1       21 0.50085171E+00 0.46520130E+03</pdfrwt>
<pdfrwt beam="2">  1       21 0.23361185E-02 0.46520130E+03</pdfrwt>
<totfact> 0.13886554E+03</totfact>
</mgrwt>
</event>
<event>
 7    0  0.4737014E-002  0.4584368E+03  0.7546771E-02  0.1025236E+00
         21   -1    0    0  502  501  0.00000000000E+00  0.00000000000E+00  0.24698213188E+02  0.24698213188E+02  0.00000000000E+00 0. -1.
         21   -1    0    0  501  502 -0.00000000000E+00 -0.00000000000E+00 -0.21273231628E+04  0.21273231628E+04  0.00000000000E+00 0. -1.
      99926    2    1    2    0    0  0.00000000000E+00 -0.35527136788E-14 -0.21026249496E+04  0.21520213760E+04  0.45843682659E+03 0.  0.
      99925    2    3    3    0    0  0.84019866202E+02  0.26464652223E+02 -0.16759235128E+04  0.16987208796E+04  0.26300815645E+03 0.  0.
         25    1    3    3    0    0 -0.84019866202E+02 -0.26464652223E+02 -0.42670143686E+03  0.45330049642E+03  0.12509000000E+03 0.  0.
         25    1    4    4    0    0  0.52312414167E+01  0.18093116292E+02 -0.89338611418E+03  0.90229761380E+03  0.12509000000E+03 0.  0.
         25    1    4    4    0    0  0.78788624786E+02  0.83715359314E+01 -0.78253739858E+03  0.79642326579E+03  0.12509000000E+03 0.  0.
<mgrwt>
<rscale>  2 0.45843683E+03</rscale>
<asrwt>0</asrwt>
<pdfrwt beam="1">  1       21 0.36320903E-02 0.45843683E+03</pdfrwt>
<pdfrwt beam="2">  1       21 0.31284163E+00 0.45843683E+03</pdfrwt>
<totfact> 0.11084020E+04</totfact>
</mgrwt>
</event>
<event>
 7    0  0.4737014E-002  0.4576393E+03  0.7546771E-02  0.1025468E+00
         21   -1    0    0  502  501  0.00000000000E+00  0.00000000000E+00  0.41072280970E+03  0.41072280970E+03  0.00000000000E+00 0. -1.
         21   -1    0    0  501  502 -0.00000000000E+00 -0.00000000000E+00 -0.12747874831E+03  0.12747874831E+03  0.00000000000E+00 0. -1.
      99926    2    1    2    0    0  0.71054273576E-14  0.14210854715E-13  0.28324406140E+03  0.53820155801E+03  0.45763928888E+03 0.  0.
      99925    2    3    3    0    0 -0.33644824136E+02  0.73137136803E+02  0.27505499665E+03  0.38921973411E+03  0.26335477073E+03 0.  0.
         25    1    4    4    0    0 -0.44442751625E+02  0.68133233776E+02  0.13740763784E+03  0.20284393694E+03  0.12509000000E+03 0.  0.
         25    1    3    3    0    0  0.33644824136E+02 -0.73137136803E+02  0.81890647497E+01  0.14898182390E+03  0.12509000000E+03 0.  0.
         25    1    4    4    0    0  0.10797927489E+02  0.50039030266E+01  0.13764735881E+03  0.18637579717E+03  0.12509000000E+03 0.  0.
<mgrwt>
<rscale>  2 0.45763929E+03</rscale>
<asrwt>0</asrwt>
<pdfrwt beam="1">  1       21 0.60400413E-01 0.45763929E+03</pdfrwt>
<pdfrwt beam="2">  1       21 0.18746875E-01 0.45763929E+03</pdfrwt>
<totfact> 0.61361109E+04</totfact>
</mgrwt>
</event>
<event>
 7    0  0.4737014E-002  0.4703671E+03  0.7546771E-02  0.1021817E+00
         21   -1    0    0  502  501  0.00000000000E+00  0.00000000000E+00  0.95675954607E+02  0.95675954607E+02  0.00000000000E+00 0.  1.
         21   -1    0    0  501  502 -0.00000000000E+00 -0.00000000000E+00 -0.57811079584E+03  0.57811079584E+03  0.00000000000E+00 0.  1.
      99926    2    1    2    0    0  0.00000000000E+00 -0.14210854715E-13 -0.48243484123E+03  0.67378675045E+03  0.47036710030E+03 0.  0.
      99925    2    3    3    0    0  0.94163342586E+02  0.68756679363E+02 -0.37196375119E+03  0.47020486059E+03  0.26294745231E+03 0.  0.
         25    1    4    4    0    0  0.78103355790E+02  0.63971003803E+02 -0.19219454537E+03  0.25055672987E+03  0.12509000000E+03 0.  0.
         25    1    3    3    0    0 -0.94163342586E+02 -0.68756679363E+02 -0.11047109004E+03  0.20358188986E+03  0.12509000000E+03 0.  0.
         25    1    4    4    0    0  0.16059986796E+02  0.47856755591E+01 -0.17976920581E+03  0.21964813071E+03  0.12509000000E+03 0.  0.
<mgrwt>
<rscale>  2 0.47036710E+03</rscale>
<asrwt>0</asrwt>
<pdfrwt beam="1">  1       21 0.14069993E-01 0.47036710E+03</pdfrwt>
<pdfrwt beam="2">  1       21 0.85016293E-01 0.47036710E+03</pdfrwt>
<totfact> 0.48235400E+04</totfact>
</mgrwt>
</event>
<event>
 7    0  0.4737014E-002  0.4551340E+03  0.7546771E-02  0.1026202E+00
         21   -1    0    0  502  501  0.00000000000E+00  0.00000000000E+00  0.14485476167E+03  0.14485476167E+03  0.00000000000E+00 0. -1.
         21   -1    0    0  501  502 -0.00000000000E+00 -0.00000000000E+00 -0.35750809854E+03  0.35750809854E+03  0.00000000000E+00 0. -1.
      99926    2    1    2    0    0  0.14210854715E-13  0.13322676296E-14 -0.21265333687E+03  0.50236286021E+03  0.45513404798E+03 0.  0.
      99925    2    3    3    0    0  0.67543231411E+02  0.35437350676E+01 -0.33507178591E+02  0.27363704117E+03  0.26302063249E+03 0.  0.
         25    1    3    3    0    0 -0.67543231411E+02 -0.35437350676E+01 -0.17914615828E+03  0.22872581904E+03  0.12509000000E+03 0.  0.
         25    1    4    4    0    0  0.55127525136E+01  0.31256192103E+02 -0.11028569256E+02  0.12952404188E+03  0.12509000000E+03 0.  0.
         25    1    4    4    0    0  0.62030478897E+02 -0.27712457035E+02 -0.22478609334E+02  0.14411299929E+03  0.12509000000E+03 0.  0.
<mgrwt>
<rscale>  2 0.45513405E+03</rscale>
<asrwt>0</asrwt>
<pdfrwt beam="1">  1       21 0.21302171E-01 0.45513405E+03</pdfrwt>
<pdfrwt beam="2">  1       21 0.52574720E-01 0.45513405E+03</pdfrwt>
<totfact> 0.65035753E+04</totfact>
</mgrwt>
</event>
<event>
 7    0  0.4737014E-002  0.4196077E+03  0.7546771E-02  0.1037194E+00
         21   -1    0    0  502  501  0.00000000000E+00  0.00000000000E+00  0.61473713604E+03  0.61473713604E+03  0.00000000000E+00 0. -1.
         21   -1    0    0  501  502 -0.00000000000E+00 -0.00000000000E+00 -0.71604034411E+02  0.71604034411E+02  0.00000000000E+00 0. -1.
      99926    2    1    2    0    0  0.71054273576E-14  0.00000000000E+00  0.54313310163E+03  0.68634117045E+03  0.41960771700E+03 0.  0.
      99925    2    3    3    0    0  0.39376857936E+02  0.42470346877E+02  0.43279877014E+03  0.50977548831E+03  0.26306274107E+03 0.  0.
         25    1    4    4    0    0  0.39969247976E+02  0.49184685506E+02  0.27118542586E+03  0.30529611424E+03  0.12509000000E+03 0.  0.
         25    1    4    4    0    0 -0.59239003948E+00 -0.67143386288E+01  0.16161334428E+03  0.20447937407E+03  0.12509000000E+03 0.  0.
         25    1    3    3    0    0 -0.39376857936E+02 -0.42470346877E+02  0.11033433148E+03  0.17656568214E+03  0.12509000000E+03 0.  0.
<mgrwt>
<rscale>  2 0.41960772E+03</rscale>
<asrwt>0</asrwt>
<pdfrwt beam="1">  1       21 0.90402517E-01 0.41960772E+03</pdfrwt>
<pdfrwt beam="2">  1       21 0.10530005E-01 0.41960772E+03</pdfrwt>
<totfact> 0.71614780E+04</totfact>
</mgrwt>
</event>
<event>
 7    0  0.4737014E-002  0.4526965E+03  0.7546771E-02  0.1026921E+00
         21   -1    0    0  502  501  0.00000000000E+00  0.00000000000E+00  0.58124824541E+03  0.58124824541E+03  0.00000000000E+00 0.  1.
         21   -1    0    0  501  502 -0.00000000000E+00 -0.00000000000E+00 -0.88143961469E+02  0.88143961469E+02  0.00000000000E+00 0.  1.
      99926    2    1    2    0    0  0.00000000000E+00  0.00000000000E+00  0.49310428394E+03  0.66939220688E+03  0.45269646761E+03 0.  0.
      99925    2    3    3    0    0 -0.10966544870E+03  0.14186407237E+02  0.29668657555E+03  0.41160316704E+03  0.26299520569E+03 0.  0.
         25    1    4    4    0    0 -0.89549452336E+02 -0.17055636386E+02  0.16354086834E+03  0.22517353944E+03  0.12509000000E+03 0.  0.
         25    1    3    3    0    0  0.10966544870E+03 -0.14186407237E+02  0.19641770839E+03  0.25778903983E+03  0.12509000000E+03 0.  0.
         25    1    4    4    0    0 -0.20115996367E+02  0.31242043623E+02  0.13314570721E+03  0.18642962760E+03  0.12509000000E+03 0.  0.
<mgrwt>
<rscale>  2 0.45269647E+03</rscale>
<asrwt>0</asrwt>
<pdfrwt beam="1">  1       21 0.85477681E-01 0.45269647E+03</pdfrwt>
<pdfrwt beam="2">  1       21 0.12962348E-01 0.45269647E+03</pdfrwt>
<totfact> 0.55599268E+04</totfact>
</mgrwt>
</event>
<event>
 7    0  0.4737014E-002  0.4394642E+03  0.7546771E-02  0.1030911E+00
         21   -1    0    0  502  501  0.00000000000E+00  0.00000000000E+00  0.10222700246E+03  0.10222700246E+03  0.00000000000E+00 0. -1.
         21   -1    0    0  501  502 -0.00000000000E+00 -0.00000000000E+00 -0.47230377264E+03  0.47230377264E+03  0.00000000000E+00 0. -1.
      99926    2    1    2    0    0  0.17763568394E-14  0.71054273576E-14 -0.37007677017E+03  0.57453077510E+03  0.43946421437E+03 0.  0.
      99925    2    3    3    0    0 -0.11083164408E+02  0.55358553936E+02 -0.13018297186E+03  0.29815431337E+03  0.26222315381E+03 0.  0.
         25    1    4    4    0    0  0.32977027177E+02  0.19314185591E+02 -0.63150573873E+02  0.14524470788E+03  0.12509000000E+03 0.  0.
         25    1    4    4    0    0 -0.44060191585E+02  0.36044368345E+02 -0.67032397988E+02  0.15290960549E+03  0.12509000000E+03 0.  0.
         25    1    3    3    0    0  0.11083164408E+02 -0.55358553936E+02 -0.23989379831E+03  0.27637646173E+03  0.12509000000E+03 0.  0.
<mgrwt>
<rscale>  2 0.43946421E+03</rscale>
<asrwt>0</asrwt>
<pdfrwt beam="1">  1       21 0.15033383E-01 0.43946421E+03</pdfrwt>
<pdfrwt beam="2">  1       21 0.69456438E-01 0.43946421E+03</pdfrwt>
<totfact> 0.68282848E+04</totfact>
</mgrwt>
</event>
<event>
 7    0  0.4737014E-002  0.4347750E+03  0.7546771E-02  0.1032362E+00
         21   -1    0    0  502  501  0.00000000000E+00  0.00000000000E+00  0.39413118371E+03  0.39413118371E+03  0.00000000000E+00 0. -1.
         21   -1    0    0  501  502 -0.00000000000E+00 -0.00000000000E+00 -0.11990250783E+03  0.11990250783E+03  0.00000000000E+00 0. -1.
      99926    2    1    2    0    0  0.35527136788E-14  0.00000000000E+00  0.27422867588E+03  0.51403369154E+03  0.43477496405E+03 0.  0.
      99925    2    3    3    0    0  0.16026916614E+02  0.27948138600E+02  0.27902313385E+03  0.38477250079E+03  0.26297910113E+03 0.  0.
         25    1    4    4    0    0 -0.21045098980E+02  0.45588568195E+01  0.97740282465E+02  0.16020096842E+03  0.12509000000E+03 0.  0.
         25    1    3    3    0    0 -0.16026916614E+02 -0.27948138600E+02 -0.47944579704E+01  0.12926119075E+03  0.12509000000E+03 0.  0.
         25    1    4    4    0    0  0.37072015593E+02  0.23389281780E+02  0.18128285139E+03  0.22457153237E+03  0.12509000000E+03 0.  0.
<mgrwt>
<rscale>  2 0.43477496E+03</rscale>
<asrwt>0</asrwt>
<pdfrwt beam="1">  1       21 0.57960468E-01 0.43477496E+03</pdfrwt>
<pdfrwt beam="2">  1       21 0.17632722E-01 0.43477496E+03</pdfrwt>
<totfact> 0.75726759E+04</totfact>
</mgrwt>
</event>
<event>
 7    0  0.4737014E-002  0.4587223E+03  0.7546771E-02  0.1025152E+00
         21   -1    0    0  502  501  0.00000000000E+00  0.00000000000E+00  0.33674163926E+03  0.33674163926E+03  0.00000000000E+00 0. -1.
         21   -1    0    0  501  502 -0.00000000000E+00 -0.00000000000E+00 -0.15622222842E+03  0.15622222842E+03  0.00000000000E+00 0. -1.
      99926    2    1    2    0    0  0.00000000000E+00  0.00000000000E+00  0.18051941083E+03  0.49296386768E+03  0.45872226581E+03 0.  0.
      99925    2    3    3    0    0 -0.15122698018E+02  0.54535668892E+02  0.37204292112E+01  0.26911520635E+03  0.26307093629E+03 0.  0.
         25    1    4    4    0    0 -0.24245068555E+02  0.23206651940E+02  0.38733257901E+02  0.13518189750E+03  0.12509000000E+03 0.  0.
         25    1    3    3    0    0  0.15122698018E+02 -0.54535668892E+02  0.17679898162E+03  0.22384866133E+03  0.12509000000E+03 0.  0.
         25    1    4    4    0    0  0.91223705371E+01  0.31329016952E+02 -0.35012828690E+02  0.13393330885E+03  0.12509000000E+03 0.  0.
<mgrwt>
<rscale>  2 0.45872227E+03</rscale>
<asrwt>0</asrwt>
<pdfrwt beam="1">  1       21 0.49520829E-01 0.45872227E+03</pdfrwt>
<pdfrwt beam="2">  1       21 0.22973857E-01 0.45872227E+03</pdfrwt>
<totfact> 0.63859836E+04</totfact>
</mgrwt>
</event>
<event>
 7    0  0.4737014E-002  0.4562481E+03  0.7546771E-02  0.1025875E+00
         21   -1    0    0  502  501  0.00000000000E+00  0.00000000000E+00  0.21614287663E+03  0.21614287663E+03  0.00000000000E+00 0. -1.
         21   -1    0    0  501  502 -0.00000000000E+00 -0.00000000000E+00 -0.24076932343E+03  0.24076932343E+03  0.00000000000E+00 0. -1.
      99926    2    1    2    0    0  0.00000000000E+00  0.00000000000E+00 -0.24626446802E+02  0.45691220006E+03  0.45624806485E+03 0.  0.
      99925    2    3    3    0    0  0.82979292889E+02 -0.62511762783E+02 -0.63195457766E+02  0.28979439658E+03  0.26304722555E+03 0.  0.
         25    1    4    4    0    0  0.20154583831E+02 -0.17802619080E+02 -0.63519191104E+02  0.14284724790E+03  0.12509000000E+03 0.  0.
         25    1    3    3    0    0 -0.82979292889E+02  0.62511762783E+02  0.38569010964E+02  0.16711780348E+03  0.12509000000E+03 0.  0.
         25    1    4    4    0    0  0.62824709059E+02 -0.44709143704E+02  0.32373333792E+00  0.14694714867E+03  0.12509000000E+03 0.  0.
<mgrwt>
<rscale>  2 0.45624806E+03</rscale>
<asrwt>0</asrwt>
<pdfrwt beam="1">  1       21 0.31785717E-01 0.45624806E+03</pdfrwt>
<pdfrwt beam="2">  1       21 0.35407253E-01 0.45624806E+03</pdfrwt>
<totfact> 0.67728993E+04</totfact>
</mgrwt>
</event>
<event>
 7    0  0.4737014E-002  0.4508384E+03  0.7546771E-02  0.1027472E+00
         21   -1    0    0  502  501  0.00000000000E+00  0.00000000000E+00  0.10823353499E+03  0.10823353499E+03  0.00000000000E+00 0. -1.
         21   -1    0    0  501  502 -0.00000000000E+00 -0.00000000000E+00 -0.46948306498E+03  0.46948306498E+03  0.00000000000E+00 0. -1.
      99926    2    1    2    0    0  0.00000000000E+00 -0.35527136788E-14 -0.36124952998E+03  0.57771659997E+03  0.45083838232E+03 0.  0.
      99925    2    3    3    0    0 -0.10652976186E+03 -0.28874412094E+02 -0.21893173306E+03  0.35843553545E+03  0.26146243993E+03 0.  0.
         25    1    4    4    0    0 -0.50774178900E+02 -0.52282231247E+02 -0.10712733531E+03  0.18009781514E+03  0.12509000000E+03 0.  0.
         25    1    3    3    0    0  0.10652976186E+03  0.28874412094E+02 -0.14231779692E+03  0.21928106452E+03  0.12509000000E+03 0.  0.
         25    1    4    4    0    0 -0.55755582965E+02  0.23407819153E+02 -0.11180439775E+03  0.17833772031E+03  0.12509000000E+03 0.  0.
<mgrwt>
<rscale>  2 0.45083838E+03</rscale>
<asrwt>0</asrwt>
<pdfrwt beam="1">  1       21 0.15916696E-01 0.45083838E+03</pdfrwt>
<pdfrwt beam="2">  1       21 0.69041627E-01 0.45083838E+03</pdfrwt>
<totfact> 0.62089054E+04</totfact>
</mgrwt>
</event>
<event>
 7    0  0.4737014E-002  0.4550563E+03  0.7546771E-02  0.1026225E+00
         21   -1    0    0  502  501  0.00000000000E+00  0.00000000000E+00  0.20264307509E+03  0.20264307509E+03  0.00000000000E+00 0.  1.
         21   -1    0    0  501  502 -0.00000000000E+00 -0.00000000000E+00 -0.25546915579E+03  0.25546915579E+03  0.00000000000E+00 0.  1.
      99926    2    1    2    0    0  0.71054273576E-14 -0.14210854715E-13 -0.52826080696E+02  0.45811223088E+03  0.45505628364E+03 0.  0.
      99925    2    3    3    0    0 -0.61895733068E+02  0.94289997516E+02 -0.24150538448E+02  0.28725708690E+03  0.26308116630E+03 0.  0.
         25    1    4    4    0    0 -0.54373857318E+02  0.83612625422E+02 -0.21817299751E+02  0.16146544571E+03  0.12509000000E+03 0.  0.
         25    1    3    3    0    0  0.61895733068E+02 -0.94289997516E+02 -0.28675542248E+02  0.17085514399E+03  0.12509000000E+03 0.  0.
         25    1    4    4    0    0 -0.75218757500E+01  0.10677372094E+02 -0.23332386970E+01  0.12579164119E+03  0.12509000000E+03 0.  0.
<mgrwt>
<rscale>  2 0.45505628E+03</rscale>
<asrwt>0</asrwt>
<pdfrwt beam="1">  1       21 0.29800452E-01 0.45505628E+03</pdfrwt>
<pdfrwt beam="2">  1       21 0.37568993E-01 0.45505628E+03</pdfrwt>
<totfact> 0.68287631E+04</totfact>
</mgrwt>
</event>
<event>
 7    0  0.4737014E-002  0.4575592E+03  0.7546771E-02  0.1025492E+00
         21   -1    0    0  502  501  0.00000000000E+00  0.00000000000E+00  0.48981208236E+02  0.48981208236E+02  0.00000000000E+00 0.  1.
         21   -1    0    0  501  502 -0.00000000000E+00 -0.00000000000E+00 -0.10685751532E+04  0.10685751532E+04  0.00000000000E+00 0.  1.
      99926    2    1    2    0    0  0.00000000000E+00  0.00000000000E+00 -0.10195939449E+04  0.11175563614E+04  0.45755918565E+03 0.  0.
      99925    2    3    3    0    0 -0.10990939230E+03 -0.24706775359E+02 -0.70411537938E+03  0.75997457679E+03  0.26285431445E+03 0.  0.
         25    1    3    3    0    0  0.10990939230E+03  0.24706775359E+02 -0.31547856555E+03  0.35758178461E+03  0.12509000000E+03 0.  0.
         25    1    4    4    0    0 -0.71793017795E+02  0.16319414822E+02 -0.30037398467E+03  0.33360545480E+03  0.12509000000E+03 0.  0.
         25    1    4    4    0    0 -0.38116374507E+02 -0.41026190181E+02 -0.40374139471E+03  0.42636912199E+03  0.12509000000E+03 0.  0.
<mgrwt>
<rscale>  2 0.45755919E+03</rscale>
<asrwt>0</asrwt>
<pdfrwt beam="1">  1       21 0.72031188E-02 0.45755919E+03</pdfrwt>
<pdfrwt beam="2">  1       21 0.15714341E+00 0.45755919E+03</pdfrwt>
<totfact> 0.34196786E+04</totfact>
</mgrwt>
</event>
<event>
 7    0  0.4737014E-002  0.4524641E+03  0.7546771E-02  0.1026990E+00
         21   -1    0    0  502  501  0.00000000000E+00  0.00000000000E+00  0.67558122733E+02  0.67558122733E+02  0.00000000000E+00 0. -1.
         21   -1    0    0  501  502 -0.00000000000E+00 -0.00000000000E+00 -0.75758366687E+03  0.75758366687E+03  0.00000000000E+00 0. -1.
      99926    2    1    2    0    0  0.00000000000E+00 -0.71054273576E-14 -0.69002554414E+03  0.82514178961E+03  0.45246405536E+03 0.  0.
      99925    2    3    3    0    0 -0.10027928056E+03 -0.36806277033E+02 -0.48963992488E+03  0.56588797451E+03  0.26281420722E+03 0.  0.
         25    1    4    4    0    0 -0.56233062653E+02  0.13785340009E+02 -0.28816011616E+03  0.31943067101E+03  0.12509000000E+03 0.  0.
         25    1    3    3    0    0  0.10027928056E+03  0.36806277033E+02 -0.20038561926E+03  0.25925381510E+03  0.12509000000E+03 0.  0.
         25    1    4    4    0    0 -0.44046217902E+02 -0.50591617042E+02 -0.20147980872E+03  0.24645730350E+03  0.12509000000E+03 0.  0.
<mgrwt>
<rscale>  2 0.45246406E+03</rscale>
<asrwt>0</asrwt>
<pdfrwt beam="1">  1       21 0.99350189E-02 0.45246406E+03</pdfrwt>
<pdfrwt beam="2">  1       21 0.11140935E+00 0.45246406E+03</pdfrwt>
<totfact> 0.47511000E+04</totfact>
</mgrwt>
</event>
<event>
 7    0  0.4737014E-002  0.4366704E+03  0.7546771E-02  0.1031773E+00
         21   -1    0    0  502  501  0.00000000000E+00  0.00000000000E+00  0.18548599093E+03  0.18548599093E+03  0.00000000000E+00 0. -1.
         21   -1    0    0  501  502 -0.00000000000E+00 -0.00000000000E+00 -0.25700189175E+03  0.25700189175E+03  0.00000000000E+00 0. -1.
      99926    2    1    2    0    0  0.00000000000E+00  0.00000000000E+00 -0.71515900814E+02  0.44248788268E+03  0.43667035880E+03 0.  0.
      99925    2    3    3    0    0  0.84053155150E+02 -0.40759822138E+02 -0.28494198615E+02  0.28054755123E+03  0.26299945467E+03 0.  0.
         25    1    4    4    0    0  0.66285139869E+02 -0.25364022053E+02  0.18209024476E+02  0.14496941075E+03  0.12509000000E+03 0.  0.
         25    1    3    3    0    0 -0.84053155150E+02  0.40759822138E+02 -0.43021702199E+02  0.16194033145E+03  0.12509000000E+03 0.  0.
         25    1    4    4    0    0  0.17768015282E+02 -0.15395800085E+02 -0.46703223091E+02  0.13557814047E+03  0.12509000000E+03 0.  0.
<mgrwt>
<rscale>  2 0.43667036E+03</rscale>
<asrwt>0</asrwt>
<pdfrwt beam="1">  1       21 0.27277352E-01 0.43667036E+03</pdfrwt>
<pdfrwt beam="2">  1       21 0.37794396E-01 0.43667036E+03</pdfrwt>
<totfact> 0.80633108E+04</totfact>
</mgrwt>
</event>
<event>
 7    0  0.4737014E-002  0.4560735E+03  0.7546771E-02  0.1025926E+00
         21   -1    0    0  502  501  0.00000000000E+00  0.00000000000E+00  0.20187854644E+03  0.20187854644E+03  0.00000000000E+00 0.  1.
         21   -1    0    0  501  502 -0.00000000000E+00 -0.00000000000E+00 -0.25758435585E+03  0.25758435585E+03  0.00000000000E+00 0.  1.
      99926    2    1    2    0    0  0.00000000000E+00  0.14210854715E-13 -0.55705809408E+02  0.45946290230E+03  0.45607348244E+03 0.  0.
      99925    2    3    3    0    0  0.47967145128E+01  0.78266465008E+02  0.48492454913E+02  0.27876028914E+03  0.26307248545E+03 0.  0.
         25    1    4    4    0    0  0.15718255239E+02  0.64092433818E+02 -0.50534860128E+01  0.14152013794E+03  0.12509000000E+03 0.  0.
         25    1    4    4    0    0 -0.10921540726E+02  0.14174031189E+02  0.53545940926E+02  0.13724015120E+03  0.12509000000E+03 0.  0.
         25    1    3    3    0    0 -0.47967145128E+01 -0.78266465008E+02 -0.10419826432E+03  0.18070261316E+03  0.12509000000E+03 0.  0.
<mgrwt>
<rscale>  2 0.45607348E+03</rscale>
<asrwt>0</asrwt>
<pdfrwt beam="1">  1       21 0.29688022E-01 0.45607348E+03</pdfrwt>
<pdfrwt beam="2">  1       21 0.37880052E-01 0.45607348E+03</pdfrwt>
<totfact> 0.67638775E+04</totfact>
</mgrwt>
</event>
<event>
 7    0  0.4737014E-002  0.4461538E+03  0.7546771E-02  0.1028875E+00
         21   -1    0    0  502  501  0.00000000000E+00  0.00000000000E+00  0.32650770555E+03  0.32650770555E+03  0.00000000000E+00 0.  1.
         21   -1    0    0  501  502 -0.00000000000E+00 -0.00000000000E+00 -0.15241083394E+03  0.15241083394E+03  0.00000000000E+00 0.  1.
      99926    2    1    2    0    0  0.00000000000E+00  0.00000000000E+00  0.17409687161E+03  0.47891853949E+03  0.44615383755E+03 0.  0.
      99925    2    3    3    0    0  0.67119656046E+02 -0.53856462437E+02  0.17424608515E+03  0.32708607544E+03  0.26309320741E+03 0.  0.
         25    1    4    4    0    0  0.43194921345E+02 -0.46328041858E+02  0.13232920603E+03  0.19279682456E+03  0.12509000000E+03 0.  0.
         25    1    4    4    0    0  0.23924734701E+02 -0.75284205795E+01  0.41916879126E+02  0.13428925088E+03  0.12509000000E+03 0.  0.
         25    1    3    3    0    0 -0.67119656046E+02  0.53856462437E+02 -0.14921354025E+00  0.15183246405E+03  0.12509000000E+03 0.  0.
<mgrwt>
<rscale>  2 0.44615384E+03</rscale>
<asrwt>0</asrwt>
<pdfrwt beam="1">  1       21 0.48015839E-01 0.44615384E+03</pdfrwt>
<pdfrwt beam="2">  1       21 0.22413358E-01 0.44615384E+03</pdfrwt>
<totfact> 0.71681871E+04</totfact>
</mgrwt>
</event>
<event>
 7    0  0.4737014E-002  0.4536287E+03  0.7546771E-02  0.1026645E+00
         21   -1    0    0  502  501  0.00000000000E+00  0.00000000000E+00  0.92488535919E+03  0.92488535919E+03  0.00000000000E+00 0. -1.
         21   -1    0    0  501  502 -0.00000000000E+00 -0.00000000000E+00 -0.55622844252E+02  0.55622844252E+02  0.00000000000E+00 0. -1.
      99926    2    1    2    0    0  0.00000000000E+00  0.00000000000E+00  0.86926251494E+03  0.98050820344E+03  0.45362872169E+03 0.  0.
      99925    2    3    3    0    0  0.71517367412E+02 -0.49573290943E+02  0.69943771486E+03  0.75234112466E+03  0.26311937571E+03 0.  0.
         25    1    3    3    0    0 -0.71517367412E+02  0.49573290943E+02  0.16982480008E+03  0.22816707878E+03  0.12509000000E+03 0.  0.
         25    1    4    4    0    0  0.66479567949E+01 -0.27293596082E+02  0.41134531360E+03  0.43086147523E+03  0.12509000000E+03 0.  0.
         25    1    4    4    0    0  0.64869410617E+02 -0.22279694860E+02  0.28809240126E+03  0.32147964944E+03  0.12509000000E+03 0.  0.
<mgrwt>
<rscale>  2 0.45362872E+03</rscale>
<asrwt>0</asrwt>
<pdfrwt beam="1">  1       21 0.13601254E+00 0.45362872E+03</pdfrwt>
<pdfrwt beam="2">  1       21 0.81798306E-02 0.45362872E+03</pdfrwt>
<totfact> 0.40360257E+04</totfact>
</mgrwt>
</event>
<event>
 7    0  0.4737014E-002  0.4543625E+03  0.7546771E-02  0.1026429E+00
         21   -1    0    0  502  501  0.00000000000E+00  0.00000000000E+00  0.78180475233E+02  0.78180475233E+02  0.00000000000E+00 0. -1.
         21   -1    0    0  501  502 -0.00000000000E+00 -0.00000000000E+00 -0.66015618924E+03  0.66015618924E+03  0.00000000000E+00 0. -1.
      99926    2    1    2    0    0  0.14210854715E-13  0.00000000000E+00 -0.58197571400E+03  0.73833666447E+03  0.45436251871E+03 0.  0.
      99925    2    3    3    0    0 -0.86365700862E+02 -0.71026047070E+02 -0.38781008216E+03  0.48172112648E+03  0.26297309791E+03 0.  0.
         25    1    4    4    0    0 -0.55149706275E+02  0.29827555932E+01 -0.19792503043E+03  0.24056644135E+03  0.12509000000E+03 0.  0.
         25    1    4    4    0    0 -0.31215994587E+02 -0.74008802663E+02 -0.18988505173E+03  0.24115468513E+03  0.12509000000E+03 0.  0.
         25    1    3    3    0    0  0.86365700862E+02  0.71026047070E+02 -0.19416563184E+03  0.25661553799E+03  0.12509000000E+03 0.  0.
<mgrwt>
<rscale>  2 0.45436252E+03</rscale>
<asrwt>0</asrwt>
<pdfrwt beam="1">  1       21 0.11497129E-01 0.45436252E+03</pdfrwt>
<pdfrwt beam="2">  1       21 0.97081787E-01 0.45436252E+03</pdfrwt>
<totfact> 0.51126218E+04</totfact>
</mgrwt>
</event>
<event>
 7    0  0.4737014E-002  0.4543531E+03  0.7546771E-02  0.1026432E+00
         21   -1    0    0  502  501  0.00000000000E+00  0.00000000000E+00  0.59586635185E+02  0.59586635185E+02  0.00000000000E+00 0. -1.
         21   -1    0    0  501  502 -0.00000000000E+00 -0.00000000000E+00 -0.86612016559E+03  0.86612016559E+03  0.00000000000E+00 0. -1.
      99926    2    1    2    0    0  0.14210854715E-13  0.00000000000E+00 -0.80653353040E+03  0.92570680077E+03  0.45435310644E+03 0.  0.
      99925    2    3    3    0    0  0.73214548445E+02 -0.73790387758E+02 -0.42117418085E+03  0.50743090162E+03  0.26323570782E+03 0.  0.
         25    1    4    4    0    0  0.56268909733E+01 -0.43924037502E+02 -0.24898581009E+03  0.28213901662E+03  0.12509000000E+03 0.  0.
         25    1    4    4    0    0  0.67587657472E+02 -0.29866350256E+02 -0.17218837076E+03  0.22529188500E+03  0.12509000000E+03 0.  0.
         25    1    3    3    0    0 -0.73214548445E+02  0.73790387758E+02 -0.38535934955E+03  0.41827589916E+03  0.12509000000E+03 0.  0.
<mgrwt>
<rscale>  2 0.45435311E+03</rscale>
<asrwt>0</asrwt>
<pdfrwt beam="1">  1       21 0.87627401E-02 0.45435311E+03</pdfrwt>
<pdfrwt beam="2">  1       21 0.12737062E+00 0.45435311E+03</pdfrwt>
<totfact> 0.42354438E+04</totfact>
</mgrwt>
</event>
<event>
 7    0  0.4737014E-002  0.4547463E+03  0.7546771E-02  0.1026316E+00
         21   -1    0    0  502  501  0.00000000000E+00  0.00000000000E+00  0.13770236051E+03  0.13770236051E+03  0.00000000000E+00 0. -1.
         21   -1    0    0  501  502 -0.00000000000E+00 -0.00000000000E+00 -0.37543693750E+03  0.37543693750E+03  0.00000000000E+00 0. -1.
      99926    2    1    2    0    0  0.71054273576E-14  0.14210854715E-13 -0.23773457699E+03  0.51313929801E+03  0.45474631396E+03 0.  0.
      99925    2    3    3    0    0 -0.40699840793E+02 -0.85859111074E+02 -0.21853955380E+03  0.35488563767E+03  0.26297531301E+03 0.  0.
         25    1    4    4    0    0  0.47294236795E-02 -0.18842882024E+02 -0.13603192623E+03  0.18576126421E+03  0.12509000000E+03 0.  0.
         25    1    4    4    0    0 -0.40704570217E+02 -0.67016229051E+02 -0.82507627568E+02  0.16912437346E+03  0.12509000000E+03 0.  0.
         25    1    3    3    0    0  0.40699840793E+02  0.85859111074E+02 -0.19195023196E+02  0.15825366034E+03  0.12509000000E+03 0.  0.
<mgrwt>
<rscale>  2 0.45474631E+03</rscale>
<asrwt>0</asrwt>
<pdfrwt beam="1">  1       21 0.20250348E-01 0.45474631E+03</pdfrwt>
<pdfrwt beam="2">  1       21 0.55211312E-01 0.45474631E+03</pdfrwt>
<totfact> 0.64486820E+04</totfact>
</mgrwt>
</event>
<event>
 7    0  0.4737014E-002  0.4612384E+03  0.7546771E-02  0.1024423E+00
         21   -1    0    0  502  501  0.00000000000E+00  0.00000000000E+00  0.33374707102E+03  0.33374707102E+03  0.00000000000E+00 0.  1.
         21   -1    0    0  501  502 -0.00000000000E+00 -0.00000000000E+00 -0.15935784002E+03  0.15935784002E+03  0.00000000000E+00 0.  1.
      99926    2    1    2    0    0  0.00000000000E+00  0.00000000000E+00  0.17438923100E+03  0.49310491103E+03  0.46123838673E+03 0.  0.
      99925    2    3    3    0    0  0.10242608451E+03 -0.59941015540E+02  0.11682382618E+03  0.31132121521E+03  0.26303814276E+03 0.  0.
         25    1    3    3    0    0 -0.10242608451E+03  0.59941015540E+02  0.57565404825E+02  0.18178369582E+03  0.12509000000E+03 0.  0.
         25    1    4    4    0    0  0.33439444539E+02 -0.31934010201E+02  0.95879119196E+02  0.16425069576E+03  0.12509000000E+03 0.  0.
         25    1    4    4    0    0  0.68986639975E+02 -0.28007005340E+02  0.20944706983E+02  0.14707051946E+03  0.12509000000E+03 0.  0.
<mgrwt>
<rscale>  2 0.46123839E+03</rscale>
<asrwt>0</asrwt>
<pdfrwt beam="1">  1       21 0.49080452E-01 0.46123839E+03</pdfrwt>
<pdfrwt beam="2">  1       21 0.23434976E-01 0.46123839E+03</pdfrwt>
<totfact> 0.62599704E+04</totfact>
</mgrwt>
</event>
<event>
 7    0  0.4737014E-002  0.4549623E+03  0.7546771E-02  0.1026253E+00
         21   -1    0    0  502  501  0.00000000000E+00  0.00000000000E+00  0.24077605667E+03  0.24077605667E+03  0.00000000000E+00 0.  1.
         21   -1    0    0  501  502 -0.00000000000E+00 -0.00000000000E+00 -0.21492030656E+03  0.21492030656E+03  0.00000000000E+00 0.  1.
      99926    2    1    2    0    0  0.71054273576E-14  0.00000000000E+00  0.25855750107E+02  0.45569636323E+03  0.45496225739E+03 0.  0.
      99925    2    3    3    0    0 -0.49768198568E+02  0.96579220509E+02 -0.16696836614E+02  0.28463307038E+03  0.26255053034E+03 0.  0.
         25    1    4    4    0    0 -0.48150576566E+02  0.57941315492E+02  0.22980657861E+02  0.14782182789E+03  0.12509000000E+03 0.  0.
         25    1    3    3    0    0  0.49768198568E+02 -0.96579220509E+02  0.42552586721E+02  0.17106329285E+03  0.12509000000E+03 0.  0.
         25    1    4    4    0    0 -0.16176220016E+01  0.38637905017E+02 -0.39677494474E+02  0.13681124249E+03  0.12509000000E+03 0.  0.
<mgrwt>
<rscale>  2 0.45496226E+03</rscale>
<asrwt>0</asrwt>
<pdfrwt beam="1">  1       21 0.35408244E-01 0.45496226E+03</pdfrwt>
<pdfrwt beam="2">  1       21 0.31605927E-01 0.45496226E+03</pdfrwt>
<totfact> 0.68515470E+04</totfact>
</mgrwt>
</event>
<event>
 7    0  0.4737014E-002  0.4618218E+03  0.7546771E-02  0.1024254E+00
         21   -1    0    0  502  501  0.00000000000E+00  0.00000000000E+00  0.34336440364E+03  0.34336440364E+03  0.00000000000E+00 0. -1.
         21   -1    0    0  501  502 -0.00000000000E+00 -0.00000000000E+00 -0.15528646059E+03  0.15528646059E+03  0.00000000000E+00 0. -1.
      99926    2    1    2    0    0 -0.71054273576E-14  0.00000000000E+00  0.18807794306E+03  0.49865086423E+03  0.46182179651E+03 0.  0.
      99925    2    3    3    0    0 -0.62697026050E+02 -0.98964733756E+02  0.14243033008E+03  0.32129205200E+03  0.26309171053E+03 0.  0.
         25    1    3    3    0    0  0.62697026050E+02  0.98964733756E+02  0.45647612981E+02  0.17735881222E+03  0.12509000000E+03 0.  0.
         25    1    4    4    0    0 -0.14183733867E+02 -0.13335936108E+02  0.43371232019E+02  0.13381927128E+03  0.12509000000E+03 0.  0.
         25    1    4    4    0    0 -0.48513292183E+02 -0.85628797648E+02  0.99059098057E+02  0.18747278073E+03  0.12509000000E+03 0.  0.
<mgrwt>
<rscale>  2 0.46182180E+03</rscale>
<asrwt>0</asrwt>
<pdfrwt beam="1">  1       21 0.50494765E-01 0.46182180E+03</pdfrwt>
<pdfrwt beam="2">  1       21 0.22836244E-01 0.46182180E+03</pdfrwt>
<totfact> 0.61942472E+04</totfact>
</mgrwt>
</event>
<event>
 7    0  0.4737014E-002  0.4588501E+03  0.7546771E-02  0.1025115E+00
         21   -1    0    0  502  501  0.00000000000E+00  0.00000000000E+00  0.18681464816E+03  0.18681464816E+03  0.00000000000E+00 0. -1.
         21   -1    0    0  501  502 -0.00000000000E+00 -0.00000000000E+00 -0.28175445271E+03  0.28175445271E+03  0.00000000000E+00 0. -1.
      99926    2    1    2    0    0  0.00000000000E+00  0.00000000000E+00 -0.94939804558E+02  0.46856910087E+03  0.45885012346E+03 0.  0.
      99925    2    3    3    0    0 -0.90213300072E+02 -0.34098806882E+02 -0.12671169203E+03  0.30745383445E+03  0.26300349670E+03 0.  0.
         25    1    4    4    0    0 -0.66001021686E+02 -0.52818984562E+01 -0.10212337939E+03  0.17453001471E+03  0.12509000000E+03 0.  0.
         25    1    3    3    0    0  0.90213300072E+02  0.34098806882E+02  0.31771887472E+02  0.16111526642E+03  0.12509000000E+03 0.  0.
         25    1    4    4    0    0 -0.24212278386E+02 -0.28816908426E+02 -0.24588312638E+02  0.13292381974E+03  0.12509000000E+03 0.  0.
<mgrwt>
<rscale>  2 0.45885012E+03</rscale>
<asrwt>0</asrwt>
<pdfrwt beam="1">  1       21 0.27472743E-01 0.45885012E+03</pdfrwt>
<pdfrwt beam="2">  1       21 0.41434478E-01 0.45885012E+03</pdfrwt>
<totfact> 0.65517903E+04</totfact>
</mgrwt>
</event>
<event>
 7    0  0.4737014E-002  0.4227130E+03  0.7546771E-02  0.1036187E+00
         21   -1    0    0  502  501  0.00000000000E+00  0.00000000000E+00  0.15629087552E+03  0.15629087552E+03  0.00000000000E+00 0. -1.
         21   -1    0    0  501  502 -0.00000000000E+00 -0.00000000000E+00 -0.28582324785E+03  0.28582324785E+03  0.00000000000E+00 0. -1.
      99926    2    1    2    0    0  0.00000000000E+00  0.00000000000E+00 -0.12953237233E+03  0.44211412337E+03  0.42271297899E+03 0.  0.
      99925    2    3    3    0    0 -0.76813882330E+02 -0.18456421926E+02 -0.78745558804E+02  0.28569219219E+03  0.26301740173E+03 0.  0.
         25    1    3    3    0    0  0.76813882330E+02  0.18456421926E+02 -0.50786813523E+02  0.15642193119E+03  0.12509000000E+03 0.  0.
         25    1    4    4    0    0 -0.22995501912E+02  0.22503839644E+02 -0.15602124619E+02  0.13010053920E+03  0.12509000000E+03 0.  0.
         25    1    4    4    0    0 -0.53818380418E+02 -0.40960261570E+02 -0.63143434185E+02  0.15559165299E+03  0.12509000000E+03 0.  0.
<mgrwt>
<rscale>  2 0.42271298E+03</rscale>
<asrwt>0</asrwt>
<pdfrwt beam="1">  1       21 0.22983953E-01 0.42271298E+03</pdfrwt>
<pdfrwt beam="2">  1       21 0.42032830E-01 0.42271298E+03</pdfrwt>
<totfact> 0.90654646E+04</totfact>
</mgrwt>
</event>
<event>
 7    0  0.4737014E-002  0.4524805E+03  0.7546771E-02  0.1026985E+00
         21   -1    0    0  502  501  0.00000000000E+00  0.00000000000E+00  0.88823160057E+02  0.88823160057E+02  0.00000000000E+00 0. -1.
         21   -1    0    0  501  502 -0.00000000000E+00 -0.00000000000E+00 -0.57625333983E+03  0.57625333983E+03  0.00000000000E+00 0. -1.
      99926    2    1    2    0    0  0.00000000000E+00  0.00000000000E+00 -0.48743017978E+03  0.66507649989E+03  0.45248046427E+03 0.  0.
      99925    2    3    3    0    0  0.87901957424E+02 -0.62522109437E+02 -0.34458209526E+03  0.44669872713E+03  0.26299650977E+03 0.  0.
         25    1    4    4    0    0  0.35143226617E+02 -0.19828493285E+02 -0.10582538088E+03  0.16874458469E+03  0.12509000000E+03 0.  0.
         25    1    4    4    0    0  0.52758730807E+02 -0.42693616152E+02 -0.23875671438E+03  0.27795414244E+03  0.12509000000E+03 0.  0.
         25    1    3    3    0    0 -0.87901957424E+02  0.62522109437E+02 -0.14284808451E+03  0.21837777276E+03  0.12509000000E+03 0.  0.
<mgrwt>
<rscale>  2 0.45248046E+03</rscale>
<asrwt>0</asrwt>
<pdfrwt beam="1">  1       21 0.13062230E-01 0.45248046E+03</pdfrwt>
<pdfrwt beam="2">  1       21 0.84743136E-01 0.45248046E+03</pdfrwt>
<totfact> 0.55943235E+04</totfact>
</mgrwt>
</event>
<event>
 7    0  0.4737014E-002  0.4861428E+03  0.7546771E-02  0.1017460E+00
         21   -1    0    0  502  501  0.00000000000E+00  0.00000000000E+00  0.97507908933E+02  0.97507908933E+02  0.00000000000E+00 0.  1.
         21   -1    0    0  501  502 -0.00000000000E+00 -0.00000000000E+00 -0.60593757889E+03  0.60593757889E+03  0.00000000000E+00 0.  1.
      99926    2    1    2    0    0  0.00000000000E+00  0.00000000000E+00 -0.50842966996E+03  0.70344548783E+03  0.48614280314E+03 0.  0.
      99925    2    3    3    0    0  0.82536851408E+00 -0.12944668084E+03 -0.23293250443E+03  0.37435078910E+03  0.26291412527E+03 0.  0.
         25    1    4    4    0    0  0.16091808143E+02 -0.10526828054E+03 -0.14111824330E+03  0.21656921266E+03  0.12509000000E+03 0.  0.
         25    1    3    3    0    0 -0.82536851408E+00  0.12944668084E+03 -0.27549716553E+03  0.32909469872E+03  0.12509000000E+03 0.  0.
         25    1    4    4    0    0 -0.15266439628E+02 -0.24178400297E+02 -0.91814261128E+02  0.15778157645E+03  0.12509000000E+03 0.  0.
<mgrwt>
<rscale>  2 0.48614280E+03</rscale>
<asrwt>0</asrwt>
<pdfrwt beam="1">  1       21 0.14339399E-01 0.48614280E+03</pdfrwt>
<pdfrwt beam="2">  1       21 0.89108466E-01 0.48614280E+03</pdfrwt>
<totfact> 0.41549366E+04</totfact>
</mgrwt>
</event>
<event>
 7    0  0.4737014E-002  0.4536072E+03  0.7546771E-02  0.1026652E+00
         21   -1    0    0  502  501  0.00000000000E+00  0.00000000000E+00  0.20721063421E+03  0.20721063421E+03  0.00000000000E+00 0. -1.
         21   -1    0    0  501  502 -0.00000000000E+00 -0.00000000000E+00 -0.24824915281E+03  0.24824915281E+03  0.00000000000E+00 0. -1.
      99926    2    1    2    0    0  0.00000000000E+00  0.00000000000E+00 -0.41038518606E+02  0.45545978702E+03  0.45360716218E+03 0.  0.
      99925    2    3    3    0    0  0.22833426349E+02 -0.38138486499E+02 -0.12889889566E+03  0.29626536668E+03  0.26302534608E+03 0.  0.
         25    1    4    4    0    0 -0.86665440503E+01 -0.53371150554E+02 -0.56163281290E+02  0.14739542382E+03  0.12509000000E+03 0.  0.
         25    1    3    3    0    0 -0.22833426349E+02  0.38138486499E+02  0.87860377055E+02  0.15919442034E+03  0.12509000000E+03 0.  0.
         25    1    4    4    0    0  0.31499970400E+02  0.15232664055E+02 -0.72735614371E+02  0.14886994286E+03  0.12509000000E+03 0.  0.
<mgrwt>
<rscale>  2 0.45360716E+03</rscale>
<asrwt>0</asrwt>
<pdfrwt beam="1">  1       21 0.30472152E-01 0.45360716E+03</pdfrwt>
<pdfrwt beam="2">  1       21 0.36507228E-01 0.45360716E+03</pdfrwt>
<totfact> 0.69278836E+04</totfact>
</mgrwt>
</event>
<event>
 7    0  0.4737014E-002  0.4557007E+03  0.7546771E-02  0.1026036E+00
         21   -1    0    0  502  501  0.00000000000E+00  0.00000000000E+00  0.13041262869E+04  0.13041262869E+04  0.00000000000E+00 0.  1.
         21   -1    0    0  501  502 -0.00000000000E+00 -0.00000000000E+00 -0.39808867855E+02  0.39808867855E+02  0.00000000000E+00 0.  1.
      99926    2    1    2    0    0  0.00000000000E+00  0.00000000000E+00  0.12643174190E+04  0.13439351547E+04  0.45570073961E+03 0.  0.
      99925    2    3    3    0    0 -0.70251230399E+02  0.76422526072E+02  0.93405458923E+03  0.97583641430E+03  0.26272246564E+03 0.  0.
         25    1    3    3    0    0  0.70251230399E+02 -0.76422526072E+02  0.33026282980E+03  0.36809874044E+03  0.12509000000E+03 0.  0.
         25    1    4    4    0    0 -0.66623549888E+01  0.59002223645E+01  0.40749760720E+03  0.42635783981E+03  0.12509000000E+03 0.  0.
         25    1    4    4    0    0 -0.63588875411E+02  0.70522303707E+02  0.52655698203E+03  0.54947857449E+03  0.12509000000E+03 0.  0.
<mgrwt>
<rscale>  2 0.45570074E+03</rscale>
<asrwt>0</asrwt>
<pdfrwt beam="1">  1       21 0.19178325E+00 0.45570074E+03</pdfrwt>
<pdfrwt beam="2">  1       21 0.58542461E-02 0.45570074E+03</pdfrwt>
<totfact> 0.27713698E+04</totfact>
</mgrwt>
</event>
<event>
 7    0  0.4737014E-002  0.4557852E+03  0.7546771E-02  0.1026011E+00
         21   -1    0    0  502  501  0.00000000000E+00  0.00000000000E+00  0.33573679905E+03  0.33573679905E+03  0.00000000000E+00 0.  1.
         21   -1    0    0  501  502 -0.00000000000E+00 -0.00000000000E+00 -0.15468976126E+03  0.15468976126E+03  0.00000000000E+00 0.  1.
      99926    2    1    2    0    0  0.00000000000E+00  0.00000000000E+00  0.18104703779E+03  0.49042656031E+03  0.45578523579E+03 0.  0.
      99925    2    3    3    0    0  0.15973885888E+02 -0.71995083475E+02  0.20736229319E+03  0.34285129869E+03  0.26288673475E+03 0.  0.
         25    1    3    3    0    0 -0.15973885888E+02  0.71995083475E+02 -0.26315255400E+02  0.14757526162E+03  0.12509000000E+03 0.  0.
         25    1    4    4    0    0 -0.22142729957E+02 -0.78727171466E+01  0.91798578260E+02  0.15692917904E+03  0.12509000000E+03 0.  0.
         25    1    4    4    0    0  0.38116615846E+02 -0.64122366328E+02  0.11556371493E+03  0.18592211965E+03  0.12509000000E+03 0.  0.
<mgrwt>
<rscale>  2 0.45578524E+03</rscale>
<asrwt>0</asrwt>
<pdfrwt beam="1">  1       21 0.49373059E-01 0.45578524E+03</pdfrwt>
<pdfrwt beam="2">  1       21 0.22748494E-01 0.45578524E+03</pdfrwt>
<totfact> 0.65539089E+04</totfact>
</mgrwt>
</event>
<event>
 7    0  0.4737014E-002  0.4532901E+03  0.7546771E-02  0.1026745E+00
         21   -1    0    0  502  501  0.00000000000E+00  0.00000000000E+00  0.10171174487E+03  0.10171174487E+03  0.00000000000E+00 0.  1.
         21   -1    0    0  501  502 -0.00000000000E+00 -0.00000000000E+00 -0.50503479684E+03  0.50503479684E+03  0.00000000000E+00 0.  1.
      99926    2    1    2    0    0  0.14210854715E-13  0.00000000000E+00 -0.40332305197E+03  0.60674654171E+03  0.45329006346E+03 0.  0.
      99925    2    3    3    0    0 -0.78758983778E+02 -0.74961720764E+02 -0.28755224208E+03  0.40457674766E+03  0.26300915519E+03 0.  0.
         25    1    3    3    0    0  0.78758983778E+02  0.74961720764E+02 -0.11577080989E+03  0.20216979405E+03  0.12509000000E+03 0.  0.
         25    1    4    4    0    0 -0.32403439243E+02 -0.21451923796E+02 -0.19033452655E+03  0.23105174314E+03  0.12509000000E+03 0.  0.
         25    1    4    4    0    0 -0.46355544536E+02 -0.53509796968E+02 -0.97217715534E+02  0.17352500452E+03  0.12509000000E+03 0.  0.
<mgrwt>
<rscale>  2 0.45329006E+03</rscale>
<asrwt>0</asrwt>
<pdfrwt beam="1">  1       21 0.14957609E-01 0.45329006E+03</pdfrwt>
<pdfrwt beam="2">  1       21 0.74269823E-01 0.45329006E+03</pdfrwt>
<totfact> 0.59058633E+04</totfact>
</mgrwt>
</event>
<event>
 7    0  0.4737014E-002  0.4569282E+03  0.7546771E-02  0.1025676E+00
         21   -1    0    0  502  501  0.00000000000E+00  0.00000000000E+00  0.27730892437E+03  0.27730892437E+03  0.00000000000E+00 0. -1.
         21   -1    0    0  501  502 -0.00000000000E+00 -0.00000000000E+00 -0.18822277905E+03  0.18822277905E+03  0.00000000000E+00 0. -1.
      99926    2    1    2    0    0  0.00000000000E+00  0.00000000000E+00  0.89086145319E+02  0.46553170342E+03  0.45692824995E+03 0.  0.
      99925    2    3    3    0    0 -0.89049091581E+02 -0.66733235987E+02  0.25984496816E+02  0.28661163288E+03  0.26284590264E+03 0.  0.
         25    1    4    4    0    0 -0.79206178078E+02 -0.50520385146E+02  0.33057050627E+02  0.15989435468E+03  0.12509000000E+03 0.  0.
         25    1    4    4    0    0 -0.98429135026E+01 -0.16212850841E+02 -0.70725538117E+01  0.12671727821E+03  0.12509000000E+03 0.  0.
         25    1    3    3    0    0  0.89049091581E+02  0.66733235987E+02  0.63101648503E+02  0.17892007054E+03  0.12509000000E+03 0.  0.
<mgrwt>
<rscale>  2 0.45692825E+03</rscale>
<asrwt>0</asrwt>
<pdfrwt beam="1">  1       21 0.40780724E-01 0.45692825E+03</pdfrwt>
<pdfrwt beam="2">  1       21 0.27679820E-01 0.45692825E+03</pdfrwt>
<totfact> 0.66741845E+04</totfact>
</mgrwt>
</event>
<event>
 7    0  0.4737014E-002  0.4497407E+03  0.7546771E-02  0.1027799E+00
         21   -1    0    0  502  501  0.00000000000E+00  0.00000000000E+00  0.26299178398E+03  0.26299178398E+03  0.00000000000E+00 0. -1.
         21   -1    0    0  501  502 -0.00000000000E+00 -0.00000000000E+00 -0.19227475306E+03  0.19227475306E+03  0.00000000000E+00 0. -1.
      99926    2    1    2    0    0 -0.17763568394E-14  0.00000000000E+00  0.70717030914E+02  0.45526653704E+03  0.44974072674E+03 0.  0.
      99925    2    3    3    0    0  0.14959407460E+02  0.22328302107E+02 -0.61346033228E+02  0.27139022547E+03  0.26299616298E+03 0.  0.
         25    1    3    3    0    0 -0.14959407460E+02 -0.22328302107E+02  0.13206306414E+03  0.18387631157E+03  0.12509000000E+03 0.  0.
         25    1    4    4    0    0  0.35439740172E+02 -0.21141566228E+00 -0.58619196848E+02  0.14261745412E+03  0.12509000000E+03 0.  0.
         25    1    4    4    0    0 -0.20480332713E+02  0.22539717769E+02 -0.27268363799E+01  0.12877277135E+03  0.12509000000E+03 0.  0.
<mgrwt>
<rscale>  2 0.44974073E+03</rscale>
<asrwt>0</asrwt>
<pdfrwt beam="1">  1       21 0.38675263E-01 0.44974073E+03</pdfrwt>
<pdfrwt beam="2">  1       21 0.28275699E-01 0.44974073E+03</pdfrwt>
<totfact> 0.71477994E+04</totfact>
</mgrwt>
</event>
<event>
 7    0  0.4737014E-002  0.4441331E+03  0.7546771E-02  0.1029486E+00
         21   -1    0    0  502  501  0.00000000000E+00  0.00000000000E+00  0.99910241365E+02  0.99910241365E+02  0.00000000000E+00 0.  1.
         21   -1    0    0  501  502 -0.00000000000E+00 -0.00000000000E+00 -0.49357856208E+03  0.49357856208E+03  0.00000000000E+00 0.  1.
      99926    2    1    2    0    0  0.00000000000E+00  0.00000000000E+00 -0.39366832072E+03  0.59348880345E+03  0.44413310289E+03 0.  0.
      99925    2    3    3    0    0 -0.87399111355E+02 -0.28472373349E+02 -0.19159629826E+03  0.33867535979E+03  0.26370926626E+03 0.  0.
         25    1    4    4    0    0 -0.80039195810E+02 -0.28940425318E+02 -0.12786242547E+03  0.19809121392E+03  0.12509000000E+03 0.  0.
         25    1    3    3    0    0  0.87399111355E+02  0.28472373349E+02 -0.20207202246E+03  0.25481344366E+03  0.12509000000E+03 0.  0.
         25    1    4    4    0    0 -0.73599155448E+01  0.46805196891E+00 -0.63733872788E+02  0.14058414587E+03  0.12509000000E+03 0.  0.
<mgrwt>
<rscale>  2 0.44413310E+03</rscale>
<asrwt>0</asrwt>
<pdfrwt beam="1">  1       21 0.14692683E-01 0.44413310E+03</pdfrwt>
<pdfrwt beam="2">  1       21 0.72585081E-01 0.44413310E+03</pdfrwt>
<totfact> 0.64438745E+04</totfact>
</mgrwt>
</event>
<event>
 7    0  0.4737014E-002  0.4574397E+03  0.7546771E-02  0.1025526E+00
         21   -1    0    0  502  501  0.00000000000E+00  0.00000000000E+00  0.43551621774E+02  0.43551621774E+02  0.00000000000E+00 0. -1.
         21   -1    0    0  501  502 -0.00000000000E+00 -0.00000000000E+00 -0.12011671790E+04  0.12011671790E+04  0.00000000000E+00 0. -1.
      99926    2    1    2    0    0  0.00000000000E+00  0.00000000000E+00 -0.11576155572E+04  0.12447188008E+04  0.45743973884E+03 0.  0.
      99925    2    3    3    0    0  0.92998978201E+02 -0.68293424005E+02 -0.73843952841E+03  0.79231538242E+03  0.26297894666E+03 0.  0.
         25    1    4    4    0    0  0.21392260923E+02 -0.63672803350E+02 -0.39913361349E+03  0.42363546149E+03  0.12509000000E+03 0.  0.
         25    1    3    3    0    0 -0.92998978201E+02  0.68293424005E+02 -0.41917602883E+03  0.45240341837E+03  0.12509000000E+03 0.  0.
         25    1    4    4    0    0  0.71606717277E+02 -0.46206206550E+01 -0.33930591493E+03  0.36867992093E+03  0.12509000000E+03 0.  0.
<mgrwt>
<rscale>  2 0.45743974E+03</rscale>
<asrwt>0</asrwt>
<pdfrwt beam="1">  1       21 0.64046516E-02 0.45743974E+03</pdfrwt>
<pdfrwt beam="2">  1       21 0.17664220E+00 0.45743974E+03</pdfrwt>
<totfact> 0.30185981E+04</totfact>
</mgrwt>
</event>
<event>
 7    0  0.4737014E-002  0.4474974E+03  0.7546771E-02  0.1028471E+00
         21   -1    0    0  502  501  0.00000000000E+00  0.00000000000E+00  0.26464469342E+03  0.26464469342E+03  0.00000000000E+00 0.  1.
         21   -1    0    0  501  502 -0.00000000000E+00 -0.00000000000E+00 -0.18917243845E+03  0.18917243845E+03  0.00000000000E+00 0.  1.
      99926    2    1    2    0    0  0.00000000000E+00  0.00000000000E+00  0.75472254973E+02  0.45381713187E+03  0.44749740548E+03 0.  0.
      99925    2    3    3    0    0 -0.95907291542E+02  0.32163037177E+02  0.79900385716E+02  0.29288302743E+03  0.26298997431E+03 0.  0.
         25    1    3    3    0    0  0.95907291542E+02 -0.32163037177E+02 -0.44281307431E+01  0.16093410444E+03  0.12509000000E+03 0.  0.
         25    1    4    4    0    0 -0.46790347311E+02 -0.14601763875E+02  0.66654119472E+02  0.14997609094E+03  0.12509000000E+03 0.  0.
         25    1    4    4    0    0 -0.49116944231E+02  0.46764801052E+02  0.13246266244E+02  0.14290693649E+03  0.12509000000E+03 0.  0.
<mgrwt>
<rscale>  2 0.44749741E+03</rscale>
<asrwt>0</asrwt>
<pdfrwt beam="1">  1       21 0.38918338E-01 0.44749741E+03</pdfrwt>
<pdfrwt beam="2">  1       21 0.27819476E-01 0.44749741E+03</pdfrwt>
<totfact> 0.72898185E+04</totfact>
</mgrwt>
</event>
<event>
 7    0  0.4737014E-002  0.4568962E+03  0.7546771E-02  0.1025685E+00
         21   -1    0    0  502  501  0.00000000000E+00  0.00000000000E+00  0.56658403965E+02  0.56658403965E+02  0.00000000000E+00 0. -1.
         21   -1    0    0  501  502 -0.00000000000E+00 -0.00000000000E+00 -0.92110850832E+03  0.92110850832E+03  0.00000000000E+00 0. -1.
      99926    2    1    2    0    0  0.00000000000E+00  0.14210854715E-13 -0.86445010435E+03  0.97776691228E+03  0.45689621561E+03 0.  0.
      99925    2    3    3    0    0  0.13488792379E+02 -0.11357172427E+03 -0.56773880635E+03  0.63605711358E+03  0.26298443950E+03 0.  0.
         25    1    3    3    0    0 -0.13488792379E+02  0.11357172427E+03 -0.29671129800E+03  0.34170979871E+03  0.12509000000E+03 0.  0.
         25    1    4    4    0    0  0.19520452069E+02 -0.92975787875E+02 -0.35738824100E+03  0.39038366780E+03  0.12509000000E+03 0.  0.
         25    1    4    4    0    0 -0.60316596897E+01 -0.20595936391E+02 -0.21035056535E+03  0.24567344577E+03  0.12509000000E+03 0.  0.
<mgrwt>
<rscale>  2 0.45689622E+03</rscale>
<asrwt>0</asrwt>
<pdfrwt beam="1">  1       21 0.83321184E-02 0.45689622E+03</pdfrwt>
<pdfrwt beam="2">  1       21 0.13545713E+00 0.45689622E+03</pdfrwt>
<totfact> 0.39448345E+04</totfact>
</mgrwt>
</event>
<event>
 7    0  0.4737014E-002  0.4563405E+03  0.7546771E-02  0.1025848E+00
         21   -1    0    0  502  501  0.00000000000E+00  0.00000000000E+00  0.40841343501E+03  0.40841343501E+03  0.00000000000E+00 0.  1.
         21   -1    0    0  501  502 -0.00000000000E+00 -0.00000000000E+00 -0.12747294139E+03  0.12747294139E+03  0.00000000000E+00 0.  1.
      99926    2    1    2    0    0  0.00000000000E+00  0.35527136788E-14  0.28094049362E+03  0.53588637640E+03  0.45634049509E+03 0.  0.
      99925    2    3    3    0    0  0.57733267121E+02  0.28910491650E+02  0.65441741401E+02  0.27848364338E+03  0.26287177759E+03 0.  0.
         25    1    3    3    0    0 -0.57733267121E+02 -0.28910491650E+02  0.21549875222E+03  0.25740273302E+03  0.12509000000E+03 0.  0.
         25    1    4    4    0    0  0.58552526681E+02  0.43093996160E+02  0.38926594168E+02  0.14982749654E+03  0.12509000000E+03 0.  0.
         25    1    4    4    0    0 -0.81925956027E+00 -0.14183504509E+02  0.26515147233E+02  0.12865614684E+03  0.12509000000E+03 0.  0.
<mgrwt>
<rscale>  2 0.45634050E+03</rscale>
<asrwt>0</asrwt>
<pdfrwt beam="1">  1       21 0.60060799E-01 0.45634050E+03</pdfrwt>
<pdfrwt beam="2">  1       21 0.18746021E-01 0.45634050E+03</pdfrwt>
<totfact> 0.62146864E+04</totfact>
</mgrwt>
</event>
<event>
 7    0  0.4737014E-002  0.4220000E+03  0.7546771E-02  0.1036417E+00
         21   -1    0    0  502  501  0.00000000000E+00  0.00000000000E+00  0.22022629069E+03  0.22022629069E+03  0.00000000000E+00 0.  1.
         21   -1    0    0  501  502 -0.00000000000E+00 -0.00000000000E+00 -0.20216026342E+03  0.20216026342E+03  0.00000000000E+00 0.  1.
      99926    2    1    2    0    0  0.00000000000E+00  0.00000000000E+00  0.18066027268E+02  0.42238655411E+03  0.42200002340E+03 0.  0.
      99925    2    3    3    0    0  0.17587441590E+02 -0.65912082932E+02  0.49814542011E+02  0.27640985368E+03  0.26318662170E+03 0.  0.
         25    1    3    3    0    0 -0.17587441590E+02  0.65912082932E+02 -0.31748514743E+02  0.14597670042E+03  0.12509000000E+03 0.  0.
         25    1    4    4    0    0  0.39888426246E+02 -0.69714945001E+01  0.30986845719E+02  0.13508286713E+03  0.12509000000E+03 0.  0.
         25    1    4    4    0    0 -0.22300984657E+02 -0.58940588432E+02  0.18827696292E+02  0.14132698656E+03  0.12509000000E+03 0.  0.
<mgrwt>
<rscale>  2 0.42200002E+03</rscale>
<asrwt>0</asrwt>
<pdfrwt beam="1">  1       21 0.32386219E-01 0.42200002E+03</pdfrwt>
<pdfrwt beam="2">  1       21 0.29729450E-01 0.42200002E+03</pdfrwt>
<totfact> 0.93240862E+04</totfact>
</mgrwt>
</event>
<event>
 7    0  0.4737014E-002  0.4460133E+03  0.7546771E-02  0.1028918E+00
         21   -1    0    0  502  501  0.00000000000E+00  0.00000000000E+00  0.47835458776E+02  0.47835458776E+02  0.00000000000E+00 0. -1.
         21   -1    0    0  501  502 -0.00000000000E+00 -0.00000000000E+00 -0.10396466259E+04  0.10396466259E+04  0.00000000000E+00 0. -1.
      99926    2    1    2    0    0  0.00000000000E+00 -0.35527136788E-14 -0.99181116714E+03  0.10874820847E+04  0.44601333305E+03 0.  0.
      99925    2    3    3    0    0  0.64498458773E+02  0.20830477934E+02 -0.43546808076E+03  0.51323553672E+03  0.26302909876E+03 0.  0.
         25    1    4    4    0    0  0.56230639168E+02 -0.17366781479E+02 -0.25694746603E+03  0.29177559575E+03  0.12509000000E+03 0.  0.
         25    1    3    3    0    0 -0.64498458773E+02 -0.20830477934E+02 -0.55634308638E+03  0.57424654797E+03  0.12509000000E+03 0.  0.
         25    1    4    4    0    0  0.82678196056E+01  0.38197259414E+02 -0.17852061474E+03  0.22145994097E+03  0.12509000000E+03 0.  0.
<mgrwt>
<rscale>  2 0.44601333E+03</rscale>
<asrwt>0</asrwt>
<pdfrwt beam="1">  1       21 0.70346261E-02 0.44601333E+03</pdfrwt>
<pdfrwt beam="2">  1       21 0.15288921E+00 0.44601333E+03</pdfrwt>
<totfact> 0.38565186E+04</totfact>
</mgrwt>
</event>
<event>
 7    0  0.4737014E-002  0.4611896E+03  0.7546771E-02  0.1024437E+00
         21   -1    0    0  502  501  0.00000000000E+00  0.00000000000E+00  0.27614122903E+03  0.27614122903E+03  0.00000000000E+00 0. -1.
         21   -1    0    0  501  502 -0.00000000000E+00 -0.00000000000E+00 -0.19256075060E+03  0.19256075060E+03  0.00000000000E+00 0. -1.
      99926    2    1    2    0    0  0.14210854715E-13  0.00000000000E+00  0.83580478430E+02  0.46870197962E+03  0.46118960236E+03 0.  0.
      99925    2    3    3    0    0 -0.11449376933E+03  0.23501332367E+02  0.74104114981E+02  0.29724223098E+03  0.26305966659E+03 0.  0.
         25    1    4    4    0    0 -0.18055077022E+02 -0.74396233995E+01  0.25894350959E+02  0.12922600092E+03  0.12509000000E+03 0.  0.
         25    1    4    4    0    0 -0.96438692307E+02  0.30940955766E+02  0.48209764022E+02  0.16801623006E+03  0.12509000000E+03 0.  0.
         25    1    3    3    0    0  0.11449376933E+03 -0.23501332367E+02  0.94763634483E+01  0.17145974864E+03  0.12509000000E+03 0.  0.
<mgrwt>
<rscale>  2 0.46118960E+03</rscale>
<asrwt>0</asrwt>
<pdfrwt beam="1">  1       21 0.40609004E-01 0.46118960E+03</pdfrwt>
<pdfrwt beam="2">  1       21 0.28317758E-01 0.46118960E+03</pdfrwt>
<totfact> 0.64313091E+04</totfact>
</mgrwt>
</event>
<event>
 7    0  0.4737014E-002  0.4520748E+03  0.7546771E-02  0.1027105E+00
         21   -1    0    0  502  501  0.00000000000E+00  0.00000000000E+00  0.10712271909E+03  0.10712271909E+03  0.00000000000E+00 0. -1.
         21   -1    0    0  501  502 -0.00000000000E+00 -0.00000000000E+00 -0.47695673784E+03  0.47695673784E+03  0.00000000000E+00 0. -1.
      99926    2    1    2    0    0 -0.22204460493E-14  0.00000000000E+00 -0.36983401875E+03  0.58407945694E+03  0.45207478429E+03 0.  0.
      99925    2    3    3    0    0 -0.15980165036E+01 -0.68540117214E+02 -0.12297452382E+03  0.29896996979E+03  0.26374231363E+03 0.  0.
         25    1    4    4    0    0  0.24293541681E+02 -0.34228019483E+02 -0.98015452347E+02  0.16436626930E+03  0.12509000000E+03 0.  0.
         25    1    3    3    0    0  0.15980165036E+01  0.68540117214E+02 -0.24685949493E+03  0.28510948715E+03  0.12509000000E+03 0.  0.
         25    1    4    4    0    0 -0.25891558185E+02 -0.34312097732E+02 -0.24959071477E+02  0.13460370049E+03  0.12509000000E+03 0.  0.
<mgrwt>
<rscale>  2 0.45207478E+03</rscale>
<asrwt>0</asrwt>
<pdfrwt beam="1">  1       21 0.15753341E-01 0.45207478E+03</pdfrwt>
<pdfrwt beam="2">  1       21 0.70140697E-01 0.45207478E+03</pdfrwt>
<totfact> 0.61068975E+04</totfact>
</mgrwt>
</event>
<event>
 7    0  0.4737014E-002  0.4548461E+03  0.7546771E-02  0.1026287E+00
         21   -1    0    0  502  501  0.00000000000E+00  0.00000000000E+00  0.60027802221E+02  0.60027802221E+02  0.00000000000E+00 0. -1.
         21   -1    0    0  501  502 -0.00000000000E+00 -0.00000000000E+00 -0.86162138261E+03  0.86162138261E+03  0.00000000000E+00 0. -1.
      99926    2    1    2    0    0  0.00000000000E+00  0.00000000000E+00 -0.80159358039E+03  0.92164918483E+03  0.45484607482E+03 0.  0.
      99925    2    3    3    0    0 -0.32171311656E+02 -0.89704673240E+02 -0.62811753675E+03  0.68750528140E+03  0.26277357229E+03 0.  0.
         25    1    3    3    0    0  0.32171311656E+02  0.89704673240E+02 -0.17347604364E+03  0.23414390343E+03  0.12509000000E+03 0.  0.
         25    1    4    4    0    0  0.70696980205E-01 -0.64698073310E+02 -0.24717781363E+03  0.28448238142E+03  0.12509000000E+03 0.  0.
         25    1    4    4    0    0 -0.32242008636E+02 -0.25006599929E+02 -0.38093972312E+03  0.40302289998E+03  0.12509000000E+03 0.  0.
<mgrwt>
<rscale>  2 0.45484607E+03</rscale>
<asrwt>0</asrwt>
<pdfrwt beam="1">  1       21 0.88276176E-02 0.45484607E+03</pdfrwt>
<pdfrwt beam="2">  1       21 0.12670903E+00 0.45484607E+03</pdfrwt>
<totfact> 0.42361702E+04</totfact>
</mgrwt>
</event>
<event>
 7    0  0.4737014E-002  0.4515237E+03  0.7546771E-02  0.1027269E+00
         21   -1    0    0  502  501  0.00000000000E+00  0.00000000000E+00  0.45756235173E+02  0.45756235173E+02  0.00000000000E+00 0. -1.
         21   -1    0    0  501  502 -0.00000000000E+00 -0.00000000000E+00 -0.11139120573E+04  0.11139120573E+04  0.00000000000E+00 0. -1.
      99926    2    1    2    0    0  0.00000000000E+00  0.00000000000E+00 -0.10681558221E+04  0.11596682925E+04  0.45152374049E+03 0.  0.
      99925    2    3    3    0    0 -0.70206662029E+02 -0.44047489004E+02 -0.48862543545E+03  0.56102638460E+03  0.26291943893E+03 0.  0.
         25    1    3    3    0    0  0.70206662029E+02  0.44047489004E+02 -0.57953038670E+03  0.59864190789E+03  0.12509000000E+03 0.  0.
         25    1    4    4    0    0 -0.59062203166E+02 -0.33189145893E+02 -0.32256993475E+03  0.35254607380E+03  0.12509000000E+03 0.  0.
         25    1    4    4    0    0 -0.11144458863E+02 -0.10858343111E+02 -0.16605550070E+03  0.20848031080E+03  0.12509000000E+03 0.  0.
<mgrwt>
<rscale>  2 0.45152374E+03</rscale>
<asrwt>0</asrwt>
<pdfrwt beam="1">  1       21 0.67288576E-02 0.45152374E+03</pdfrwt>
<pdfrwt beam="2">  1       21 0.16381061E+00 0.45152374E+03</pdfrwt>
<totfact> 0.34383242E+04</totfact>
</mgrwt>
</event>
<event>
 7    0  0.4737014E-002  0.4570396E+03  0.7546771E-02  0.1025643E+00
         21   -1    0    0  502  501  0.00000000000E+00  0.00000000000E+00  0.83002072254E+02  0.83002072254E+02  0.00000000000E+00 0. -1.
         21   -1    0    0  501  502 -0.00000000000E+00 -0.00000000000E+00 -0.62915666929E+03  0.62915666929E+03  0.00000000000E+00 0. -1.
      99926    2    1    2    0    0  0.00000000000E+00  0.35527136788E-14 -0.54615459703E+03  0.71215874154E+03  0.45703963646E+03 0.  0.
      99925    2    3    3    0    0 -0.82538811569E+02 -0.21489037065E+02 -0.46322975682E+03  0.53953640418E+03  0.26314119729E+03 0.  0.
         25    1    3    3    0    0  0.82538811569E+02  0.21489037065E+02 -0.82924840216E+02  0.17262233736E+03  0.12509000000E+03 0.  0.
         25    1    4    4    0    0 -0.31872387954E+02 -0.47488276101E+02 -0.20244826924E+03  0.24475251847E+03  0.12509000000E+03 0.  0.
         25    1    4    4    0    0 -0.50666423615E+02  0.25999239036E+02 -0.26078148758E+03  0.29478388571E+03  0.12509000000E+03 0.  0.
<mgrwt>
<rscale>  2 0.45703964E+03</rscale>
<asrwt>0</asrwt>
<pdfrwt beam="1">  1       21 0.12206188E-01 0.45703964E+03</pdfrwt>
<pdfrwt beam="2">  1       21 0.92523035E-01 0.45703964E+03</pdfrwt>
<totfact> 0.51417755E+04</totfact>
</mgrwt>
</event>
<event>
 7    0  0.4737014E-002  0.4531791E+03  0.7546771E-02  0.1026778E+00
         21   -1    0    0  502  501  0.00000000000E+00  0.00000000000E+00  0.23720835506E+03  0.23720835506E+03  0.00000000000E+00 0.  1.
         21   -1    0    0  501  502 -0.00000000000E+00 -0.00000000000E+00 -0.21644611051E+03  0.21644611051E+03  0.00000000000E+00 0.  1.
      99926    2    1    2    0    0  0.00000000000E+00  0.00000000000E+00  0.20762244545E+02  0.45365446557E+03  0.45317910734E+03 0.  0.
      99925    2    3    3    0    0 -0.78089646184E+02 -0.56262921133E+02  0.70183509551E+02  0.28826559451E+03  0.26250298823E+03 0.  0.
         25    1    4    4    0    0 -0.21987031191E+02 -0.56207041343E+01  0.23806552617E+01  0.12715422712E+03  0.12509000000E+03 0.  0.
         25    1    3    3    0    0  0.78089646184E+02  0.56262921133E+02 -0.49421265006E+02  0.16538887106E+03  0.12509000000E+03 0.  0.
         25    1    4    4    0    0 -0.56102614993E+02 -0.50642216999E+02  0.67802854289E+02  0.16111136739E+03  0.12509000000E+03 0.  0.
<mgrwt>
<rscale>  2 0.45317911E+03</rscale>
<asrwt>0</asrwt>
<pdfrwt beam="1">  1       21 0.34883582E-01 0.45317911E+03</pdfrwt>
<pdfrwt beam="2">  1       21 0.31830310E-01 0.45317911E+03</pdfrwt>
<totfact> 0.69650950E+04</totfact>
</mgrwt>
</event>
<event>
 7    0  0.4737014E-002  0.4545538E+03  0.7546771E-02  0.1026373E+00
         21   -1    0    0  502  501  0.00000000000E+00  0.00000000000E+00  0.11798604578E+03  0.11798604578E+03  0.00000000000E+00 0.  1.
         21   -1    0    0  501  502 -0.00000000000E+00 -0.00000000000E+00 -0.43780422141E+03  0.43780422141E+03  0.00000000000E+00 0.  1.
      99926    2    1    2    0    0  0.00000000000E+00  0.00000000000E+00 -0.31981817563E+03  0.55579026718E+03  0.45455379839E+03 0.  0.
      99925    2    3    3    0    0  0.37445947903E+02 -0.10132951644E+03 -0.16210697244E+03  0.32733851817E+03  0.26306266372E+03 0.  0.
         25    1    4    4    0    0 -0.68489267043E+01 -0.19263496031E+02 -0.55493942766E+02  0.13836573225E+03  0.12509000000E+03 0.  0.
         25    1    4    4    0    0  0.44294874607E+02 -0.82066020409E+02 -0.10661302968E+03  0.18897278592E+03  0.12509000000E+03 0.  0.
         25    1    3    3    0    0 -0.37445947903E+02  0.10132951644E+03 -0.15771120319E+03  0.22845174902E+03  0.12509000000E+03 0.  0.
<mgrwt>
<rscale>  2 0.45455380E+03</rscale>
<asrwt>0</asrwt>
<pdfrwt beam="1">  1       21 0.17350889E-01 0.45455380E+03</pdfrwt>
<pdfrwt beam="2">  1       21 0.64382975E-01 0.45455380E+03</pdfrwt>
<totfact> 0.61703010E+04</totfact>
</mgrwt>
</event>
<event>
 7    0  0.4737014E-002  0.4431864E+03  0.7546771E-02  0.1029774E+00
         21   -1    0    0  502  501  0.00000000000E+00  0.00000000000E+00  0.14968393323E+03  0.14968393323E+03  0.00000000000E+00 0.  1.
         21   -1    0    0  501  502 -0.00000000000E+00 -0.00000000000E+00 -0.32804825497E+03  0.32804825497E+03  0.00000000000E+00 0.  1.
      99926    2    1    2    0    0  0.00000000000E+00  0.14210854715E-13 -0.17836432174E+03  0.47773218820E+03  0.44318643072E+03 0.  0.
      99925    2    3    3    0    0 -0.20018276418E+02  0.99706604847E+02 -0.11280077500E+03  0.30369706185E+03  0.26299382521E+03 0.  0.
         25    1    4    4    0    0 -0.36557914833E+01  0.51458849232E+02 -0.99542497049E+02  0.16798093581E+03  0.12509000000E+03 0.  0.
         25    1    4    4    0    0 -0.16362484934E+02  0.48247755615E+02 -0.13258277950E+02  0.13571612605E+03  0.12509000000E+03 0.  0.
         25    1    3    3    0    0  0.20018276418E+02 -0.99706604847E+02 -0.65563546739E+02  0.17403512634E+03  0.12509000000E+03 0.  0.
<mgrwt>
<rscale>  2 0.44318643E+03</rscale>
<asrwt>0</asrwt>
<pdfrwt beam="1">  1       21 0.22012343E-01 0.44318643E+03</pdfrwt>
<pdfrwt beam="2">  1       21 0.48242390E-01 0.44318643E+03</pdfrwt>
<totfact> 0.73522202E+04</totfact>
</mgrwt>
</event>
<event>
 6    0  0.4737014E-002  0.4573706E+03  0.7546771E-02  0.1025547E+00
         21   -1    0    0  502  501  0.00000000000E+00  0.00000000000E+00  0.32286050367E+02  0.32286050367E+02  0.00000000000E+00 0. -1.
         21   -1    0    0  501  502 -0.00000000000E+00 -0.00000000000E+00 -0.16198010349E+04  0.16198010349E+04  0.00000000000E+00 0. -1.
      99926    2    1    2    0    0  0.00000000000E+00  0.14210854715E-13 -0.15875149846E+04  0.16520870853E+04  0.45737064968E+03 0.  0.
         25    1    3    3    0    0  0.25696064425E+02 -0.52744780264E+02 -0.66062517981E+03  0.67491883650E+03  0.12509000000E+03 0.  0.
         25    1    3    3    0    0  0.92482263300E+01  0.11036127088E+03 -0.52046597057E+03  0.54662370459E+03  0.12509000000E+03 0.  0.
         25    1    3    3    0    0 -0.34944290755E+02 -0.57616490617E+02 -0.40642383420E+03  0.43054454422E+03  0.12509000000E+03 0.  0.
<mgrwt>
<rscale>  2 0.45737065E+03</rscale>
<asrwt>0</asrwt>
<pdfrwt beam="1">  1       21 0.47479475E-02 0.45737065E+03</pdfrwt>
<pdfrwt beam="2">  1       21 0.23820609E+00 0.45737065E+03</pdfrwt>
<totfact> 0.19908934E+04</totfact>
</mgrwt>
</event>
<event>
 7    0  0.4737014E-002  0.4548212E+03  0.7546771E-02  0.1026294E+00
         21   -1    0    0  502  501  0.00000000000E+00  0.00000000000E+00  0.15388593400E+03  0.15388593400E+03  0.00000000000E+00 0.  1.
         21   -1    0    0  501  502 -0.00000000000E+00 -0.00000000000E+00 -0.33606434396E+03  0.33606434396E+03  0.00000000000E+00 0.  1.
      99926    2    1    2    0    0  0.00000000000E+00  0.00000000000E+00 -0.18217840996E+03  0.48995027795E+03  0.45482117564E+03 0.  0.
      99925    2    3    3    0    0  0.10950125800E+03  0.19092461220E+02 -0.13609347341E+03  0.31638076146E+03  0.26309752021E+03 0.  0.
         25    1    4    4    0    0  0.20077173984E+02  0.33415804087E+02 -0.57229877428E+02  0.14297718646E+03  0.12509000000E+03 0.  0.
         25    1    4    4    0    0  0.89424084013E+02 -0.14323342867E+02 -0.78863595978E+02  0.17340357500E+03  0.12509000000E+03 0.  0.
         25    1    3    3    0    0 -0.10950125800E+03 -0.19092461220E+02 -0.46084936553E+02  0.17356951649E+03  0.12509000000E+03 0.  0.
<mgrwt>
<rscale>  2 0.45482118E+03</rscale>
<asrwt>0</asrwt>
<pdfrwt beam="1">  1       21 0.22630285E-01 0.45482118E+03</pdfrwt>
<pdfrwt beam="2">  1       21 0.49421226E-01 0.45482118E+03</pdfrwt>
<totfact> 0.66076368E+04</totfact>
</mgrwt>
</event>
<event>
 7    0  0.4737014E-002  0.4576590E+03  0.7546771E-02  0.1025462E+00
         21   -1    0    0  502  501  0.00000000000E+00  0.00000000000E+00  0.17589599130E+03  0.17589599130E+03  0.00000000000E+00 0.  1.
         21   -1    0    0  501  502 -0.00000000000E+00 -0.00000000000E+00 -0.29769263932E+03  0.29769263932E+03  0.00000000000E+00 0.  1.
      99926    2    1    2    0    0  0.17763568394E-14  0.00000000000E+00 -0.12179664802E+03  0.47358863062E+03  0.45765900798E+03 0.  0.
      99925    2    3    3    0    0 -0.83494152828E+01 -0.89150713489E+02 -0.15217328838E+03  0.31678362167E+03  0.26301633183E+03 0.  0.
         25    1    4    4    0    0  0.32184218083E+02 -0.29483809480E+02 -0.85954756409E+02  0.15792671454E+03  0.12509000000E+03 0.  0.
         25    1    3    3    0    0  0.83494152828E+01  0.89150713489E+02  0.30376640362E+02  0.15680500895E+03  0.12509000000E+03 0.  0.
         25    1    4    4    0    0 -0.40533633366E+02 -0.59666904010E+02 -0.66218531968E+02  0.15885690713E+03  0.12509000000E+03 0.  0.
<mgrwt>
<rscale>  2 0.45765901E+03</rscale>
<asrwt>0</asrwt>
<pdfrwt beam="1">  1       21 0.25867058E-01 0.45765901E+03</pdfrwt>
<pdfrwt beam="2">  1       21 0.43778329E-01 0.45765901E+03</pdfrwt>
<totfact> 0.65771296E+04</totfact>
</mgrwt>
</event>
<event>
 7    0  0.4737014E-002  0.4511626E+03  0.7546771E-02  0.1027376E+00
         21   -1    0    0  502  501  0.00000000000E+00  0.00000000000E+00  0.50342421594E+02  0.50342421594E+02  0.00000000000E+00 0.  1.
         21   -1    0    0  501  502 -0.00000000000E+00 -0.00000000000E+00 -0.10108158441E+04  0.10108158441E+04  0.00000000000E+00 0.  1.
      99926    2    1    2    0    0 -0.17763568394E-14  0.00000000000E+00 -0.96047342252E+03  0.10611582657E+04  0.45116257548E+03 0.  0.
      99925    2    3    3    0    0  0.81077707350E+01 -0.44435768846E+02 -0.84172456670E+03  0.88286336293E+03  0.26250180554E+03 0.  0.
         25    1    4    4    0    0  0.23203412150E+02 -0.36671850011E+02 -0.32484877531E+03  0.35079546439E+03  0.12509000000E+03 0.  0.
         25    1    4    4    0    0 -0.15095641415E+02 -0.77639188354E+01 -0.51687579139E+03  0.53206789853E+03  0.12509000000E+03 0.  0.
         25    1    3    3    0    0 -0.81077707350E+01  0.44435768846E+02 -0.11874885582E+03  0.17829490278E+03  0.12509000000E+03 0.  0.
<mgrwt>
<rscale>  2 0.45116258E+03</rscale>
<asrwt>0</asrwt>
<pdfrwt beam="1">  1       21 0.74032983E-02 0.45116258E+03</pdfrwt>
<pdfrwt beam="2">  1       21 0.14864937E+00 0.45116258E+03</pdfrwt>
<totfact> 0.37995832E+04</totfact>
</mgrwt>
</event>
<event>
 7    0  0.4737014E-002  0.4659042E+03  0.7546771E-02  0.1023083E+00
         21   -1    0    0  502  501  0.00000000000E+00  0.00000000000E+00  0.83610318182E+03  0.83610318182E+03  0.00000000000E+00 0.  1.
         21   -1    0    0  501  502 -0.00000000000E+00 -0.00000000000E+00 -0.64904288124E+02  0.64904288124E+02  0.00000000000E+00 0.  1.
      99926    2    1    2    0    0  0.00000000000E+00  0.00000000000E+00  0.77119889370E+03  0.90100746995E+03  0.46590420395E+03 0.  0.
      99925    2    3    3    0    0 -0.11613696521E+03  0.34294802595E+02  0.52252606577E+03  0.59744592492E+03  0.26314295661E+03 0.  0.
         25    1    4    4    0    0 -0.39438745467E+02 -0.20398843212E+02  0.22537582666E+03  0.26155935997E+03  0.12509000000E+03 0.  0.
         25    1    4    4    0    0 -0.76698219740E+02  0.54693645807E+02  0.29715023911E+03  0.33588656494E+03  0.12509000000E+03 0.  0.
         25    1    3    3    0    0  0.11613696521E+03 -0.34294802595E+02  0.24867282793E+03  0.30356154503E+03  0.12509000000E+03 0.  0.
<mgrwt>
<rscale>  2 0.46590420E+03</rscale>
<asrwt>0</asrwt>
<pdfrwt beam="1">  1       21 0.12295634E+00 0.46590420E+03</pdfrwt>
<pdfrwt beam="2">  1       21 0.95447488E-02 0.46590420E+03</pdfrwt>
<totfact> 0.39691462E+04</totfact>
</mgrwt>
</event>
<event>
 7    0  0.4737014E-002  0.4403715E+03  0.7546771E-02  0.1030633E+00
         21   -1    0    0  502  501  0.00000000000E+00  0.00000000000E+00  0.92610529597E+02  0.92610529597E+02  0.00000000000E+00 0.  1.
         21   -1    0    0  501  502 -0.00000000000E+00 -0.00000000000E+00 -0.52350174158E+03  0.52350174158E+03  0.00000000000E+00 0.  1.
      99926    2    1    2    0    0  0.00000000000E+00  0.00000000000E+00 -0.43089121198E+03  0.61611227118E+03  0.44037154101E+03 0.  0.
      99925    2    3    3    0    0 -0.78101591663E+02  0.34532574161E+02 -0.34408696859E+03  0.44154182101E+03  0.26319380778E+03 0.  0.
         25    1    3    3    0    0  0.78101591663E+02 -0.34532574161E+02 -0.86804243395E+02  0.17457045016E+03  0.12509000000E+03 0.  0.
         25    1    4    4    0    0 -0.19229605192E+02  0.43407781758E+02 -0.20821175500E+03  0.24749476005E+03  0.12509000000E+03 0.  0.
         25    1    4    4    0    0 -0.58871986472E+02 -0.88752075972E+01 -0.13587521359E+03  0.19404706096E+03  0.12509000000E+03 0.  0.
<mgrwt>
<rscale>  2 0.44037154E+03</rscale>
<asrwt>0</asrwt>
<pdfrwt beam="1">  1       21 0.13619195E-01 0.44037154E+03</pdfrwt>
<pdfrwt beam="2">  1       21 0.76985552E-01 0.44037154E+03</pdfrwt>
<totfact> 0.64872692E+04</totfact>
</mgrwt>
</event>
<event>
 7    0  0.4737014E-002  0.4563565E+03  0.7546771E-02  0.1025843E+00
         21   -1    0    0  502  501  0.00000000000E+00  0.00000000000E+00  0.22830553921E+04  0.22830553921E+04  0.00000000000E+00 0.  1.
         21   -1    0    0  501  502 -0.00000000000E+00 -0.00000000000E+00 -0.22805099450E+02  0.22805099450E+02  0.00000000000E+00 0.  1.
      99926    2    1    2    0    0  0.00000000000E+00  0.14210854715E-13  0.22602502926E+04  0.23058604915E+04  0.45635646272E+03 0.  0.
      99925    2    3    3    0    0 -0.92679842143E+02 -0.67288657802E+02  0.14154379127E+04  0.14441918882E+04  0.26288478195E+03 0.  0.
         25    1    3    3    0    0  0.92679842143E+02  0.67288657802E+02  0.84481237989E+03  0.86166860331E+03  0.12509000000E+03 0.  0.
         25    1    4    4    0    0 -0.39568304192E+02 -0.14316875932E+01  0.78712510376E+03  0.79798567500E+03  0.12509000000E+03 0.  0.
         25    1    4    4    0    0 -0.53111537951E+02 -0.65856970209E+02  0.62831280896E+03  0.64620621321E+03  0.12509000000E+03 0.  0.
<mgrwt>
<rscale>  2 0.45635646E+03</rscale>
<asrwt>0</asrwt>
<pdfrwt beam="1">  1       21 0.33574328E+00 0.45635646E+03</pdfrwt>
<pdfrwt beam="2">  1       21 0.33536927E-02 0.45635646E+03</pdfrwt>
<totfact> 0.92303382E+03</totfact>
</mgrwt>
</event>
<event>
 7    0  0.4737014E-002  0.4430459E+03  0.7546771E-02  0.1029816E+00
         21   -1    0    0  502  501  0.00000000000E+00  0.00000000000E+00  0.10322831099E+03  0.10322831099E+03  0.00000000000E+00 0. -1.
         21   -1    0    0  501  502 -0.00000000000E+00 -0.00000000000E+00 -0.47537744355E+03  0.47537744355E+03  0.00000000000E+00 0. -1.
      99926    2    1    2    0    0  0.00000000000E+00  0.00000000000E+00 -0.37214913256E+03  0.57860575454E+03  0.44304586931E+03 0.  0.
      99925    2    3    3    0    0 -0.52138650101E+02  0.76575830809E+02 -0.28845091681E+03  0.40187093590E+03  0.26403412850E+03 0.  0.
         25    1    4    4    0    0  0.44643892563E+01  0.37888908357E+02 -0.18090465987E+03  0.22322523202E+03  0.12509000000E+03 0.  0.
         25    1    4    4    0    0 -0.56603039357E+02  0.38686922453E+02 -0.10754625694E+03  0.17864570388E+03  0.12509000000E+03 0.  0.
         25    1    3    3    0    0  0.52138650101E+02 -0.76575830809E+02 -0.83698215754E+02  0.17673481864E+03  0.12509000000E+03 0.  0.
<mgrwt>
<rscale>  2 0.44304587E+03</rscale>
<asrwt>0</asrwt>
<pdfrwt beam="1">  1       21 0.15180634E-01 0.44304587E+03</pdfrwt>
<pdfrwt beam="2">  1       21 0.69908446E-01 0.44304587E+03</pdfrwt>
<totfact> 0.66038040E+04</totfact>
</mgrwt>
</event>
<event>
 7    0  0.4737014E-002  0.4526519E+03  0.7546771E-02  0.1026934E+00
         21   -1    0    0  502  501  0.00000000000E+00  0.00000000000E+00  0.39585586632E+03  0.39585586632E+03  0.00000000000E+00 0.  1.
         21   -1    0    0  501  502 -0.00000000000E+00 -0.00000000000E+00 -0.12939919311E+03  0.12939919311E+03  0.00000000000E+00 0.  1.
      99926    2    1    2    0    0 -0.26645352591E-14  0.14210854715E-13  0.26645667321E+03  0.52525505943E+03  0.45265187369E+03 0.  0.
      99925    2    3    3    0    0  0.65890157898E+01  0.11064468707E+03  0.18001834115E+03  0.33709354568E+03  0.26256388457E+03 0.  0.
         25    1    4    4    0    0  0.23685294124E+02  0.92647240881E+02  0.10127943107E+03  0.18721521215E+03  0.12509000000E+03 0.  0.
         25    1    4    4    0    0 -0.17096278334E+02  0.17997446189E+02  0.78738910078E+02  0.14987833353E+03  0.12509000000E+03 0.  0.
         25    1    3    3    0    0 -0.65890157898E+01 -0.11064468707E+03  0.86438332062E+02  0.18816151375E+03  0.12509000000E+03 0.  0.
<mgrwt>
<rscale>  2 0.45265187E+03</rscale>
<asrwt>0</asrwt>
<pdfrwt beam="1">  1       21 0.58214098E-01 0.45265187E+03</pdfrwt>
<pdfrwt beam="2">  1       21 0.19029293E-01 0.45265187E+03</pdfrwt>
<totfact> 0.64725260E+04</totfact>
</mgrwt>
</event>
<event>
 7    0  0.4737014E-002  0.4328512E+03  0.7546771E-02  0.1032963E+00
         21   -1    0    0  502  501  0.00000000000E+00  0.00000000000E+00  0.28093616195E+03  0.28093616195E+03  0.00000000000E+00 0. -1.
         21   -1    0    0  501  502 -0.00000000000E+00 -0.00000000000E+00 -0.16672838977E+03  0.16672838977E+03  0.00000000000E+00 0. -1.
      99926    2    1    2    0    0  0.00000000000E+00 -0.71054273576E-14  0.11420777217E+03  0.44766455172E+03  0.43285117031E+03 0.  0.
      99925    2    3    3    0    0 -0.19830306720E+02  0.40482677438E+02 -0.81972888981E+01  0.26693659231E+03  0.26297501883E+03 0.  0.
         25    1    4    4    0    0 -0.99547761607E+01 -0.17205033039E+02  0.12560023693E+02  0.12728068599E+03  0.12509000000E+03 0.  0.
         25    1    4    4    0    0 -0.98755305591E+01  0.57687710477E+02 -0.20757312591E+02  0.13965590632E+03  0.12509000000E+03 0.  0.
         25    1    3    3    0    0  0.19830306720E+02 -0.40482677438E+02  0.12240506107E+03  0.18072795941E+03  0.12509000000E+03 0.  0.
<mgrwt>
<rscale>  2 0.43285117E+03</rscale>
<asrwt>0</asrwt>
<pdfrwt beam="1">  1       21 0.41314142E-01 0.43285117E+03</pdfrwt>
<pdfrwt beam="2">  1       21 0.24518881E-01 0.43285117E+03</pdfrwt>
<totfact> 0.82742385E+04</totfact>
</mgrwt>
</event>
<event>
 6    0  0.4737014E-002  0.4530425E+03  0.7546771E-02  0.1026819E+00
         21   -1    0    0  502  501  0.00000000000E+00  0.00000000000E+00  0.89989870909E+03  0.89989870909E+03  0.00000000000E+00 0. -1.
         21   -1    0    0  501  502 -0.00000000000E+00 -0.00000000000E+00 -0.57019615133E+02  0.57019615133E+02  0.00000000000E+00 0. -1.
      99926    2    1    2    0    0 -0.62172489379E-14  0.00000000000E+00  0.84287909396E+03  0.95691832422E+03  0.45304250596E+03 0.  0.
         25    1    3    3    0    0  0.52529743767E+02 -0.57098458783E+02  0.44158619125E+03  0.46547339385E+03  0.12509000000E+03 0.  0.
         25    1    3    3    0    0 -0.55493886736E+02  0.20916033621E+01  0.26590504556E+03  0.29906010704E+03  0.12509000000E+03 0.  0.
         25    1    3    3    0    0  0.29641429692E+01  0.55006855421E+02  0.13538785715E+03  0.19238482333E+03  0.12509000000E+03 0.  0.
<mgrwt>
<rscale>  2 0.45304251E+03</rscale>
<asrwt>0</asrwt>
<pdfrwt beam="1">  1       21 0.13233804E+00 0.45304251E+03</pdfrwt>
<pdfrwt beam="2">  1       21 0.83852381E-02 0.45304251E+03</pdfrwt>
<totfact> 0.41493411E+04</totfact>
</mgrwt>
</event>
<event>
 7    0  0.4737014E-002  0.4543553E+03  0.7546771E-02  0.1026431E+00
         21   -1    0    0  502  501  0.00000000000E+00  0.00000000000E+00  0.13979506731E+04  0.13979506731E+04  0.00000000000E+00 0. -1.
         21   -1    0    0  501  502 -0.00000000000E+00 -0.00000000000E+00 -0.36918103514E+02  0.36918103514E+02  0.00000000000E+00 0. -1.
      99926    2    1    2    0    0  0.00000000000E+00  0.00000000000E+00  0.13610325696E+04  0.14348687766E+04  0.45435531320E+03 0.  0.
      99925    2    3    3    0    0  0.53039258503E+02 -0.47324804415E+02  0.58101881311E+03  0.64169681011E+03  0.26294321604E+03 0.  0.
         25    1    4    4    0    0 -0.17332147751E+01 -0.36417880175E+02  0.22174605680E+03  0.25719270564E+03  0.12509000000E+03 0.  0.
         25    1    3    3    0    0 -0.53039258503E+02  0.47324804415E+02  0.78001375649E+03  0.79317196652E+03  0.12509000000E+03 0.  0.
         25    1    4    4    0    0  0.54772473278E+02 -0.10906924240E+02  0.35927275631E+03  0.38450410447E+03  0.12509000000E+03 0.  0.
<mgrwt>
<rscale>  2 0.45435531E+03</rscale>
<asrwt>0</asrwt>
<pdfrwt beam="1">  1       21 0.20558095E+00 0.45435531E+03</pdfrwt>
<pdfrwt beam="2">  1       21 0.54291338E-02 0.45435531E+03</pdfrwt>
<totfact> 0.25545195E+04</totfact>
</mgrwt>
</event>
<event>
 7    0  0.4737014E-002  0.4224934E+03  0.7546771E-02  0.1036258E+00
         21   -1    0    0  502  501  0.00000000000E+00  0.00000000000E+00  0.11153719683E+03  0.11153719683E+03  0.00000000000E+00 0. -1.
         21   -1    0    0  501  502 -0.00000000000E+00 -0.00000000000E+00 -0.40009231713E+03  0.40009231713E+03  0.00000000000E+00 0. -1.
      99926    2    1    2    0    0  0.00000000000E+00  0.00000000000E+00 -0.28855512030E+03  0.51162951396E+03  0.42249343439E+03 0.  0.
      99925    2    3    3    0    0 -0.56877375870E+02 -0.32783366097E+02 -0.13438382258E+03  0.30252168981E+03  0.26296497116E+03 0.  0.
         25    1    4    4    0    0 -0.26868950377E+02  0.35485897871E+01 -0.26408534675E+02  0.13068837664E+03  0.12509000000E+03 0.  0.
         25    1    4    4    0    0 -0.30008425493E+02 -0.36331955884E+02 -0.10797528790E+03  0.17183331318E+03  0.12509000000E+03 0.  0.
         25    1    3    3    0    0  0.56877375870E+02  0.32783366097E+02 -0.15417129772E+03  0.20910782415E+03  0.12509000000E+03 0.  0.
<mgrwt>
<rscale>  2 0.42249343E+03</rscale>
<asrwt>0</asrwt>
<pdfrwt beam="1">  1       21 0.16402529E-01 0.42249343E+03</pdfrwt>
<pdfrwt beam="2">  1       21 0.58837105E-01 0.42249343E+03</pdfrwt>
<totfact> 0.84131226E+04</totfact>
</mgrwt>
</event>
<event>
 7    0  0.4737014E-002  0.4538514E+03  0.7546771E-02  0.1026580E+00
         21   -1    0    0  502  501  0.00000000000E+00  0.00000000000E+00  0.32873724746E+02  0.32873724746E+02  0.00000000000E+00 0.  1.
         21   -1    0    0  501  502 -0.00000000000E+00 -0.00000000000E+00 -0.15664571528E+04  0.15664571528E+04  0.00000000000E+00 0.  1.
      99926    2    1    2    0    0 -0.14210854715E-13  0.14210854715E-13 -0.15335834280E+04  0.15993308775E+04  0.45385143502E+03 0.  0.
      99925    2    3    3    0    0 -0.65955999733E+02  0.82490865320E+02 -0.84463079321E+03  0.89119375952E+03  0.26395113831E+03 0.  0.
         25    1    4    4    0    0 -0.37560598510E+02  0.49794453793E+02 -0.56165403151E+03  0.57878583725E+03  0.12509000000E+03 0.  0.
         25    1    3    3    0    0  0.65955999733E+02 -0.82490865320E+02 -0.68895263482E+03  0.70813711800E+03  0.12509000000E+03 0.  0.
         25    1    4    4    0    0 -0.28395401223E+02  0.32696411527E+02 -0.28297676170E+03  0.31240792227E+03  0.12509000000E+03 0.  0.
<mgrwt>
<rscale>  2 0.45385144E+03</rscale>
<asrwt>0</asrwt>
<pdfrwt beam="1">  1       21 0.48343713E-02 0.45385144E+03</pdfrwt>
<pdfrwt beam="2">  1       21 0.23036135E+00 0.45385144E+03</pdfrwt>
<totfact> 0.21637240E+04</totfact>
</mgrwt>
</event>
<event>
 7    0  0.4737014E-002  0.4487122E+03  0.7546771E-02  0.1028107E+00
         21   -1    0    0  502  501  0.00000000000E+00  0.00000000000E+00  0.25174799814E+03  0.25174799814E+03  0.00000000000E+00 0. -1.
         21   -1    0    0  501  502 -0.00000000000E+00 -0.00000000000E+00 -0.19994466072E+03  0.19994466072E+03  0.00000000000E+00 0. -1.
      99926    2    1    2    0    0  0.00000000000E+00 -0.71054273576E-14  0.51803337419E+02  0.45169265886E+03  0.44871223774E+03 0.  0.
      99925    2    3    3    0    0  0.70235299223E+02  0.57533555956E+02 -0.24449906522E+02  0.27934077279E+03  0.26304060922E+03 0.  0.
         25    1    4    4    0    0  0.46563375475E+02  0.84633132231E+01 -0.45533269513E+02  0.14128185424E+03  0.12509000000E+03 0.  0.
         25    1    4    4    0    0  0.23671923748E+02  0.49070242733E+02  0.21083362991E+02  0.13805891855E+03  0.12509000000E+03 0.  0.
         25    1    3    3    0    0 -0.70235299223E+02 -0.57533555956E+02  0.76253243940E+02  0.17235188606E+03  0.12509000000E+03 0.  0.
<mgrwt>
<rscale>  2 0.44871224E+03</rscale>
<asrwt>0</asrwt>
<pdfrwt beam="1">  1       21 0.37021764E-01 0.44871224E+03</pdfrwt>
<pdfrwt beam="2">  1       21 0.29403627E-01 0.44871224E+03</pdfrwt>
<totfact> 0.72350700E+04</totfact>
</mgrwt>
</event>
<event>
 7    0  0.4737014E-002  0.4560493E+03  0.7546771E-02  0.1025933E+00
         21   -1    0    0  502  501  0.00000000000E+00  0.00000000000E+00  0.28379094376E+02  0.28379094376E+02  0.00000000000E+00 0. -1.
         21   -1    0    0  501  502 -0.00000000000E+00 -0.00000000000E+00 -0.18321670554E+04  0.18321670554E+04  0.00000000000E+00 0. -1.
      99926    2    1    2    0    0  0.00000000000E+00 -0.71054273576E-14 -0.18037879610E+04  0.18605461498E+04  0.45604930338E+03 0.  0.
      99925    2    3    3    0    0 -0.46401182925E+02  0.37855636944E+02 -0.73691796007E+03  0.78469986612E+03  0.26290622090E+03 0.  0.
         25    1    3    3    0    0  0.46401182925E+02 -0.37855636944E+02 -0.10668700010E+04  0.10758462837E+04  0.12509000000E+03 0.  0.
         25    1    4    4    0    0 -0.34726752197E+02 -0.19940066998E+02 -0.36174430284E+03  0.38485062339E+03  0.12509000000E+03 0.  0.
         25    1    4    4    0    0 -0.11674430728E+02  0.57795703943E+02 -0.37517365723E+03  0.39984924273E+03  0.12509000000E+03 0.  0.
<mgrwt>
<rscale>  2 0.45604930E+03</rscale>
<asrwt>0</asrwt>
<pdfrwt beam="1">  1       21 0.41733968E-02 0.45604930E+03</pdfrwt>
<pdfrwt beam="2">  1       21 0.26943630E+00 0.45604930E+03</pdfrwt>
<totfact> 0.15992633E+04</totfact>
</mgrwt>
</event>
<event>
 7    0  0.4737014E-002  0.4533834E+03  0.7546771E-02  0.1026718E+00
         21   -1    0    0  502  501  0.00000000000E+00  0.00000000000E+00  0.41160580974E+03  0.41160580974E+03  0.00000000000E+00 0.  1.
         21   -1    0    0  501  502 -0.00000000000E+00 -0.00000000000E+00 -0.12485036773E+03  0.12485036773E+03  0.00000000000E+00 0.  1.
      99926    2    1    2    0    0  0.00000000000E+00  0.00000000000E+00  0.28675544200E+03  0.53645617747E+03  0.45338344349E+03 0.  0.
      99925    2    3    3    0    0  0.47020487298E+02 -0.25450312124E+02  0.64754787187E+02  0.27609019764E+03  0.26300944880E+03 0.  0.
         25    1    4    4    0    0  0.30870738071E+02 -0.49969930381E+02  0.18011805788E+02  0.13936258343E+03  0.12509000000E+03 0.  0.
         25    1    4    4    0    0  0.16149749227E+02  0.24519618257E+02  0.46742981399E+02  0.13672761422E+03  0.12509000000E+03 0.  0.
         25    1    3    3    0    0 -0.47020487298E+02  0.25450312124E+02  0.22200065482E+03  0.26036597983E+03  0.12509000000E+03 0.  0.
<mgrwt>
<rscale>  2 0.45338344E+03</rscale>
<asrwt>0</asrwt>
<pdfrwt beam="1">  1       21 0.60530266E-01 0.45338344E+03</pdfrwt>
<pdfrwt beam="2">  1       21 0.18360348E-01 0.45338344E+03</pdfrwt>
<totfact> 0.63580042E+04</totfact>
</mgrwt>
</event>
<event>
 7    0  0.4737014E-002  0.4573362E+03  0.7546771E-02  0.1025557E+00
         21   -1    0    0  502  501  0.00000000000E+00  0.00000000000E+00  0.23140714549E+03  0.23140714549E+03  0.00000000000E+00 0. -1.
         21   -1    0    0  501  502 -0.00000000000E+00 -0.00000000000E+00 -0.22596151324E+03  0.22596151324E+03  0.00000000000E+00 0. -1.
      99926    2    1    2    0    0  0.00000000000E+00  0.00000000000E+00  0.54456322515E+01  0.45736865873E+03  0.45733623854E+03 0.  0.
      99925    2    3    3    0    0 -0.76098786333E+02  0.35134443552E+02  0.82664361125E+02  0.28814781311E+03  0.26300249275E+03 0.  0.
         25    1    3    3    0    0  0.76098786333E+02 -0.35134443552E+02 -0.77218728873E+02  0.16922084562E+03  0.12509000000E+03 0.  0.
         25    1    4    4    0    0 -0.71182534799E+02  0.85792171613E+01  0.67764279121E+02  0.15931121069E+03  0.12509000000E+03 0.  0.
         25    1    4    4    0    0 -0.49162515341E+01  0.26555226391E+02  0.14900082004E+02  0.12883660241E+03  0.12509000000E+03 0.  0.
<mgrwt>
<rscale>  2 0.45733624E+03</rscale>
<asrwt>0</asrwt>
<pdfrwt beam="1">  1       21 0.34030463E-01 0.45733624E+03</pdfrwt>
<pdfrwt beam="2">  1       21 0.33229634E-01 0.45733624E+03</pdfrwt>
<totfact> 0.67112828E+04</totfact>
</mgrwt>
</event>
<event>
 7    0  0.4737014E-002  0.4571149E+03  0.7546771E-02  0.1025621E+00
         21   -1    0    0  502  501  0.00000000000E+00  0.00000000000E+00  0.37487182550E+02  0.37487182550E+02  0.00000000000E+00 0.  1.
         21   -1    0    0  501  502 -0.00000000000E+00 -0.00000000000E+00 -0.13935033471E+04  0.13935033471E+04  0.00000000000E+00 0.  1.
      99926    2    1    2    0    0  0.00000000000E+00  0.00000000000E+00 -0.13560161646E+04  0.14309905297E+04  0.45711492803E+03 0.  0.
      99925    2    3    3    0    0 -0.76500491522E+02  0.21938448306E+02 -0.11120937143E+04  0.11455447545E+04  0.26303371353E+03 0.  0.
         25    1    3    3    0    0  0.76500491522E+02 -0.21938448306E+02 -0.24392245026E+03  0.28544577516E+03  0.12509000000E+03 0.  0.
         25    1    4    4    0    0 -0.57951581900E+01  0.99344903080E+01 -0.62768413708E+03  0.64013058199E+03  0.12509000000E+03 0.  0.
         25    1    4    4    0    0 -0.70705333332E+02  0.12003957998E+02 -0.48440957721E+03  0.50541417250E+03  0.12509000000E+03 0.  0.
<mgrwt>
<rscale>  2 0.45711493E+03</rscale>
<asrwt>0</asrwt>
<pdfrwt beam="1">  1       21 0.55128195E-02 0.45711493E+03</pdfrwt>
<pdfrwt beam="2">  1       21 0.20492702E+00 0.45711493E+03</pdfrwt>
<totfact> 0.25102689E+04</totfact>
</mgrwt>
</event>
<event>
 7    0  0.4737014E-002  0.4638234E+03  0.7546771E-02  0.1023678E+00
         21   -1    0    0  502  501  0.00000000000E+00  0.00000000000E+00  0.82957981434E+03  0.82957981434E+03  0.00000000000E+00 0. -1.
         21   -1    0    0  501  502 -0.00000000000E+00 -0.00000000000E+00 -0.64831648350E+02  0.64831648350E+02  0.00000000000E+00 0. -1.
      99926    2    1    2    0    0 -0.35527136788E-14  0.14210854715E-13  0.76474816599E+03  0.89441146269E+03  0.46382335776E+03 0.  0.
      99925    2    3    3    0    0 -0.25677825942E+02  0.11349102276E+03  0.41175631556E+03  0.50225037645E+03  0.26300687110E+03 0.  0.
         25    1    3    3    0    0  0.25677825942E+02 -0.11349102276E+03  0.35299185043E+03  0.39216108624E+03  0.12509000000E+03 0.  0.
         25    1    4    4    0    0 -0.32057488981E+02  0.41244380350E+02  0.25631049203E+03  0.28995061292E+03  0.12509000000E+03 0.  0.
         25    1    4    4    0    0  0.63796630397E+01  0.72246642408E+02  0.15544582353E+03  0.21229976353E+03  0.12509000000E+03 0.  0.
<mgrwt>
<rscale>  2 0.46382336E+03</rscale>
<asrwt>0</asrwt>
<pdfrwt beam="1">  1       21 0.12199703E+00 0.46382336E+03</pdfrwt>
<pdfrwt beam="2">  1       21 0.95340664E-02 0.46382336E+03</pdfrwt>
<totfact> 0.40597821E+04</totfact>
</mgrwt>
</event>
<event>
 7    0  0.4737014E-002  0.4628234E+03  0.7546771E-02  0.1023966E+00
         21   -1    0    0  502  501  0.00000000000E+00  0.00000000000E+00  0.69342440179E+03  0.69342440179E+03  0.00000000000E+00 0.  1.
         21   -1    0    0  501  502 -0.00000000000E+00 -0.00000000000E+00 -0.77227414331E+02  0.77227414331E+02  0.00000000000E+00 0.  1.
      99926    2    1    2    0    0  0.00000000000E+00  0.00000000000E+00  0.61619698745E+03  0.77065181612E+03  0.46282339433E+03 0.  0.
      99925    2    3    3    0    0  0.38375289216E+02 -0.29915825954E+02  0.56765233152E+03  0.62792231256E+03  0.26398795744E+03 0.  0.
         25    1    3    3    0    0 -0.38375289216E+02  0.29915825954E+02  0.48544655936E+02  0.14272950355E+03  0.12509000000E+03 0.  0.
         25    1    4    4    0    0  0.12142845917E+02  0.13471370416E+02  0.20348878627E+03  0.23954982940E+03  0.12509000000E+03 0.  0.
         25    1    4    4    0    0  0.26232443299E+02 -0.43387196370E+02  0.36416354525E+03  0.38837248316E+03  0.12509000000E+03 0.  0.
<mgrwt>
<rscale>  2 0.46282339E+03</rscale>
<asrwt>0</asrwt>
<pdfrwt beam="1">  1       21 0.10197417E+00 0.46282339E+03</pdfrwt>
<pdfrwt beam="2">  1       21 0.11356973E-01 0.46282339E+03</pdfrwt>
<totfact> 0.46307014E+04</totfact>
</mgrwt>
</event>
<event>
 7    0  0.4737014E-002  0.4523709E+03  0.7546771E-02  0.1027017E+00
         21   -1    0    0  502  501  0.00000000000E+00  0.00000000000E+00  0.11517284758E+03  0.11517284758E+03  0.00000000000E+00 0. -1.
         21   -1    0    0  501  502 -0.00000000000E+00 -0.00000000000E+00 -0.44420063577E+03  0.44420063577E+03  0.00000000000E+00 0. -1.
      99926    2    1    2    0    0 -0.35527136788E-14  0.71054273576E-14 -0.32902778819E+03  0.55937348334E+03  0.45237087491E+03 0.  0.
      99925    2    3    3    0    0  0.24987566824E+02 -0.43943764129E+02 -0.85822920381E+02  0.28125201936E+03  0.26302412785E+03 0.  0.
         25    1    4    4    0    0  0.36003650250E+02 -0.18592301677E+02 -0.78048980559E+02  0.15290875704E+03  0.12509000000E+03 0.  0.
         25    1    4    4    0    0 -0.11016083427E+02 -0.25351462453E+02 -0.77739398224E+01  0.12834326232E+03  0.12509000000E+03 0.  0.
         25    1    3    3    0    0 -0.24987566824E+02  0.43943764129E+02 -0.24320486781E+03  0.27812146398E+03  0.12509000000E+03 0.  0.
<mgrwt>
<rscale>  2 0.45237087E+03</rscale>
<asrwt>0</asrwt>
<pdfrwt beam="1">  1       21 0.16937184E-01 0.45237087E+03</pdfrwt>
<pdfrwt beam="2">  1       21 0.65323621E-01 0.45237087E+03</pdfrwt>
<totfact> 0.62541848E+04</totfact>
</mgrwt>
</event>
<event>
 7    0  0.4737014E-002  0.4555257E+03  0.7546771E-02  0.1026087E+00
         21   -1    0    0  502  501  0.00000000000E+00  0.00000000000E+00  0.34193877533E+03  0.34193877533E+03  0.00000000000E+00 0.  1.
         21   -1    0    0  501  502 -0.00000000000E+00 -0.00000000000E+00 -0.15171112960E+03  0.15171112960E+03  0.00000000000E+00 0.  1.
      99926    2    1    2    0    0  0.00000000000E+00  0.00000000000E+00  0.19022764573E+03  0.49364990493E+03  0.45552570886E+03 0.  0.
      99925    2    3    3    0    0 -0.83835888653E+02 -0.34822136869E+02  0.45437217807E+02  0.28186507648E+03  0.26294931667E+03 0.  0.
         25    1    4    4    0    0 -0.48394232664E+02 -0.57033795830E+02  0.15134372665E+02  0.14653126956E+03  0.12509000000E+03 0.  0.
         25    1    3    3    0    0  0.83835888653E+02  0.34822136869E+02  0.14479042792E+03  0.21178482845E+03  0.12509000000E+03 0.  0.
         25    1    4    4    0    0 -0.35441655989E+02  0.22211658961E+02  0.30302845142E+02  0.13533380692E+03  0.12509000000E+03 0.  0.
<mgrwt>
<rscale>  2 0.45552571E+03</rscale>
<asrwt>0</asrwt>
<pdfrwt beam="1">  1       21 0.50285114E-01 0.45552571E+03</pdfrwt>
<pdfrwt beam="2">  1       21 0.22310460E-01 0.45552571E+03</pdfrwt>
<totfact> 0.65445554E+04</totfact>
</mgrwt>
</event>
<event>
 7    0  0.4737014E-002  0.4455330E+03  0.7546771E-02  0.1029063E+00
         21   -1    0    0  502  501  0.00000000000E+00  0.00000000000E+00  0.13418639214E+03  0.13418639214E+03  0.00000000000E+00 0. -1.
         21   -1    0    0  501  502 -0.00000000000E+00 -0.00000000000E+00 -0.36982084150E+03  0.36982084150E+03  0.00000000000E+00 0. -1.
      99926    2    1    2    0    0  0.00000000000E+00  0.00000000000E+00 -0.23563444937E+03  0.50400723364E+03  0.44553304910E+03 0.  0.
      99925    2    3    3    0    0 -0.67969317506E+02 -0.46925736725E+02 -0.77988962602E+02  0.28647226982E+03  0.26298712934E+03 0.  0.
         25    1    4    4    0    0  0.38242945616E+01 -0.28911863532E+02 -0.20045870520E+02  0.12999948502E+03  0.12509000000E+03 0.  0.
         25    1    4    4    0    0 -0.71793612068E+02 -0.18013873194E+02 -0.57943092082E+02  0.15647278479E+03  0.12509000000E+03 0.  0.
         25    1    3    3    0    0  0.67969317506E+02  0.46925736725E+02 -0.15764548676E+03  0.21753496382E+03  0.12509000000E+03 0.  0.
<mgrwt>
<rscale>  2 0.44553305E+03</rscale>
<asrwt>0</asrwt>
<pdfrwt beam="1">  1       21 0.19733293E-01 0.44553305E+03</pdfrwt>
<pdfrwt beam="2">  1       21 0.54385417E-01 0.44553305E+03</pdfrwt>
<totfact> 0.70111519E+04</totfact>
</mgrwt>
</event>
<event>
 7    0  0.4737014E-002  0.4523069E+03  0.7546771E-02  0.1027036E+00
         21   -1    0    0  502  501  0.00000000000E+00  0.00000000000E+00  0.34923134313E+03  0.34923134313E+03  0.00000000000E+00 0. -1.
         21   -1    0    0  501  502 -0.00000000000E+00 -0.00000000000E+00 -0.14645127497E+03  0.14645127497E+03  0.00000000000E+00 0. -1.
      99926    2    1    2    0    0 -0.14210854715E-13  0.00000000000E+00  0.20278006816E+03  0.49568261810E+03  0.45230686690E+03 0.  0.
      99925    2    3    3    0    0 -0.88375759111E+02 -0.58133819432E+02  0.90639763834E+02  0.29715611681E+03  0.26248119020E+03 0.  0.
         25    1    3    3    0    0  0.88375759111E+02  0.58133819432E+02  0.11214030433E+03  0.19852650129E+03  0.12509000000E+03 0.  0.
         25    1    4    4    0    0 -0.80746697155E+02 -0.46114542288E+02  0.36327512475E+02  0.16004304538E+03  0.12509000000E+03 0.  0.
         25    1    4    4    0    0 -0.76290619568E+01 -0.12019277144E+02  0.54312251360E+02  0.13711307143E+03  0.12509000000E+03 0.  0.
<mgrwt>
<rscale>  2 0.45230687E+03</rscale>
<asrwt>0</asrwt>
<pdfrwt beam="1">  1       21 0.51357550E-01 0.45230687E+03</pdfrwt>
<pdfrwt beam="2">  1       21 0.21536952E-01 0.45230687E+03</pdfrwt>
<totfact> 0.66995937E+04</totfact>
</mgrwt>
</event>
<event>
 7    0  0.4737014E-002  0.4241694E+03  0.7546771E-02  0.1035718E+00
         21   -1    0    0  502  501  0.00000000000E+00  0.00000000000E+00  0.10221051328E+03  0.10221051328E+03  0.00000000000E+00 0.  1.
         21   -1    0    0  501  502 -0.00000000000E+00 -0.00000000000E+00 -0.44007142934E+03  0.44007142934E+03  0.00000000000E+00 0.  1.
      99926    2    1    2    0    0  0.35527136788E-14  0.00000000000E+00 -0.33786091606E+03  0.54228194262E+03  0.42416943159E+03 0.  0.
      99925    2    3    3    0    0  0.31166888795E+02 -0.58666479421E+02 -0.15993871810E+03  0.31486833839E+03  0.26296111159E+03 0.  0.
         25    1    4    4    0    0  0.22829952902E+02 -0.66182784680E+02 -0.64828712188E+02  0.15732653229E+03  0.12509000000E+03 0.  0.
         25    1    4    4    0    0  0.83369358927E+01  0.75163052583E+01 -0.95110005912E+02  0.15754180610E+03  0.12509000000E+03 0.  0.
         25    1    3    3    0    0 -0.31166888795E+02  0.58666479421E+02 -0.17792219796E+03  0.22741360423E+03  0.12509000000E+03 0.  0.
<mgrwt>
<rscale>  2 0.42416943E+03</rscale>
<asrwt>0</asrwt>
<pdfrwt beam="1">  1       21 0.15030957E-01 0.42416943E+03</pdfrwt>
<pdfrwt beam="2">  1       21 0.64716388E-01 0.42416943E+03</pdfrwt>
<totfact> 0.80234984E+04</totfact>
</mgrwt>
</event>
<event>
 7    0  0.4737014E-002  0.4558708E+03  0.7546771E-02  0.1025986E+00
         21   -1    0    0  502  501  0.00000000000E+00  0.00000000000E+00  0.21348333847E+03  0.21348333847E+03  0.00000000000E+00 0. -1.
         21   -1    0    0  501  502 -0.00000000000E+00 -0.00000000000E+00 -0.24336585758E+03  0.24336585758E+03  0.00000000000E+00 0. -1.
      99926    2    1    2    0    0  0.00000000000E+00  0.00000000000E+00 -0.29882519112E+02  0.45684919605E+03  0.45587084024E+03 0.  0.
      99925    2    3    3    0    0 -0.84876919149E+02 -0.50758931165E+02  0.38241016816E+02  0.28344537618E+03  0.26286564137E+03 0.  0.
         25    1    4    4    0    0 -0.27091428235E+02 -0.11499956433E+02  0.53828704348E+02  0.13932419744E+03  0.12509000000E+03 0.  0.
         25    1    3    3    0    0  0.84876919149E+02  0.50758931165E+02 -0.68123535928E+02  0.17340381987E+03  0.12509000000E+03 0.  0.
         25    1    4    4    0    0 -0.57785490913E+02 -0.39258974732E+02 -0.15587687531E+02  0.14412117873E+03  0.12509000000E+03 0.  0.
<mgrwt>
<rscale>  2 0.45587084E+03</rscale>
<asrwt>0</asrwt>
<pdfrwt beam="1">  1       21 0.31394609E-01 0.45587084E+03</pdfrwt>
<pdfrwt beam="2">  1       21 0.35789097E-01 0.45587084E+03</pdfrwt>
<totfact> 0.67937296E+04</totfact>
</mgrwt>
</event>
<event>
 7    0  0.4737014E-002  0.4576611E+03  0.7546771E-02  0.1025462E+00
         21   -1    0    0  502  501  0.00000000000E+00  0.00000000000E+00  0.26748623129E+03  0.26748623129E+03  0.00000000000E+00 0. -1.
         21   -1    0    0  501  502 -0.00000000000E+00 -0.00000000000E+00 -0.19576121240E+03  0.19576121240E+03  0.00000000000E+00 0. -1.
      99926    2    1    2    0    0  0.14210854715E-13 -0.88817841970E-15  0.71725018894E+02  0.46324744369E+03  0.45766113637E+03 0.  0.
      99925    2    3    3    0    0  0.10751046586E+03  0.58245578733E+01  0.17136037680E+01  0.28396684771E+03  0.26275807964E+03 0.  0.
         25    1    4    4    0    0  0.55083278999E+02 -0.53751754107E+01  0.40135589021E+02  0.14255326633E+03  0.12509000000E+03 0.  0.
         25    1    3    3    0    0 -0.10751046586E+03 -0.58245578733E+01  0.70011415126E+02  0.17928059597E+03  0.12509000000E+03 0.  0.
         25    1    4    4    0    0  0.52427186865E+02  0.11199733284E+02 -0.38421985253E+02  0.14141358138E+03  0.12509000000E+03 0.  0.
<mgrwt>
<rscale>  2 0.45766114E+03</rscale>
<asrwt>0</asrwt>
<pdfrwt beam="1">  1       21 0.39336210E-01 0.45766114E+03</pdfrwt>
<pdfrwt beam="2">  1       21 0.28788414E-01 0.45766114E+03</pdfrwt>
<totfact> 0.66521592E+04</totfact>
</mgrwt>
</event>
<event>
 7    0  0.4737014E-002  0.4539813E+03  0.7546771E-02  0.1026541E+00
         21   -1    0    0  502  501  0.00000000000E+00  0.00000000000E+00  0.74469413751E+03  0.74469413751E+03  0.00000000000E+00 0. -1.
         21   -1    0    0  501  502 -0.00000000000E+00 -0.00000000000E+00 -0.69189166259E+02  0.69189166259E+02  0.00000000000E+00 0. -1.
      99926    2    1    2    0    0  0.00000000000E+00  0.00000000000E+00  0.67550497125E+03  0.81388330377E+03  0.45398134980E+03 0.  0.
      99925    2    3    3    0    0  0.25344337195E+02  0.77875227980E+02  0.56290012005E+03  0.62670892738E+03  0.26306016033E+03 0.  0.
         25    1    4    4    0    0  0.35272038501E+02  0.37706538168E+02  0.20807024402E+03  0.24820683767E+03  0.12509000000E+03 0.  0.
         25    1    3    3    0    0 -0.25344337195E+02 -0.77875227980E+02  0.11260485120E+03  0.18717437639E+03  0.12509000000E+03 0.  0.
         25    1    4    4    0    0 -0.99277013056E+01  0.40168689813E+02  0.35482987603E+03  0.37850208971E+03  0.12509000000E+03 0.  0.
<mgrwt>
<rscale>  2 0.45398135E+03</rscale>
<asrwt>0</asrwt>
<pdfrwt beam="1">  1       21 0.10951384E+00 0.45398135E+03</pdfrwt>
<pdfrwt beam="2">  1       21 0.10174878E-01 0.45398135E+03</pdfrwt>
<totfact> 0.47478996E+04</totfact>
</mgrwt>
</event>
<event>
 7    0  0.4737014E-002  0.4455304E+03  0.7546771E-02  0.1029063E+00
         21   -1    0    0  502  501  0.00000000000E+00  0.00000000000E+00  0.10509809693E+03  0.10509809693E+03  0.00000000000E+00 0.  1.
         21   -1    0    0  501  502 -0.00000000000E+00 -0.00000000000E+00 -0.47217155277E+03  0.47217155277E+03  0.00000000000E+00 0.  1.
      99926    2    1    2    0    0  0.00000000000E+00  0.00000000000E+00 -0.36707345584E+03  0.57726964970E+03  0.44553038784E+03 0.  0.
      99925    2    3    3    0    0 -0.61257316912E+02  0.60019276173E+02 -0.15562480460E+03  0.31705279284E+03  0.26258069475E+03 0.  0.
         25    1    4    4    0    0 -0.11450237574E+02  0.58577680358E+02 -0.55686126627E+02  0.14936835466E+03  0.12509000000E+03 0.  0.
         25    1    3    3    0    0  0.61257316912E+02 -0.60019276173E+02 -0.21144865123E+03  0.26021685686E+03  0.12509000000E+03 0.  0.
         25    1    4    4    0    0 -0.49807079338E+02  0.14415958149E+01 -0.99938677978E+02  0.16768443818E+03  0.12509000000E+03 0.  0.
<mgrwt>
<rscale>  2 0.44553039E+03</rscale>
<asrwt>0</asrwt>
<pdfrwt beam="1">  1       21 0.15455603E-01 0.44553039E+03</pdfrwt>
<pdfrwt beam="2">  1       21 0.69436992E-01 0.44553039E+03</pdfrwt>
<totfact> 0.64817793E+04</totfact>
</mgrwt>
</event>
<event>
 7    0  0.4737014E-002  0.4405016E+03  0.7546771E-02  0.1030593E+00
         21   -1    0    0  502  501  0.00000000000E+00  0.00000000000E+00  0.16084949490E+03  0.16084949490E+03  0.00000000000E+00 0.  1.
         21   -1    0    0  501  502 -0.00000000000E+00 -0.00000000000E+00 -0.30158881838E+03  0.30158881838E+03  0.00000000000E+00 0.  1.
      99926    2    1    2    0    0  0.00000000000E+00  0.14210854715E-13 -0.14073932348E+03  0.46243831327E+03  0.44050157367E+03 0.  0.
      99925    2    3    3    0    0 -0.14129398742E+02  0.91584274937E+02 -0.12648540564E+03  0.30611172693E+03  0.26290399807E+03 0.  0.
         25    1    3    3    0    0  0.14129398742E+02 -0.91584274937E+02 -0.14253917841E+02  0.15632658635E+03  0.12509000000E+03 0.  0.
         25    1    4    4    0    0  0.40885644662E+01  0.37486809633E+02 -0.19938392915E+02  0.13216287250E+03  0.12509000000E+03 0.  0.
         25    1    4    4    0    0 -0.18217963208E+02  0.54097465304E+02 -0.10654701273E+03  0.17394885443E+03  0.12509000000E+03 0.  0.
<mgrwt>
<rscale>  2 0.44050157E+03</rscale>
<asrwt>0</asrwt>
<pdfrwt beam="1">  1       21 0.23654338E-01 0.44050157E+03</pdfrwt>
<pdfrwt beam="2">  1       21 0.44351297E-01 0.44050157E+03</pdfrwt>
<totfact> 0.76422170E+04</totfact>
</mgrwt>
</event>
<event>
 7    0  0.4737014E-002  0.4023412E+03  0.7546771E-02  0.1042972E+00
         21   -1    0    0  502  501  0.00000000000E+00  0.00000000000E+00  0.47756512966E+03  0.47756512966E+03  0.00000000000E+00 0.  1.
         21   -1    0    0  501  502 -0.00000000000E+00 -0.00000000000E+00 -0.84741548425E+02  0.84741548425E+02  0.00000000000E+00 0.  1.
      99926    2    1    2    0    0  0.00000000000E+00  0.00000000000E+00  0.39282358123E+03  0.56230667808E+03  0.40234119133E+03 0.  0.
      99925    2    3    3    0    0 -0.36505361904E+02  0.23895270258E+02  0.29502798723E+03  0.39764000965E+03  0.26300653724E+03 0.  0.
         25    1    4    4    0    0 -0.40928115731E+02  0.25845074036E+02  0.19847431370E+03  0.23954673826E+03  0.12509000000E+03 0.  0.
         25    1    3    3    0    0  0.36505361904E+02 -0.23895270258E+02  0.97795593996E+02  0.16466666844E+03  0.12509000000E+03 0.  0.
         25    1    4    4    0    0  0.44227538267E+01 -0.19498037775E+01  0.96553673531E+02  0.15809327139E+03  0.12509000000E+03 0.  0.
<mgrwt>
<rscale>  2 0.40234119E+03</rscale>
<asrwt>0</asrwt>
<pdfrwt beam="1">  1       21 0.70230165E-01 0.40234119E+03</pdfrwt>
<pdfrwt beam="2">  1       21 0.12461993E-01 0.40234119E+03</pdfrwt>
<totfact> 0.94784359E+04</totfact>
</mgrwt>
</event>
<event>
 7    0  0.4737014E-002  0.4774287E+03  0.7546771E-02  0.1019844E+00
         21   -1    0    0  502  501  0.00000000000E+00  0.00000000000E+00  0.21010087975E+04  0.21010087975E+04  0.00000000000E+00 0.  1.
         21   -1    0    0  501  502 -0.00000000000E+00 -0.00000000000E+00 -0.27122469375E+02  0.27122469375E+02  0.00000000000E+00 0.  1.
      99926    2    1    2    0    0 -0.71054273576E-14  0.00000000000E+00  0.20738863281E+04  0.21281312669E+04  0.47742872460E+03 0.  0.
      99925    2    3    3    0    0 -0.63652734886E+02  0.70956178743E+02  0.16947661798E+04  0.17176851134E+04  0.26291309315E+03 0.  0.
         25    1    3    3    0    0  0.63652734886E+02 -0.70956178743E+02  0.37912014835E+03  0.41044615353E+03  0.12509000000E+03 0.  0.
         25    1    4    4    0    0 -0.82768756138E+01  0.44263447516E+02  0.63308052666E+03  0.64688965117E+03  0.12509000000E+03 0.  0.
         25    1    4    4    0    0 -0.55375859272E+02  0.26692731227E+02  0.10616856531E+04  0.10707954622E+04  0.12509000000E+03 0.  0.
<mgrwt>
<rscale>  2 0.47742872E+03</rscale>
<asrwt>0</asrwt>
<pdfrwt beam="1">  1       21 0.30897177E+00 0.47742872E+03</pdfrwt>
<pdfrwt beam="2">  1       21 0.39885999E-02 0.47742872E+03</pdfrwt>
<totfact> 0.98906427E+03</totfact>
</mgrwt>
</event>
<event>
 7    0  0.4737014E-002  0.4593360E+03  0.7546771E-02  0.1024974E+00
         21   -1    0    0  502  501  0.00000000000E+00  0.00000000000E+00  0.13155694496E+03  0.13155694496E+03  0.00000000000E+00 0.  1.
         21   -1    0    0  501  502 -0.00000000000E+00 -0.00000000000E+00 -0.40094722225E+03  0.40094722225E+03  0.00000000000E+00 0.  1.
      99926    2    1    2    0    0  0.00000000000E+00  0.00000000000E+00 -0.26939027729E+03  0.53250416721E+03  0.45933600621E+03 0.  0.
      99925    2    3    3    0    0 -0.10559102412E+03 -0.20872327804E+02 -0.11530541452E+03  0.30672823520E+03  0.26306226109E+03 0.  0.
         25    1    3    3    0    0  0.10559102412E+03  0.20872327804E+02 -0.15408486277E+03  0.22577593201E+03  0.12509000000E+03 0.  0.
         25    1    4    4    0    0 -0.74029491663E+02 -0.38698498125E+02 -0.85887250705E+02  0.17321104851E+03  0.12509000000E+03 0.  0.
         25    1    4    4    0    0 -0.31561532453E+02  0.17826170321E+02 -0.29418163817E+02  0.13351718669E+03  0.12509000000E+03 0.  0.
<mgrwt>
<rscale>  2 0.45933601E+03</rscale>
<asrwt>0</asrwt>
<pdfrwt beam="1">  1       21 0.19346610E-01 0.45933601E+03</pdfrwt>
<pdfrwt beam="2">  1       21 0.58962826E-01 0.45933601E+03</pdfrwt>
<totfact> 0.60916710E+04</totfact>
</mgrwt>
</event>
<event>
 7    0  0.4737014E-002  0.4510774E+03  0.7546771E-02  0.1027401E+00
         21   -1    0    0  502  501  0.00000000000E+00  0.00000000000E+00  0.10150980014E+03  0.10150980014E+03  0.00000000000E+00 0.  1.
         21   -1    0    0  501  502 -0.00000000000E+00 -0.00000000000E+00 -0.50111130771E+03  0.50111130771E+03  0.00000000000E+00 0.  1.
      99926    2    1    2    0    0  0.00000000000E+00 -0.71054273576E-14 -0.39960150757E+03  0.60262110784E+03  0.45107741549E+03 0.  0.
      99925    2    3    3    0    0 -0.47785068828E+02 -0.55653323366E+02 -0.36092949718E+03  0.45254200306E+03  0.26295143543E+03 0.  0.
         25    1    4    4    0    0 -0.26922829925E+02 -0.66837558888E+02 -0.16948410050E+03  0.22263078510E+03  0.12509000000E+03 0.  0.
         25    1    3    3    0    0  0.47785068828E+02  0.55653323366E+02 -0.38672010388E+02  0.15007910478E+03  0.12509000000E+03 0.  0.
         25    1    4    4    0    0 -0.20862238904E+02  0.11184235522E+02 -0.19144539668E+03  0.22991121797E+03  0.12509000000E+03 0.  0.
<mgrwt>
<rscale>  2 0.45107742E+03</rscale>
<asrwt>0</asrwt>
<pdfrwt beam="1">  1       21 0.14927912E-01 0.45107742E+03</pdfrwt>
<pdfrwt beam="2">  1       21 0.73692839E-01 0.45107742E+03</pdfrwt>
<totfact> 0.60366359E+04</totfact>
</mgrwt>
</event>
<event>
 7    0  0.4737014E-002  0.4434637E+03  0.7546771E-02  0.1029689E+00
         21   -1    0    0  502  501  0.00000000000E+00  0.00000000000E+00  0.22451245021E+03  0.22451245021E+03  0.00000000000E+00 0.  1.
         21   -1    0    0  501  502 -0.00000000000E+00 -0.00000000000E+00 -0.21898565246E+03  0.21898565246E+03  0.00000000000E+00 0.  1.
      99926    2    1    2    0    0  0.00000000000E+00  0.00000000000E+00  0.55267977567E+01  0.44349810267E+03  0.44346366432E+03 0.  0.
      99925    2    3    3    0    0 -0.76050222652E+01 -0.73772533336E+02  0.73545535133E+02  0.28295440216E+03  0.26297152873E+03 0.  0.
         25    1    4    4    0    0 -0.13345826723E+02 -0.77162580690E+02  0.32314535278E+02  0.15107584929E+03  0.12509000000E+03 0.  0.
         25    1    4    4    0    0  0.57408044574E+01  0.33900473542E+01  0.41230999855E+02  0.13187855287E+03  0.12509000000E+03 0.  0.
         25    1    3    3    0    0  0.76050222652E+01  0.73772533336E+02 -0.68018737376E+02  0.16054370051E+03  0.12509000000E+03 0.  0.
<mgrwt>
<rscale>  2 0.44346366E+03</rscale>
<asrwt>0</asrwt>
<pdfrwt beam="1">  1       21 0.33016537E-01 0.44346366E+03</pdfrwt>
<pdfrwt beam="2">  1       21 0.32203772E-01 0.44346366E+03</pdfrwt>
<totfact> 0.76170310E+04</totfact>
</mgrwt>
</event>
<event>
 7    0  0.4737014E-002  0.4336190E+03  0.7546771E-02  0.1032723E+00
         21   -1    0    0  502  501  0.00000000000E+00  0.00000000000E+00  0.84328655742E+03  0.84328655742E+03  0.00000000000E+00 0.  1.
         21   -1    0    0  501  502 -0.00000000000E+00 -0.00000000000E+00 -0.55741864751E+02  0.55741864751E+02  0.00000000000E+00 0.  1.
      99926    2    1    2    0    0  0.00000000000E+00  0.17763568394E-14  0.78754469267E+03  0.89902842217E+03  0.43361902739E+03 0.  0.
      99925    2    3    3    0    0 -0.70221041327E+02  0.50863520146E+01  0.38348980982E+03  0.47023392352E+03  0.26286620735E+03 0.  0.
         25    1    3    3    0    0  0.70221041327E+02 -0.50863520146E+01  0.40405488285E+03  0.42879449865E+03  0.12509000000E+03 0.  0.
         25    1    4    4    0    0  0.65328195064E+00 -0.13485391353E+02  0.20162762365E+03  0.23766255337E+03  0.12509000000E+03 0.  0.
         25    1    4    4    0    0 -0.70874323278E+02  0.18571743367E+02  0.18186218618E+03  0.23257137015E+03  0.12509000000E+03 0.  0.
<mgrwt>
<rscale>  2 0.43361903E+03</rscale>
<asrwt>0</asrwt>
<pdfrwt beam="1">  1       21 0.12401272E+00 0.43361903E+03</pdfrwt>
<pdfrwt beam="2">  1       21 0.81973335E-02 0.43361903E+03</pdfrwt>
<totfact> 0.51342509E+04</totfact>
</mgrwt>
</event>
<event>
 7    0  0.4737014E-002  0.4545809E+03  0.7546771E-02  0.1026365E+00
         21   -1    0    0  502  501  0.00000000000E+00  0.00000000000E+00  0.27327084469E+03  0.27327084469E+03  0.00000000000E+00 0. -1.
         21   -1    0    0  501  502 -0.00000000000E+00 -0.00000000000E+00 -0.18904668561E+03  0.18904668561E+03  0.00000000000E+00 0. -1.
      99926    2    1    2    0    0  0.00000000000E+00  0.00000000000E+00  0.84224159077E+02  0.46231753029E+03  0.45458089472E+03 0.  0.
      99925    2    3    3    0    0  0.69006414044E+02  0.89070345442E+02  0.49001706183E+02  0.29031886488E+03  0.26303700211E+03 0.  0.
         25    1    4    4    0    0  0.16496474751E+02  0.11245728969E+02  0.43104009573E+02  0.13380606803E+03  0.12509000000E+03 0.  0.
         25    1    3    3    0    0 -0.69006414044E+02 -0.89070345442E+02  0.35222452894E+02  0.17199866541E+03  0.12509000000E+03 0.  0.
         25    1    4    4    0    0  0.52509939293E+02  0.77824616473E+02  0.58976966105E+01  0.15651279685E+03  0.12509000000E+03 0.  0.
<mgrwt>
<rscale>  2 0.45458089E+03</rscale>
<asrwt>0</asrwt>
<pdfrwt beam="1">  1       21 0.40186889E-01 0.45458089E+03</pdfrwt>
<pdfrwt beam="2">  1       21 0.27800983E-01 0.45458089E+03</pdfrwt>
<totfact> 0.68236789E+04</totfact>
</mgrwt>
</event>
<event>
 7    0  0.4737014E-002  0.4524504E+03  0.7546771E-02  0.1026994E+00
         21   -1    0    0  502  501  0.00000000000E+00  0.00000000000E+00  0.35978732512E+03  0.35978732512E+03  0.00000000000E+00 0.  1.
         21   -1    0    0  501  502 -0.00000000000E+00 -0.00000000000E+00 -0.14224472148E+03  0.14224472148E+03  0.00000000000E+00 0.  1.
      99926    2    1    2    0    0  0.00000000000E+00  0.00000000000E+00  0.21754260364E+03  0.50203204660E+03  0.45245042979E+03 0.  0.
      99925    2    3    3    0    0 -0.69160818883E+02 -0.80026479003E+02  0.10124125850E+03  0.30113165539E+03  0.26314069477E+03 0.  0.
         25    1    4    4    0    0 -0.55920457547E+01 -0.32908487138E+02  0.16337590385E+02  0.13049392500E+03  0.12509000000E+03 0.  0.
         25    1    3    3    0    0  0.69160818883E+02  0.80026479003E+02  0.11630134513E+03  0.20090039121E+03  0.12509000000E+03 0.  0.
         25    1    4    4    0    0 -0.63568773128E+02 -0.47117991865E+02  0.84903668119E+02  0.17063773040E+03  0.12509000000E+03 0.  0.
<mgrwt>
<rscale>  2 0.45245043E+03</rscale>
<asrwt>0</asrwt>
<pdfrwt beam="1">  1       21 0.52909900E-01 0.45245043E+03</pdfrwt>
<pdfrwt beam="2">  1       21 0.20918342E-01 0.45245043E+03</pdfrwt>
<totfact> 0.66463024E+04</totfact>
</mgrwt>
</event>
<event>
 7    0  0.4737014E-002  0.4550589E+03  0.7546771E-02  0.1026224E+00
         21   -1    0    0  502  501  0.00000000000E+00  0.00000000000E+00  0.15931380452E+02  0.15931380452E+02  0.00000000000E+00 0.  1.
         21   -1    0    0  501  502 -0.00000000000E+00 -0.00000000000E+00 -0.32495398434E+04  0.32495398434E+04  0.00000000000E+00 0.  1.
      99926    2    1    2    0    0  0.00000000000E+00  0.00000000000E+00 -0.32336084630E+04  0.32654712239E+04  0.45505892164E+03 0.  0.
      99925    2    3    3    0    0  0.49654390701E+02  0.42709045713E+02 -0.13717212333E+04  0.13982376591E+04  0.26298248705E+03 0.  0.
         25    1    4    4    0    0  0.25379847218E+02  0.52882842300E+02 -0.57759855584E+03  0.59389252518E+03  0.12509000000E+03 0.  0.
         25    1    4    4    0    0  0.24274543483E+02 -0.10173796587E+02 -0.79412267744E+03  0.80434513396E+03  0.12509000000E+03 0.  0.
         25    1    3    3    0    0 -0.49654390701E+02 -0.42709045713E+02 -0.18618872297E+04  0.18672335648E+04  0.12509000000E+03 0.  0.
<mgrwt>
<rscale>  2 0.45505892E+03</rscale>
<asrwt>0</asrwt>
<pdfrwt beam="1">  1       21 0.23428489E-02 0.45505892E+03</pdfrwt>
<pdfrwt beam="2">  1       21 0.47787375E+00 0.45505892E+03</pdfrwt>
<totfact> 0.20197876E+03</totfact>
</mgrwt>
</event>
<event>
 7    0  0.4737014E-002  0.4535099E+03  0.7546771E-02  0.1026680E+00
         21   -1    0    0  502  501  0.00000000000E+00  0.00000000000E+00  0.20431673481E+03  0.20431673481E+03  0.00000000000E+00 0.  1.
         21   -1    0    0  501  502 -0.00000000000E+00 -0.00000000000E+00 -0.25165740062E+03  0.25165740062E+03  0.00000000000E+00 0.  1.
      99926    2    1    2    0    0 -0.71054273576E-14 -0.14210854715E-13 -0.47340665815E+02  0.45597413543E+03  0.45350994867E+03 0.  0.
      99925    2    3    3    0    0 -0.44937804474E+02 -0.78569530621E+02 -0.96791901979E+02  0.29384606793E+03  0.26226753886E+03 0.  0.
         25    1    4    4    0    0  0.11749658420E+02 -0.53498163851E+02 -0.33739190599E+02  0.14066253620E+03  0.12509000000E+03 0.  0.
         25    1    4    4    0    0 -0.56687462893E+02 -0.25071366770E+02 -0.63052711380E+02  0.15318353173E+03  0.12509000000E+03 0.  0.
         25    1    3    3    0    0  0.44937804474E+02  0.78569530621E+02  0.49451236164E+02  0.16212806750E+03  0.12509000000E+03 0.  0.
<mgrwt>
<rscale>  2 0.45350995E+03</rscale>
<asrwt>0</asrwt>
<pdfrwt beam="1">  1       21 0.30046579E-01 0.45350995E+03</pdfrwt>
<pdfrwt beam="2">  1       21 0.37008441E-01 0.45350995E+03</pdfrwt>
<totfact> 0.69294607E+04</totfact>
</mgrwt>
</event>
<event>
 7    0  0.4737014E-002  0.4530203E+03  0.7546771E-02  0.1026825E+00
         21   -1    0    0  502  501  0.00000000000E+00  0.00000000000E+00  0.12657881657E+03  0.12657881657E+03  0.00000000000E+00 0.  1.
         21   -1    0    0  501  502 -0.00000000000E+00 -0.00000000000E+00 -0.40533524230E+03  0.40533524230E+03  0.00000000000E+00 0.  1.
      99926    2    1    2    0    0  0.00000000000E+00  0.00000000000E+00 -0.27875642573E+03  0.53191405887E+03  0.45302033192E+03 0.  0.
      99925    2    3    3    0    0 -0.10060652267E+03  0.43457543204E+02 -0.15302909080E+03  0.32343120270E+03  0.26302016993E+03 0.  0.
         25    1    4    4    0    0 -0.59999559579E+02  0.18357368661E+02 -0.12277252157E+03  0.18616535737E+03  0.12509000000E+03 0.  0.
         25    1    3    3    0    0  0.10060652267E+03 -0.43457543204E+02 -0.12572733494E+03  0.20848285616E+03  0.12509000000E+03 0.  0.
         25    1    4    4    0    0 -0.40606963088E+02  0.25100174543E+02 -0.30256569230E+02  0.13726584533E+03  0.12509000000E+03 0.  0.
<mgrwt>
<rscale>  2 0.45302033E+03</rscale>
<asrwt>0</asrwt>
<pdfrwt beam="1">  1       21 0.18614532E-01 0.45302033E+03</pdfrwt>
<pdfrwt beam="2">  1       21 0.59608124E-01 0.45302033E+03</pdfrwt>
<totfact> 0.64075886E+04</totfact>
</mgrwt>
</event>
<event>
 7    0  0.4737014E-002  0.4478359E+03  0.7546771E-02  0.1028369E+00
         21   -1    0    0  502  501  0.00000000000E+00  0.00000000000E+00  0.72373661802E+02  0.72373661802E+02  0.00000000000E+00 0. -1.
         21   -1    0    0  501  502 -0.00000000000E+00 -0.00000000000E+00 -0.69278301695E+03  0.69278301695E+03  0.00000000000E+00 0. -1.
      99926    2    1    2    0    0  0.00000000000E+00  0.35527136788E-14 -0.62040935515E+03  0.76515667875E+03  0.44783587963E+03 0.  0.
      99925    2    3    3    0    0  0.10448637515E+03  0.19430768285E+02 -0.40971125366E+03  0.49806838732E+03  0.26251447527E+03 0.  0.
         25    1    4    4    0    0  0.91200898380E+02  0.16988033236E+02 -0.19961035965E+03  0.25317583005E+03  0.12509000000E+03 0.  0.
         25    1    3    3    0    0 -0.10448637515E+03 -0.19430768285E+02 -0.21069810149E+03  0.26708829143E+03  0.12509000000E+03 0.  0.
         25    1    4    4    0    0  0.13285476769E+02  0.24427350485E+01 -0.21010089401E+03  0.24489255728E+03  0.12509000000E+03 0.  0.
<mgrwt>
<rscale>  2 0.44783588E+03</rscale>
<asrwt>0</asrwt>
<pdfrwt beam="1">  1       21 0.10643185E-01 0.44783588E+03</pdfrwt>
<pdfrwt beam="2">  1       21 0.10187986E+00 0.44783588E+03</pdfrwt>
<totfact> 0.52380658E+04</totfact>
</mgrwt>
</event>
<event>
 7    0  0.4737014E-002  0.4494967E+03  0.7546771E-02  0.1027872E+00
         21   -1    0    0  502  501  0.00000000000E+00  0.00000000000E+00  0.81929373880E+03  0.81929373880E+03  0.00000000000E+00 0.  1.
         21   -1    0    0  501  502 -0.00000000000E+00 -0.00000000000E+00 -0.61652869347E+02  0.61652869347E+02  0.00000000000E+00 0.  1.
      99926    2    1    2    0    0 -0.26645352591E-14  0.00000000000E+00  0.75764086945E+03  0.88094660815E+03  0.44949665109E+03 0.  0.
      99925    2    3    3    0    0  0.30432185363E+01  0.68960098130E+02  0.64180334922E+03  0.69701565505E+03  0.26297248526E+03 0.  0.
         25    1    4    4    0    0 -0.27669479615E+02  0.10500723927E+02  0.34671713984E+03  0.36977851271E+03  0.12509000000E+03 0.  0.
         25    1    3    3    0    0 -0.30432185363E+01 -0.68960098130E+02  0.11583752024E+03  0.18393095310E+03  0.12509000000E+03 0.  0.
         25    1    4    4    0    0  0.30712698151E+02  0.58459374203E+02  0.29508620938E+03  0.32723714234E+03  0.12509000000E+03 0.  0.
<mgrwt>
<rscale>  2 0.44949665E+03</rscale>
<asrwt>0</asrwt>
<pdfrwt beam="1">  1       21 0.12048437E+00 0.44949665E+03</pdfrwt>
<pdfrwt beam="2">  1       21 0.90665989E-02 0.44949665E+03</pdfrwt>
<totfact> 0.46019415E+04</totfact>
</mgrwt>
</event>
<event>
 7    0  0.4737014E-002  0.4556725E+03  0.7546771E-02  0.1026044E+00
         21   -1    0    0  502  501  0.00000000000E+00  0.00000000000E+00  0.76074473163E+03  0.76074473163E+03  0.00000000000E+00 0. -1.
         21   -1    0    0  501  502 -0.00000000000E+00 -0.00000000000E+00 -0.68234933651E+02  0.68234933651E+02  0.00000000000E+00 0. -1.
      99926    2    1    2    0    0  0.00000000000E+00 -0.71054273576E-14  0.69250979798E+03  0.82897966528E+03  0.45567254158E+03 0.  0.
      99925    2    3    3    0    0  0.17981484702E+02 -0.57306654992E+02  0.61130729736E+03  0.66820422964E+03  0.26304542233E+03 0.  0.
         25    1    3    3    0    0 -0.17981484702E+02  0.57306654992E+02  0.81202500624E+02  0.16077543564E+03  0.12509000000E+03 0.  0.
         25    1    4    4    0    0  0.10076756630E+02  0.87583292919E+01  0.33155182242E+03  0.35461580394E+03  0.12509000000E+03 0.  0.
         25    1    4    4    0    0  0.79047280718E+01 -0.66064984284E+02  0.27975547494E+03  0.31358842570E+03  0.12509000000E+03 0.  0.
<mgrwt>
<rscale>  2 0.45567254E+03</rscale>
<asrwt>0</asrwt>
<pdfrwt beam="1">  1       21 0.11187422E+00 0.45567254E+03</pdfrwt>
<pdfrwt beam="2">  1       21 0.10034550E-01 0.45567254E+03</pdfrwt>
<totfact> 0.46150815E+04</totfact>
</mgrwt>
</event>
<event>
 7    0  0.4737014E-002  0.4531298E+03  0.7546771E-02  0.1026793E+00
         21   -1    0    0  502  501  0.00000000000E+00  0.00000000000E+00  0.50186822155E+03  0.50186822155E+03  0.00000000000E+00 0. -1.
         21   -1    0    0  501  502 -0.00000000000E+00 -0.00000000000E+00 -0.10228112147E+03  0.10228112147E+03  0.00000000000E+00 0. -1.
      99926    2    1    2    0    0  0.71054273576E-14  0.00000000000E+00  0.39958710007E+03  0.60414934302E+03  0.45312975860E+03 0.  0.
      99925    2    3    3    0    0 -0.47702035135E+02  0.96055690351E+02  0.29181958322E+03  0.40726479413E+03  0.26306608215E+03 0.  0.
         25    1    4    4    0    0  0.71010602050E+01  0.51382608462E+02  0.17968315868E+03  0.22499809582E+03  0.12509000000E+03 0.  0.
         25    1    4    4    0    0 -0.54803095340E+02  0.44673081889E+02  0.11213642455E+03  0.18226669831E+03  0.12509000000E+03 0.  0.
         25    1    3    3    0    0  0.47702035135E+02 -0.96055690351E+02  0.10776751685E+03  0.19688454889E+03  0.12509000000E+03 0.  0.
<mgrwt>
<rscale>  2 0.45312976E+03</rscale>
<asrwt>0</asrwt>
<pdfrwt beam="1">  1       21 0.73804149E-01 0.45312976E+03</pdfrwt>
<pdfrwt beam="2">  1       21 0.15041342E-01 0.45312976E+03</pdfrwt>
<totfact> 0.59294846E+04</totfact>
</mgrwt>
</event>
<event>
 7    0  0.4737014E-002  0.4422045E+03  0.7546771E-02  0.1030073E+00
         21   -1    0    0  502  501  0.00000000000E+00  0.00000000000E+00  0.10409083015E+03  0.10409083015E+03  0.00000000000E+00 0. -1.
         21   -1    0    0  501  502 -0.00000000000E+00 -0.00000000000E+00 -0.46964946635E+03  0.46964946635E+03  0.00000000000E+00 0. -1.
      99926    2    1    2    0    0  0.00000000000E+00 -0.14210854715E-13 -0.36555863619E+03  0.57374029650E+03  0.44220449040E+03 0.  0.
      99925    2    3    3    0    0  0.65565377009E+02 -0.69427538969E+02 -0.19117072851E+03  0.33884105794E+03  0.26296009826E+03 0.  0.
         25    1    4    4    0    0  0.71585233519E+02 -0.27063072978E+02 -0.11415638443E+03  0.18583875748E+03  0.12509000000E+03 0.  0.
         25    1    3    3    0    0 -0.65565377009E+02  0.69427538969E+02 -0.17438790768E+03  0.23489923856E+03  0.12509000000E+03 0.  0.
         25    1    4    4    0    0 -0.60198565093E+01 -0.42364465991E+02 -0.77014344079E+02  0.15300230046E+03  0.12509000000E+03 0.  0.
<mgrwt>
<rscale>  2 0.44220449E+03</rscale>
<asrwt>0</asrwt>
<pdfrwt beam="1">  1       21 0.15307475E-01 0.44220449E+03</pdfrwt>
<pdfrwt beam="2">  1       21 0.69066099E-01 0.44220449E+03</pdfrwt>
<totfact> 0.66833776E+04</totfact>
</mgrwt>
</event>
<event>
 7    0  0.4737014E-002  0.4494612E+03  0.7546771E-02  0.1027883E+00
         21   -1    0    0  502  501  0.00000000000E+00  0.00000000000E+00  0.20902599816E+03  0.20902599816E+03  0.00000000000E+00 0.  1.
         21   -1    0    0  501  502 -0.00000000000E+00 -0.00000000000E+00 -0.24161517327E+03  0.24161517327E+03  0.00000000000E+00 0.  1.
      99926    2    1    2    0    0 -0.17763568394E-14  0.00000000000E+00 -0.32589175112E+02  0.45064117143E+03  0.44946124533E+03 0.  0.
      99925    2    3    3    0    0  0.99094072746E+01 -0.37979726746E+02 -0.12166465665E+03  0.29214004996E+03  0.26268396243E+03 0.  0.
         25    1    4    4    0    0  0.42654300657E+02 -0.13391757255E+02 -0.74624992802E+02  0.15236510814E+03  0.12509000000E+03 0.  0.
         25    1    3    3    0    0 -0.99094072746E+01  0.37979726746E+02  0.89075481536E+02  0.15850112147E+03  0.12509000000E+03 0.  0.
         25    1    4    4    0    0 -0.32744893382E+02 -0.24587969492E+02 -0.47039663846E+02  0.13977494182E+03  0.12509000000E+03 0.  0.
<mgrwt>
<rscale>  2 0.44946125E+03</rscale>
<asrwt>0</asrwt>
<pdfrwt beam="1">  1       21 0.30739117E-01 0.44946125E+03</pdfrwt>
<pdfrwt beam="2">  1       21 0.35531643E-01 0.44946125E+03</pdfrwt>
<totfact> 0.71995781E+04</totfact>
</mgrwt>
</event>
<event>
 7    0  0.4737014E-002  0.4540521E+03  0.7546771E-02  0.1026521E+00
         21   -1    0    0  502  501  0.00000000000E+00  0.00000000000E+00  0.16997804494E+03  0.16997804494E+03  0.00000000000E+00 0. -1.
         21   -1    0    0  501  502 -0.00000000000E+00 -0.00000000000E+00 -0.30322043724E+03  0.30322043724E+03  0.00000000000E+00 0. -1.
      99926    2    1    2    0    0 -0.17763568394E-14  0.00000000000E+00 -0.13324239229E+03  0.47319848218E+03  0.45405205476E+03 0.  0.
      99925    2    3    3    0    0  0.94689172905E+01  0.32750812674E+02  0.27667752665E+02  0.26655420092E+03  0.26291322022E+03 0.  0.
         25    1    3    3    0    0 -0.94689172905E+01 -0.32750812674E+02 -0.16091014496E+03  0.20664428126E+03  0.12509000000E+03 0.  0.
         25    1    4    4    0    0 -0.17623425475E+02  0.47495946679E+02  0.87980363676E+00  0.13496196587E+03  0.12509000000E+03 0.  0.
         25    1    4    4    0    0  0.27092342765E+02 -0.14745134005E+02  0.26787949029E+02  0.13159223505E+03  0.12509000000E+03 0.  0.
<mgrwt>
<rscale>  2 0.45405205E+03</rscale>
<asrwt>0</asrwt>
<pdfrwt beam="1">  1       21 0.24996772E-01 0.45405205E+03</pdfrwt>
<pdfrwt beam="2">  1       21 0.44591240E-01 0.45405205E+03</pdfrwt>
<totfact> 0.67706528E+04</totfact>
</mgrwt>
</event>
<event>
 7    0  0.4737014E-002  0.4547254E+03  0.7546771E-02  0.1026322E+00
         21   -1    0    0  502  501  0.00000000000E+00  0.00000000000E+00  0.20079058766E+03  0.20079058766E+03  0.00000000000E+00 0.  1.
         21   -1    0    0  501  502 -0.00000000000E+00 -0.00000000000E+00 -0.25745132508E+03  0.25745132508E+03  0.00000000000E+00 0.  1.
      99926    2    1    2    0    0  0.00000000000E+00  0.00000000000E+00 -0.56660737425E+02  0.45824191274E+03  0.45472542421E+03 0.  0.
      99925    2    3    3    0    0 -0.44461890753E+01  0.98614912418E+02  0.19627462048E+02  0.28157254067E+03  0.26296993905E+03 0.  0.
         25    1    3    3    0    0  0.44461890753E+01 -0.98614912418E+02 -0.76288199472E+02  0.17666937207E+03  0.12509000000E+03 0.  0.
         25    1    4    4    0    0  0.20346264251E+01  0.41402910272E+02  0.49312918945E+02  0.14070398985E+03  0.12509000000E+03 0.  0.
         25    1    4    4    0    0 -0.64808155004E+01  0.57212002146E+02 -0.29685456898E+02  0.14086855082E+03  0.12509000000E+03 0.  0.
<mgrwt>
<rscale>  2 0.45472542E+03</rscale>
<asrwt>0</asrwt>
<pdfrwt beam="1">  1       21 0.29528028E-01 0.45472542E+03</pdfrwt>
<pdfrwt beam="2">  1       21 0.37860489E-01 0.45472542E+03</pdfrwt>
<totfact> 0.68458631E+04</totfact>
</mgrwt>
</event>
<event>
 7    0  0.4737014E-002  0.4553858E+03  0.7546771E-02  0.1026128E+00
         21   -1    0    0  502  501  0.00000000000E+00  0.00000000000E+00  0.46836705809E+03  0.46836705809E+03  0.00000000000E+00 0. -1.
         21   -1    0    0  501  502 -0.00000000000E+00 -0.00000000000E+00 -0.11069107919E+03  0.11069107919E+03  0.00000000000E+00 0. -1.
      99926    2    1    2    0    0  0.00000000000E+00  0.00000000000E+00  0.35767597890E+03  0.57905813728E+03  0.45538579300E+03 0.  0.
      99925    2    3    3    0    0 -0.37234034382E+02 -0.10231665713E+03  0.17911208032E+03  0.33536233178E+03  0.26178556992E+03 0.  0.
         25    1    3    3    0    0  0.37234034382E+02  0.10231665713E+03  0.17856389858E+03  0.24369580550E+03  0.12509000000E+03 0.  0.
         25    1    4    4    0    0 -0.47581977976E+02 -0.51941147530E+02  0.61691897458E+02  0.15625404234E+03  0.12509000000E+03 0.  0.
         25    1    4    4    0    0  0.10347943594E+02 -0.50375509599E+02  0.11742018286E+03  0.17910828944E+03  0.12509000000E+03 0.  0.
<mgrwt>
<rscale>  2 0.45538579E+03</rscale>
<asrwt>0</asrwt>
<pdfrwt beam="1">  1       21 0.68877508E-01 0.45538579E+03</pdfrwt>
<pdfrwt beam="2">  1       21 0.16278100E-01 0.45538579E+03</pdfrwt>
<totfact> 0.59803559E+04</totfact>
</mgrwt>
</event>
<event>
 7    0  0.4737014E-002  0.4516818E+03  0.7546771E-02  0.1027222E+00
         21   -1    0    0  502  501  0.00000000000E+00  0.00000000000E+00  0.14084596704E+02  0.14084596704E+02  0.00000000000E+00 0.  1.
         21   -1    0    0  501  502 -0.00000000000E+00 -0.00000000000E+00 -0.36212686681E+04  0.36212686681E+04  0.00000000000E+00 0.  1.
      99926    2    1    2    0    0  0.00000000000E+00  0.00000000000E+00 -0.36071840714E+04  0.36353532648E+04  0.45168178510E+03 0.  0.
      99925    2    3    3    0    0  0.99280739128E+02  0.46809052234E+02 -0.23287160715E+04  0.23460993382E+04  0.26308897787E+03 0.  0.
         25    1    4    4    0    0  0.77746835639E+02  0.56357324656E+02 -0.13165691076E+04  0.13259798044E+04  0.12509000000E+03 0.  0.
         25    1    4    4    0    0  0.21533903489E+02 -0.95482724226E+01 -0.10121469640E+04  0.10201195338E+04  0.12509000000E+03 0.  0.
         25    1    3    3    0    0 -0.99280739128E+02 -0.46809052234E+02 -0.12784679999E+04  0.12892539266E+04  0.12509000000E+03 0.  0.
<mgrwt>
<rscale>  2 0.45168179E+03</rscale>
<asrwt>0</asrwt>
<pdfrwt beam="1">  1       21 0.20712608E-02 0.45168179E+03</pdfrwt>
<pdfrwt beam="2">  1       21 0.53254040E+00 0.45168179E+03</pdfrwt>
<totfact> 0.10066855E+03</totfact>
</mgrwt>
</event>
<event>
 7    0  0.4737014E-002  0.4571631E+03  0.7546771E-02  0.1025607E+00
         21   -1    0    0  502  501  0.00000000000E+00  0.00000000000E+00  0.53738597564E+02  0.53738597564E+02  0.00000000000E+00 0.  1.
         21   -1    0    0  501  502 -0.00000000000E+00 -0.00000000000E+00 -0.97229065569E+03  0.97229065569E+03  0.00000000000E+00 0.  1.
      99926    2    1    2    0    0  0.00000000000E+00  0.00000000000E+00 -0.91855205813E+03  0.10260292533E+04  0.45716314926E+03 0.  0.
      99925    2    3    3    0    0 -0.96245394934E+02 -0.58867789922E+02 -0.62861835754E+03  0.69071201306E+03  0.26304648413E+03 0.  0.
         25    1    3    3    0    0  0.96245394934E+02  0.58867789922E+02 -0.28993370058E+03  0.33531724019E+03  0.12509000000E+03 0.  0.
         25    1    4    4    0    0 -0.13512659495E+02 -0.47868884395E+02 -0.26517783340E+03  0.29739000233E+03  0.12509000000E+03 0.  0.
         25    1    4    4    0    0 -0.82732735439E+02 -0.10998905527E+02 -0.36344052414E+03  0.39332201073E+03  0.12509000000E+03 0.  0.
<mgrwt>
<rscale>  2 0.45716315E+03</rscale>
<asrwt>0</asrwt>
<pdfrwt beam="1">  1       21 0.79027356E-02 0.45716315E+03</pdfrwt>
<pdfrwt beam="2">  1       21 0.14298391E+00 0.45716315E+03</pdfrwt>
<totfact> 0.37531569E+04</totfact>
</mgrwt>
</event>
<event>
 7    0  0.4737014E-002  0.4585133E+03  0.7546771E-02  0.1025213E+00
         21   -1    0    0  502  501  0.00000000000E+00  0.00000000000E+00  0.32971502184E+02  0.32971502184E+02  0.00000000000E+00 0.  1.
         21   -1    0    0  501  502 -0.00000000000E+00 -0.00000000000E+00 -0.15940619435E+04  0.15940619435E+04  0.00000000000E+00 0.  1.
      99926    2    1    2    0    0  0.00000000000E+00  0.35527136788E-14 -0.15610904414E+04  0.16270334457E+04  0.45851332305E+03 0.  0.
      99925    2    3    3    0    0 -0.11901289579E+02 -0.28912085287E+02 -0.58118414635E+03  0.63868057126E+03  0.26298348003E+03 0.  0.
         25    1    4    4    0    0 -0.98365878853E-02  0.25332415327E+02 -0.26422219083E+03  0.29343245490E+03  0.12509000000E+03 0.  0.
         25    1    4    4    0    0 -0.11891452991E+02 -0.54244500613E+02 -0.31696195552E+03  0.34524811636E+03  0.12509000000E+03 0.  0.
         25    1    3    3    0    0  0.11901289579E+02  0.28912085287E+02 -0.97990629501E+03  0.98835287447E+03  0.12509000000E+03 0.  0.
<mgrwt>
<rscale>  2 0.45851332E+03</rscale>
<asrwt>0</asrwt>
<pdfrwt beam="1">  1       21 0.48487518E-02 0.45851332E+03</pdfrwt>
<pdfrwt beam="2">  1       21 0.23442080E+00 0.45851332E+03</pdfrwt>
<totfact> 0.20267193E+04</totfact>
</mgrwt>
</event>
<event>
 7    0  0.4737014E-002  0.4564604E+03  0.7546771E-02  0.1025813E+00
         21   -1    0    0  502  501  0.00000000000E+00  0.00000000000E+00  0.10360263177E+04  0.10360263177E+04  0.00000000000E+00 0. -1.
         21   -1    0    0  501  502 -0.00000000000E+00 -0.00000000000E+00 -0.50277708842E+02  0.50277708842E+02  0.00000000000E+00 0. -1.
      99926    2    1    2    0    0  0.88817841970E-15  0.00000000000E+00  0.98574860891E+03  0.10863040266E+04  0.45646042350E+03 0.  0.
      99925    2    3    3    0    0  0.69825513376E+01  0.10910539731E+03  0.53399525114E+03  0.60497113960E+03  0.26246220254E+03 0.  0.
         25    1    4    4    0    0  0.98644799350E+01  0.39420083885E+02  0.17860078941E+03  0.22180396988E+03  0.12509000000E+03 0.  0.
         25    1    3    3    0    0 -0.69825513376E+01 -0.10910539731E+03  0.45175335777E+03  0.48133288700E+03  0.12509000000E+03 0.  0.
         25    1    4    4    0    0 -0.28819285973E+01  0.69685313427E+02  0.35539446173E+03  0.38316716972E+03  0.12509000000E+03 0.  0.
<mgrwt>
<rscale>  2 0.45646042E+03</rscale>
<asrwt>0</asrwt>
<pdfrwt beam="1">  1       21 0.15235680E+00 0.45646042E+03</pdfrwt>
<pdfrwt beam="2">  1       21 0.73937814E-02 0.45646042E+03</pdfrwt>
<totfact> 0.35565803E+04</totfact>
</mgrwt>
</event>
<event>
 7    0  0.4737014E-002  0.4468617E+03  0.7546771E-02  0.1028662E+00
         21   -1    0    0  502  501  0.00000000000E+00  0.00000000000E+00  0.21856429002E+03  0.21856429002E+03  0.00000000000E+00 0. -1.
         21   -1    0    0  501  502 -0.00000000000E+00 -0.00000000000E+00 -0.22840578402E+03  0.22840578402E+03  0.00000000000E+00 0. -1.
      99926    2    1    2    0    0  0.00000000000E+00  0.00000000000E+00 -0.98414939998E+01  0.44697007405E+03  0.44686171473E+03 0.  0.
      99925    2    3    3    0    0  0.27760049412E+02  0.75707614146E+02  0.61524532587E+02  0.28191589799E+03  0.26303810037E+03 0.  0.
         25    1    4    4    0    0 -0.13142858406E+02  0.64591672828E+01  0.20082437296E+02  0.12753535963E+03  0.12509000000E+03 0.  0.
         25    1    4    4    0    0  0.40902907818E+02  0.69248446863E+02  0.41442095291E+02  0.15438053836E+03  0.12509000000E+03 0.  0.
         25    1    3    3    0    0 -0.27760049412E+02 -0.75707614146E+02 -0.71366026587E+02  0.16505417606E+03  0.12509000000E+03 0.  0.
<mgrwt>
<rscale>  2 0.44686171E+03</rscale>
<asrwt>0</asrwt>
<pdfrwt beam="1">  1       21 0.32141808E-01 0.44686171E+03</pdfrwt>
<pdfrwt beam="2">  1       21 0.33589086E-01 0.44686171E+03</pdfrwt>
<totfact> 0.73816166E+04</totfact>
</mgrwt>
</event>
<event>
 7    0  0.4737014E-002  0.4552855E+03  0.7546771E-02  0.1026157E+00
         21   -1    0    0  502  501  0.00000000000E+00  0.00000000000E+00  0.70870408702E+02  0.70870408702E+02  0.00000000000E+00 0. -1.
         21   -1    0    0  501  502 -0.00000000000E+00 -0.00000000000E+00 -0.73121102552E+03  0.73121102552E+03  0.00000000000E+00 0. -1.
      99926    2    1    2    0    0 -0.88817841970E-15  0.00000000000E+00 -0.66034061682E+03  0.80208143422E+03  0.45528551141E+03 0.  0.
      99925    2    3    3    0    0  0.57736237180E+01  0.83496266552E+02 -0.55037832067E+03  0.61568353742E+03  0.26295429475E+03 0.  0.
         25    1    4    4    0    0  0.18096277394E+02  0.46411859456E+02 -0.19549668111E+03  0.23737732912E+03  0.12509000000E+03 0.  0.
         25    1    4    4    0    0 -0.12322653676E+02  0.37084407095E+02 -0.35488163956E+03  0.37830620830E+03  0.12509000000E+03 0.  0.
         25    1    3    3    0    0 -0.57736237180E+01 -0.83496266552E+02 -0.10996229615E+03  0.18639789681E+03  0.12509000000E+03 0.  0.
<mgrwt>
<rscale>  2 0.45528551E+03</rscale>
<asrwt>0</asrwt>
<pdfrwt beam="1">  1       21 0.10422119E-01 0.45528551E+03</pdfrwt>
<pdfrwt beam="2">  1       21 0.10753104E+00 0.45528551E+03</pdfrwt>
<totfact> 0.47557646E+04</totfact>
</mgrwt>
</event>
<event>
 7    0  0.4737014E-002  0.4452374E+03  0.7546771E-02  0.1029152E+00
         21   -1    0    0  502  501  0.00000000000E+00  0.00000000000E+00  0.59200729555E+02  0.59200729555E+02  0.00000000000E+00 0. -1.
         21   -1    0    0  501  502 -0.00000000000E+00 -0.00000000000E+00 -0.83713652580E+03  0.83713652580E+03  0.00000000000E+00 0. -1.
      99926    2    1    2    0    0 -0.71054273576E-14  0.00000000000E+00 -0.77793579625E+03  0.89633725536E+03  0.44523743358E+03 0.  0.
      99925    2    3    3    0    0  0.40880739399E+02  0.43804360362E+02 -0.66449199453E+03  0.71715282219E+03  0.26299905464E+03 0.  0.
         25    1    3    3    0    0 -0.40880739399E+02 -0.43804360362E+02 -0.11344380172E+03  0.17918443317E+03  0.12509000000E+03 0.  0.
         25    1    4    4    0    0  0.42502899122E+02  0.32439960915E+02 -0.43176363578E+03  0.45268774313E+03  0.12509000000E+03 0.  0.
         25    1    4    4    0    0 -0.16221597225E+01  0.11364399447E+02 -0.23272835875E+03  0.26446507906E+03  0.12509000000E+03 0.  0.
<mgrwt>
<rscale>  2 0.44523743E+03</rscale>
<asrwt>0</asrwt>
<pdfrwt beam="1">  1       21 0.87059900E-02 0.44523743E+03</pdfrwt>
<pdfrwt beam="2">  1       21 0.12310831E+00 0.44523743E+03</pdfrwt>
<totfact> 0.46872944E+04</totfact>
</mgrwt>
</event>
<event>
 7    0  0.4737014E-002  0.4609973E+03  0.7546771E-02  0.1024492E+00
         21   -1    0    0  502  501  0.00000000000E+00  0.00000000000E+00  0.36159936400E+02  0.36159936400E+02  0.00000000000E+00 0.  1.
         21   -1    0    0  501  502 -0.00000000000E+00 -0.00000000000E+00 -0.14692952945E+04  0.14692952945E+04  0.00000000000E+00 0.  1.
      99926    2    1    2    0    0  0.00000000000E+00  0.00000000000E+00 -0.14331353581E+04  0.15054552309E+04  0.46099728590E+03 0.  0.
      99925    2    3    3    0    0 -0.68892549511E+02 -0.76808470539E+02 -0.70713272986E+03  0.76156474915E+03  0.26324597810E+03 0.  0.
         25    1    4    4    0    0 -0.15227805102E+02 -0.28784755313E+01 -0.27503599416E+03  0.30254334872E+03  0.12509000000E+03 0.  0.
         25    1    4    4    0    0 -0.53664744409E+02 -0.73929995007E+02 -0.43209673569E+03  0.45902140043E+03  0.12509000000E+03 0.  0.
         25    1    3    3    0    0  0.68892549511E+02  0.76808470539E+02 -0.72600262824E+03  0.74389048175E+03  0.12509000000E+03 0.  0.
<mgrwt>
<rscale>  2 0.46099729E+03</rscale>
<asrwt>0</asrwt>
<pdfrwt beam="1">  1       21 0.53176393E-02 0.46099729E+03</pdfrwt>
<pdfrwt beam="2">  1       21 0.21607277E+00 0.46099729E+03</pdfrwt>
<totfact> 0.22575680E+04</totfact>
</mgrwt>
</event>
<event>
 7    0  0.4737014E-002  0.4537793E+03  0.7546771E-02  0.1026601E+00
         21   -1    0    0  502  501  0.00000000000E+00  0.00000000000E+00  0.45510619016E+03  0.45510619016E+03  0.00000000000E+00 0.  1.
         21   -1    0    0  501  502 -0.00000000000E+00 -0.00000000000E+00 -0.11311408565E+03  0.11311408565E+03  0.00000000000E+00 0.  1.
      99926    2    1    2    0    0  0.00000000000E+00  0.00000000000E+00  0.34199210452E+03  0.56822027581E+03  0.45377933216E+03 0.  0.
      99925    2    3    3    0    0  0.10516865538E+03 -0.30672782850E+02  0.24450966238E+03  0.37547277179E+03  0.26304669106E+03 0.  0.
         25    1    4    4    0    0  0.64999850534E+02 -0.44576973933E+02  0.93988130413E+02  0.17519521664E+03  0.12509000000E+03 0.  0.
         25    1    4    4    0    0  0.40168804845E+02  0.13904191083E+02  0.15052153197E+03  0.20027755515E+03  0.12509000000E+03 0.  0.
         25    1    3    3    0    0 -0.10516865538E+03  0.30672782850E+02  0.97482442135E+02  0.19274750402E+03  0.12509000000E+03 0.  0.
<mgrwt>
<rscale>  2 0.45377933E+03</rscale>
<asrwt>0</asrwt>
<pdfrwt beam="1">  1       21 0.66927380E-01 0.45377933E+03</pdfrwt>
<pdfrwt beam="2">  1       21 0.16634425E-01 0.45377933E+03</pdfrwt>
<totfact> 0.61267609E+04</totfact>
</mgrwt>
</event>
<event>
 7    0  0.4737014E-002  0.4470903E+03  0.7546771E-02  0.1028593E+00
         21   -1    0    0  502  501  0.00000000000E+00  0.00000000000E+00  0.12820934017E+03  0.12820934017E+03  0.00000000000E+00 0.  1.
         21   -1    0    0  501  502 -0.00000000000E+00 -0.00000000000E+00 -0.38977219169E+03  0.38977219169E+03  0.00000000000E+00 0.  1.
      99926    2    1    2    0    0  0.00000000000E+00  0.71054273576E-14 -0.26156285152E+03  0.51798153186E+03  0.44709030637E+03 0.  0.
      99925    2    3    3    0    0  0.73122953965E+02 -0.53891342128E+02 -0.10330938462E+03  0.29675108404E+03  0.26293941085E+03 0.  0.
         25    1    4    4    0    0 -0.46225264207E+01 -0.25917363793E+02 -0.55901371430E+02  0.13951899127E+03  0.12509000000E+03 0.  0.
         25    1    4    4    0    0  0.77745480386E+02 -0.27973978334E+02 -0.47408013189E+02  0.15723209278E+03  0.12509000000E+03 0.  0.
         25    1    3    3    0    0 -0.73122953965E+02  0.53891342128E+02 -0.15825346690E+03  0.22123044781E+03  0.12509000000E+03 0.  0.
<mgrwt>
<rscale>  2 0.44709031E+03</rscale>
<asrwt>0</asrwt>
<pdfrwt beam="1">  1       21 0.18854315E-01 0.44709031E+03</pdfrwt>
<pdfrwt beam="2">  1       21 0.57319439E-01 0.44709031E+03</pdfrwt>
<totfact> 0.68205011E+04</totfact>
</mgrwt>
</event>
<event>
 7    0  0.4737014E-002  0.4420380E+03  0.7546771E-02  0.1030123E+00
         21   -1    0    0  502  501  0.00000000000E+00  0.00000000000E+00  0.97292342415E+03  0.97292342415E+03  0.00000000000E+00 0.  1.
         21   -1    0    0  501  502 -0.00000000000E+00 -0.00000000000E+00 -0.50208891206E+02  0.50208891206E+02  0.00000000000E+00 0.  1.
      99926    2    1    2    0    0  0.00000000000E+00  0.00000000000E+00  0.92271453294E+03  0.10231323154E+04  0.44203803617E+03 0.  0.
      99925    2    3    3    0    0  0.54480798644E+01 -0.27657190146E+02  0.81018333707E+03  0.85252932627E+03  0.26384580864E+03 0.  0.
         25    1    3    3    0    0 -0.54480798644E+01  0.27657190146E+02  0.11253119587E+03  0.17060298908E+03  0.12509000000E+03 0.  0.
         25    1    4    4    0    0  0.16914081264E+02 -0.13925036514E+02  0.27932218614E+03  0.30683608744E+03  0.12509000000E+03 0.  0.
         25    1    4    4    0    0 -0.11466001400E+02 -0.13732153633E+02  0.53086115093E+03  0.54569323883E+03  0.12509000000E+03 0.  0.
<mgrwt>
<rscale>  2 0.44203804E+03</rscale>
<asrwt>0</asrwt>
<pdfrwt beam="1">  1       21 0.14307696E+00 0.44203804E+03</pdfrwt>
<pdfrwt beam="2">  1       21 0.73836611E-02 0.44203804E+03</pdfrwt>
<totfact> 0.42411126E+04</totfact>
</mgrwt>
</event>
<event>
 7    0  0.4737014E-002  0.4594042E+03  0.7546771E-02  0.1024954E+00
         21   -1    0    0  502  501  0.00000000000E+00  0.00000000000E+00  0.86475163564E+02  0.86475163564E+02  0.00000000000E+00 0.  1.
         21   -1    0    0  501  502 -0.00000000000E+00 -0.00000000000E+00 -0.61015260415E+03  0.61015260415E+03  0.00000000000E+00 0.  1.
      99926    2    1    2    0    0  0.00000000000E+00  0.00000000000E+00 -0.52367744059E+03  0.69662776771E+03  0.45940416299E+03 0.  0.
      99925    2    3    3    0    0 -0.10340790350E+03  0.41716991049E+02 -0.38363942874E+03  0.47824357710E+03  0.26287678846E+03 0.  0.
         25    1    4    4    0    0 -0.87168973463E+01  0.13774945822E+02 -0.17365450012E+03  0.21463719842E+03  0.12509000000E+03 0.  0.
         25    1    3    3    0    0  0.10340790350E+03 -0.41716991049E+02 -0.14003801185E+03  0.21838419061E+03  0.12509000000E+03 0.  0.
         25    1    4    4    0    0 -0.94691006149E+02  0.27942045226E+02 -0.20998492862E+03  0.26360637868E+03  0.12509000000E+03 0.  0.
<mgrwt>
<rscale>  2 0.45940416E+03</rscale>
<asrwt>0</asrwt>
<pdfrwt beam="1">  1       21 0.12716936E-01 0.45940416E+03</pdfrwt>
<pdfrwt beam="2">  1       21 0.89728325E-01 0.45940416E+03</pdfrwt>
<totfact> 0.51285453E+04</totfact>
</mgrwt>
</event>
<event>
 7    0  0.4737014E-002  0.4579466E+03  0.7546771E-02  0.1025378E+00
         21   -1    0    0  502  501  0.00000000000E+00  0.00000000000E+00  0.23422589790E+03  0.23422589790E+03  0.00000000000E+00 0.  1.
         21   -1    0    0  501  502 -0.00000000000E+00 -0.00000000000E+00 -0.22383851386E+03  0.22383851386E+03  0.00000000000E+00 0.  1.
      99926    2    1    2    0    0  0.00000000000E+00  0.00000000000E+00  0.10387384041E+02  0.45806441177E+03  0.45794662089E+03 0.  0.
      99925    2    3    3    0    0  0.94655999722E+02 -0.19807112128E+02  0.70435773163E+02  0.28893311038E+03  0.26300012197E+03 0.  0.
         25    1    3    3    0    0 -0.94655999722E+02  0.19807112128E+02 -0.60048389122E+02  0.16913130139E+03  0.12509000000E+03 0.  0.
         25    1    4    4    0    0  0.30783933751E+02 -0.23897077205E+02  0.69726586589E+02  0.14841841481E+03  0.12509000000E+03 0.  0.
         25    1    4    4    0    0  0.63872065971E+02  0.40899650778E+01  0.70918657355E+00  0.14051469557E+03  0.12509000000E+03 0.  0.
<mgrwt>
<rscale>  2 0.45794662E+03</rscale>
<asrwt>0</asrwt>
<pdfrwt beam="1">  1       21 0.34444985E-01 0.45794662E+03</pdfrwt>
<pdfrwt beam="2">  1       21 0.32917428E-01 0.45794662E+03</pdfrwt>
<totfact> 0.66738932E+04</totfact>
</mgrwt>
</event>
<event>
 7    0  0.4737014E-002  0.4462440E+03  0.7546771E-02  0.1028848E+00
         21   -1    0    0  502  501  0.00000000000E+00  0.00000000000E+00  0.81827631101E+02  0.81827631101E+02  0.00000000000E+00 0. -1.
         21   -1    0    0  501  502 -0.00000000000E+00 -0.00000000000E+00 -0.60839396233E+03  0.60839396233E+03  0.00000000000E+00 0. -1.
      99926    2    1    2    0    0  0.00000000000E+00  0.00000000000E+00 -0.52656633123E+03  0.69022159343E+03  0.44624404406E+03 0.  0.
      99925    2    3    3    0    0  0.60277839497E+02  0.71114675430E+02 -0.25986065961E+03  0.38123916938E+03  0.26291638759E+03 0.  0.
         25    1    4    4    0    0  0.18655097321E+02  0.27182058319E+02 -0.73533969192E+02  0.14880063735E+03  0.12509000000E+03 0.  0.
         25    1    3    3    0    0 -0.60277839497E+02 -0.71114675430E+02 -0.26670567162E+03  0.30898242405E+03  0.12509000000E+03 0.  0.
         25    1    4    4    0    0  0.41622742176E+02  0.43932617112E+02 -0.18632669041E+03  0.23243853203E+03  0.12509000000E+03 0.  0.
<mgrwt>
<rscale>  2 0.44624404E+03</rscale>
<asrwt>0</asrwt>
<pdfrwt beam="1">  1       21 0.12033475E-01 0.44624404E+03</pdfrwt>
<pdfrwt beam="2">  1       21 0.89469699E-01 0.44624404E+03</pdfrwt>
<totfact> 0.57284569E+04</totfact>
</mgrwt>
</event>
<event>
 7    0  0.4737014E-002  0.4473699E+03  0.7546771E-02  0.1028509E+00
         21   -1    0    0  502  501  0.00000000000E+00  0.00000000000E+00  0.92689049674E+03  0.92689049674E+03  0.00000000000E+00 0.  1.
         21   -1    0    0  501  502 -0.00000000000E+00 -0.00000000000E+00 -0.53981517043E+02  0.53981517043E+02  0.00000000000E+00 0.  1.
      99926    2    1    2    0    0  0.00000000000E+00  0.00000000000E+00  0.87290897969E+03  0.98087201378E+03  0.44736989236E+03 0.  0.
      99925    2    3    3    0    0  0.79617698113E+02  0.56388721028E+02  0.64173701397E+03  0.70050323601E+03  0.26336234136E+03 0.  0.
         25    1    4    4    0    0  0.76887885562E+02  0.27886500374E+02  0.39626520433E+03  0.42351272013E+03  0.12509000000E+03 0.  0.
         25    1    4    4    0    0  0.27298125511E+01  0.28502220654E+02  0.24547180965E+03  0.27699051588E+03  0.12509000000E+03 0.  0.
         25    1    3    3    0    0 -0.79617698113E+02 -0.56388721028E+02  0.23117196572E+03  0.28036877777E+03  0.12509000000E+03 0.  0.
<mgrwt>
<rscale>  2 0.44736989E+03</rscale>
<asrwt>0</asrwt>
<pdfrwt beam="1">  1       21 0.13630742E+00 0.44736989E+03</pdfrwt>
<pdfrwt beam="2">  1       21 0.79384590E-02 0.44736989E+03</pdfrwt>
<totfact> 0.42387377E+04</totfact>
</mgrwt>
</event>
<event>
 7    0  0.4737014E-002  0.4513817E+03  0.7546771E-02  0.1027311E+00
         21   -1    0    0  502  501  0.00000000000E+00  0.00000000000E+00  0.67962150923E+03  0.67962150923E+03  0.00000000000E+00 0.  1.
         21   -1    0    0  501  502 -0.00000000000E+00 -0.00000000000E+00 -0.74948139244E+02  0.74948139244E+02  0.00000000000E+00 0.  1.
      99926    2    1    2    0    0  0.00000000000E+00 -0.71054273576E-14  0.60467336999E+03  0.75456964848E+03  0.45138173427E+03 0.  0.
      99925    2    3    3    0    0 -0.92639301449E+02 -0.54236583434E+02  0.41950736125E+03  0.50666320232E+03  0.26305422879E+03 0.  0.
         25    1    3    3    0    0  0.92639301449E+02  0.54236583434E+02  0.18516600873E+03  0.24790644616E+03  0.12509000000E+03 0.  0.
         25    1    4    4    0    0 -0.70664523600E+02 -0.53005055319E+02  0.27078148888E+03  0.31108380479E+03  0.12509000000E+03 0.  0.
         25    1    4    4    0    0 -0.21974777849E+02 -0.12315281151E+01  0.14872587238E+03  0.19557939753E+03  0.12509000000E+03 0.  0.
<mgrwt>
<rscale>  2 0.45138173E+03</rscale>
<asrwt>0</asrwt>
<pdfrwt beam="1">  1       21 0.99944336E-01 0.45138173E+03</pdfrwt>
<pdfrwt beam="2">  1       21 0.11021786E-01 0.45138173E+03</pdfrwt>
<totfact> 0.51486781E+04</totfact>
</mgrwt>
</event>
<event>
 7    0  0.4737014E-002  0.4464605E+03  0.7546771E-02  0.1028783E+00
         21   -1    0    0  502  501  0.00000000000E+00  0.00000000000E+00  0.65847350369E+03  0.65847350369E+03  0.00000000000E+00 0. -1.
         21   -1    0    0  501  502 -0.00000000000E+00 -0.00000000000E+00 -0.75677677899E+02  0.75677677899E+02  0.00000000000E+00 0. -1.
      99926    2    1    2    0    0 -0.71054273576E-14  0.00000000000E+00  0.58279582579E+03  0.73415118158E+03  0.44646050539E+03 0.  0.
      99925    2    3    3    0    0 -0.62053500677E+02  0.51174855583E+02  0.48049461992E+03  0.55364481712E+03  0.26301711154E+03 0.  0.
         25    1    3    3    0    0  0.62053500677E+02 -0.51174855583E+02  0.10230120587E+03  0.18050636447E+03  0.12509000000E+03 0.  0.
         25    1    4    4    0    0 -0.72431791893E+02  0.28786962770E+02  0.26685797088E+03  0.30485363443E+03  0.12509000000E+03 0.  0.
         25    1    4    4    0    0  0.10378291216E+02  0.22387892813E+02  0.21363664903E+03  0.24879118269E+03  0.12509000000E+03 0.  0.
<mgrwt>
<rscale>  2 0.44646051E+03</rscale>
<asrwt>0</asrwt>
<pdfrwt beam="1">  1       21 0.96834336E-01 0.44646051E+03</pdfrwt>
<pdfrwt beam="2">  1       21 0.11129071E-01 0.44646051E+03</pdfrwt>
<totfact> 0.54666747E+04</totfact>
</mgrwt>
</event>
<event>
 7    0  0.4737014E-002  0.4511413E+03  0.7546771E-02  0.1027382E+00
         21   -1    0    0  502  501  0.00000000000E+00  0.00000000000E+00  0.23604441436E+03  0.23604441436E+03  0.00000000000E+00 0.  1.
         21   -1    0    0  501  502 -0.00000000000E+00 -0.00000000000E+00 -0.21556165507E+03  0.21556165507E+03  0.00000000000E+00 0.  1.
      99926    2    1    2    0    0  0.00000000000E+00  0.44408920985E-15  0.20482759283E+02  0.45160606943E+03  0.45114132876E+03 0.  0.
      99925    2    3    3    0    0  0.55311644217E+02  0.30920740360E+01  0.10746575340E+03  0.28948732199E+03  0.26303057338E+03 0.  0.
         25    1    4    4    0    0 -0.92200475091E+01 -0.30102341249E+01  0.70139607323E+02  0.14373984625E+03  0.12509000000E+03 0.  0.
         25    1    3    3    0    0 -0.55311644217E+02 -0.30920740360E+01 -0.86982994113E+02  0.16211874744E+03  0.12509000000E+03 0.  0.
         25    1    4    4    0    0  0.64531691727E+02  0.61023081609E+01  0.37326146073E+02  0.14574747573E+03  0.12509000000E+03 0.  0.
<mgrwt>
<rscale>  2 0.45114133E+03</rscale>
<asrwt>0</asrwt>
<pdfrwt beam="1">  1       21 0.34712414E-01 0.45114133E+03</pdfrwt>
<pdfrwt beam="2">  1       21 0.31700243E-01 0.45114133E+03</pdfrwt>
<totfact> 0.70954679E+04</totfact>
</mgrwt>
</event>
<event>
 7    0  0.4737014E-002  0.4406511E+03  0.7546771E-02  0.1030547E+00
         21   -1    0    0  502  501  0.00000000000E+00  0.00000000000E+00  0.11825341824E+03  0.11825341824E+03  0.00000000000E+00 0.  1.
         21   -1    0    0  501  502 -0.00000000000E+00 -0.00000000000E+00 -0.41050261742E+03  0.41050261742E+03  0.00000000000E+00 0.  1.
      99926    2    1    2    0    0  0.00000000000E+00  0.00000000000E+00 -0.29224919918E+03  0.52875603566E+03  0.44065105335E+03 0.  0.
      99925    2    3    3    0    0 -0.56780748901E+02 -0.57438547941E+02 -0.11724112223E+03  0.29897662985E+03  0.26290360252E+03 0.  0.
         25    1    3    3    0    0  0.56780748901E+02  0.57438547941E+02 -0.17500807696E+03  0.22977940581E+03  0.12509000000E+03 0.  0.
         25    1    4    4    0    0 -0.41427976079E+02 -0.46611497184E+02 -0.23966948487E+02  0.14181266372E+03  0.12509000000E+03 0.  0.
         25    1    4    4    0    0 -0.15352772822E+02 -0.10827050757E+02 -0.93274173740E+02  0.15716396613E+03  0.12509000000E+03 0.  0.
<mgrwt>
<rscale>  2 0.44065105E+03</rscale>
<asrwt>0</asrwt>
<pdfrwt beam="1">  1       21 0.17390209E-01 0.44065105E+03</pdfrwt>
<pdfrwt beam="2">  1       21 0.60368031E-01 0.44065105E+03</pdfrwt>
<totfact> 0.71022477E+04</totfact>
</mgrwt>
</event>
<event>
 7    0  0.4737014E-002  0.4656353E+03  0.7546771E-02  0.1023159E+00
         21   -1    0    0  502  501  0.00000000000E+00  0.00000000000E+00  0.15906296767E+03  0.15906296767E+03  0.00000000000E+00 0.  1.
         21   -1    0    0  501  502 -0.00000000000E+00 -0.00000000000E+00 -0.34077104075E+03  0.34077104075E+03  0.00000000000E+00 0.  1.
      99926    2    1    2    0    0  0.71054273576E-14 -0.35527136788E-14 -0.18170807308E+03  0.49983400842E+03  0.46563527803E+03 0.  0.
      99925    2    3    3    0    0 -0.60833211772E+02  0.12005142869E+01  0.11339167256E+01  0.27009323662E+03  0.26314815183E+03 0.  0.
         25    1    4    4    0    0 -0.14010885949E+02 -0.35933662379E+02 -0.81231033695E+01  0.13115268173E+03  0.12509000000E+03 0.  0.
         25    1    3    3    0    0  0.60833211772E+02 -0.12005142869E+01 -0.18284198981E+03  0.22974077180E+03  0.12509000000E+03 0.  0.
         25    1    4    4    0    0 -0.46822325823E+02  0.37134176666E+02  0.92570200951E+01  0.13894055489E+03  0.12509000000E+03 0.  0.
<mgrwt>
<rscale>  2 0.46563528E+03</rscale>
<asrwt>0</asrwt>
<pdfrwt beam="1">  1       21 0.23391613E-01 0.46563528E+03</pdfrwt>
<pdfrwt beam="2">  1       21 0.50113388E-01 0.46563528E+03</pdfrwt>
<totfact> 0.60049984E+04</totfact>
</mgrwt>
</event>
<event>
 7    0  0.4737014E-002  0.4561305E+03  0.7546771E-02  0.1025909E+00
         21   -1    0    0  502  501  0.00000000000E+00  0.00000000000E+00  0.34994999365E+03  0.34994999365E+03  0.00000000000E+00 0. -1.
         21   -1    0    0  501  502 -0.00000000000E+00 -0.00000000000E+00 -0.14863194742E+03  0.14863194742E+03  0.00000000000E+00 0. -1.
      99926    2    1    2    0    0  0.00000000000E+00  0.00000000000E+00  0.20131804623E+03  0.49858194106E+03  0.45613045965E+03 0.  0.
      99925    2    3    3    0    0 -0.20519755270E+02 -0.91967607522E+02  0.55898590598E+02  0.28486851761E+03  0.26295687613E+03 0.  0.
         25    1    4    4    0    0 -0.13375257093E+02 -0.29033770501E+02  0.64635378313E+02  0.14438524011E+03  0.12509000000E+03 0.  0.
         25    1    4    4    0    0 -0.71444981771E+01 -0.62933837021E+02 -0.87367877154E+01  0.14048327750E+03  0.12509000000E+03 0.  0.
         25    1    3    3    0    0  0.20519755270E+02  0.91967607522E+02  0.14541945563E+03  0.21371342346E+03  0.12509000000E+03 0.  0.
<mgrwt>
<rscale>  2 0.45613046E+03</rscale>
<asrwt>0</asrwt>
<pdfrwt beam="1">  1       21 0.51463234E-01 0.45613046E+03</pdfrwt>
<pdfrwt beam="2">  1       21 0.21857639E-01 0.45613046E+03</pdfrwt>
<totfact> 0.64787049E+04</totfact>
</mgrwt>
</event>
<event>
 7    0  0.4737014E-002  0.4551368E+03  0.7546771E-02  0.1026201E+00
         21   -1    0    0  502  501  0.00000000000E+00  0.00000000000E+00  0.13137735691E+03  0.13137735691E+03  0.00000000000E+00 0.  1.
         21   -1    0    0  501  502 -0.00000000000E+00 -0.00000000000E+00 -0.39418800959E+03  0.39418800959E+03  0.00000000000E+00 0.  1.
      99926    2    1    2    0    0 -0.71054273576E-14  0.00000000000E+00 -0.26281065268E+03  0.52556536651E+03  0.45513680944E+03 0.  0.
      99925    2    3    3    0    0  0.62662115364E+02 -0.31128301285E+02 -0.62404081192E+02  0.27917986807E+03  0.26296695143E+03 0.  0.
         25    1    3    3    0    0 -0.62662115364E+02  0.31128301285E+02 -0.20040657149E+03  0.24638549843E+03  0.12509000000E+03 0.  0.
         25    1    4    4    0    0  0.34465459603E+01 -0.14695482724E+02  0.11508561145E+01  0.12600265260E+03  0.12509000000E+03 0.  0.
         25    1    4    4    0    0  0.59215569404E+02 -0.16432818560E+02 -0.63554937306E+02  0.15317721548E+03  0.12509000000E+03 0.  0.
<mgrwt>
<rscale>  2 0.45513681E+03</rscale>
<asrwt>0</asrwt>
<pdfrwt beam="1">  1       21 0.19320200E-01 0.45513681E+03</pdfrwt>
<pdfrwt beam="2">  1       21 0.57968824E-01 0.45513681E+03</pdfrwt>
<totfact> 0.63438892E+04</totfact>
</mgrwt>
</event>
<event>
 7    0  0.4737014E-002  0.4532369E+03  0.7546771E-02  0.1026761E+00
         21   -1    0    0  502  501  0.00000000000E+00  0.00000000000E+00  0.67462460889E+02  0.67462460889E+02  0.00000000000E+00 0.  1.
         21   -1    0    0  501  502 -0.00000000000E+00 -0.00000000000E+00 -0.76125188706E+03  0.76125188706E+03  0.00000000000E+00 0.  1.
      99926    2    1    2    0    0  0.00000000000E+00  0.00000000000E+00 -0.69378942617E+03  0.82871434795E+03  0.45323691667E+03 0.  0.
      99925    2    3    3    0    0 -0.90191764525E+02  0.50372485212E+02 -0.51408990690E+03  0.58661650207E+03  0.26298012561E+03 0.  0.
         25    1    4    4    0    0 -0.91265955739E+01  0.36886165090E+02 -0.20400371931E+03  0.24229921485E+03  0.12509000000E+03 0.  0.
         25    1    3    3    0    0  0.90191764525E+02 -0.50372485212E+02 -0.17969951928E+03  0.24209784589E+03  0.12509000000E+03 0.  0.
         25    1    4    4    0    0 -0.81065168951E+02  0.13486320121E+02 -0.31008618758E+03  0.34431728722E+03  0.12509000000E+03 0.  0.
<mgrwt>
<rscale>  2 0.45323692E+03</rscale>
<asrwt>0</asrwt>
<pdfrwt beam="1">  1       21 0.99209504E-02 0.45323692E+03</pdfrwt>
<pdfrwt beam="2">  1       21 0.11194880E+00 0.45323692E+03</pdfrwt>
<totfact> 0.47054642E+04</totfact>
</mgrwt>
</event>
<event>
 7    0  0.4737014E-002  0.4476994E+03  0.7546771E-02  0.1028410E+00
         21   -1    0    0  502  501  0.00000000000E+00  0.00000000000E+00  0.89163756071E+03  0.89163756071E+03  0.00000000000E+00 0. -1.
         21   -1    0    0  501  502 -0.00000000000E+00 -0.00000000000E+00 -0.56198500093E+02  0.56198500093E+02  0.00000000000E+00 0. -1.
      99926    2    1    2    0    0  0.00000000000E+00 -0.44408920985E-15  0.83543906062E+03  0.94783606081E+03  0.44769942390E+03 0.  0.
      99925    2    3    3    0    0 -0.83276822430E+02 -0.21413407732E+01  0.66874438115E+03  0.72339399978E+03  0.26294527397E+03 0.  0.
         25    1    3    3    0    0  0.83276822430E+02  0.21413407732E+01  0.16669467947E+03  0.22444206103E+03  0.12509000000E+03 0.  0.
         25    1    4    4    0    0 -0.51846929038E+02  0.15568725365E+02  0.24824562937E+03  0.28320291288E+03  0.12509000000E+03 0.  0.
         25    1    4    4    0    0 -0.31429893392E+02 -0.17710066138E+02  0.42049875178E+03  0.44019108691E+03  0.12509000000E+03 0.  0.
<mgrwt>
<rscale>  2 0.44769942E+03</rscale>
<asrwt>0</asrwt>
<pdfrwt beam="1">  1       21 0.13112316E+00 0.44769942E+03</pdfrwt>
<pdfrwt beam="2">  1       21 0.82644859E-02 0.44769942E+03</pdfrwt>
<totfact> 0.43668792E+04</totfact>
</mgrwt>
</event>
<event>
 7    0  0.4737014E-002  0.4141445E+03  0.7546771E-02  0.1038989E+00
         21   -1    0    0  502  501  0.00000000000E+00  0.00000000000E+00  0.21156483307E+03  0.21156483307E+03  0.00000000000E+00 0. -1.
         21   -1    0    0  501  502 -0.00000000000E+00 -0.00000000000E+00 -0.20267508797E+03  0.20267508797E+03  0.00000000000E+00 0. -1.
      99926    2    1    2    0    0  0.00000000000E+00  0.71054273576E-14  0.88897451026E+01  0.41423992104E+03  0.41414452141E+03 0.  0.
      99925    2    3    3    0    0  0.46399811057E+02 -0.36478180435E+02 -0.28209501315E+02  0.27103565330E+03  0.26302271628E+03 0.  0.
         25    1    4    4    0    0  0.27204654844E+02 -0.49915768354E+02  0.11068702154E+02  0.13784665916E+03  0.12509000000E+03 0.  0.
         25    1    4    4    0    0  0.19195156212E+02  0.13437587919E+02 -0.39278203469E+02  0.13318899414E+03  0.12509000000E+03 0.  0.
         25    1    3    3    0    0 -0.46399811057E+02  0.36478180435E+02  0.37099246417E+02  0.14320426774E+03  0.12509000000E+03 0.  0.
<mgrwt>
<rscale>  2 0.41414452E+03</rscale>
<asrwt>0</asrwt>
<pdfrwt beam="1">  1       21 0.31112475E-01 0.41414452E+03</pdfrwt>
<pdfrwt beam="2">  1       21 0.29805160E-01 0.41414452E+03</pdfrwt>
<totfact> 0.10066846E+05</totfact>
</mgrwt>
</event>
<event>
 7    0  0.4737014E-002  0.4535520E+03  0.7546771E-02  0.1026668E+00
         21   -1    0    0  502  501  0.00000000000E+00  0.00000000000E+00  0.74886905688E+03  0.74886905688E+03  0.00000000000E+00 0. -1.
         21   -1    0    0  501  502 -0.00000000000E+00 -0.00000000000E+00 -0.68673366081E+02  0.68673366081E+02  0.00000000000E+00 0. -1.
      99926    2    1    2    0    0  0.00000000000E+00  0.00000000000E+00  0.68019569079E+03  0.81754242296E+03  0.45355202079E+03 0.  0.
      99925    2    3    3    0    0 -0.19419161729E+02  0.72427501403E+02  0.57807533992E+03  0.63950051507E+03  0.26299612801E+03 0.  0.
         25    1    3    3    0    0  0.19419161729E+02 -0.72427501403E+02  0.10212035088E+03  0.17804190789E+03  0.12509000000E+03 0.  0.
         25    1    4    4    0    0 -0.29250533462E+02  0.49548883972E+02  0.22157172750E+03  0.26086821221E+03  0.12509000000E+03 0.  0.
         25    1    4    4    0    0  0.98313717330E+01  0.22878617430E+02  0.35650361241E+03  0.37863230286E+03  0.12509000000E+03 0.  0.
<mgrwt>
<rscale>  2 0.45355202E+03</rscale>
<asrwt>0</asrwt>
<pdfrwt beam="1">  1       21 0.11012780E+00 0.45355202E+03</pdfrwt>
<pdfrwt beam="2">  1       21 0.10099025E-01 0.45355202E+03</pdfrwt>
<totfact> 0.47464992E+04</totfact>
</mgrwt>
</event>
<event>
 7    0  0.4737014E-002  0.4484543E+03  0.7546771E-02  0.1028184E+00
         21   -1    0    0  502  501  0.00000000000E+00  0.00000000000E+00  0.59407514790E+03  0.59407514790E+03  0.00000000000E+00 0. -1.
         21   -1    0    0  501  502 -0.00000000000E+00 -0.00000000000E+00 -0.84632060680E+02  0.84632060680E+02  0.00000000000E+00 0. -1.
      99926    2    1    2    0    0  0.00000000000E+00  0.00000000000E+00  0.50944308722E+03  0.67870720858E+03  0.44845425169E+03 0.  0.
      99925    2    3    3    0    0 -0.40806517303E+02  0.56161882367E+02  0.44418197782E+03  0.52146265578E+03  0.26420890044E+03 0.  0.
         25    1    3    3    0    0  0.40806517303E+02 -0.56161882367E+02  0.65261109409E+02  0.15724455280E+03  0.12509000000E+03 0.  0.
         25    1    4    4    0    0 -0.44493074860E+02  0.42095448123E+02  0.29504873106E+03  0.32627124033E+03  0.12509000000E+03 0.  0.
         25    1    4    4    0    0  0.36865575567E+01  0.14066434244E+02  0.14913324675E+03  0.19519141545E+03  0.12509000000E+03 0.  0.
<mgrwt>
<rscale>  2 0.44845425E+03</rscale>
<asrwt>0</asrwt>
<pdfrwt beam="1">  1       21 0.87363990E-01 0.44845425E+03</pdfrwt>
<pdfrwt beam="2">  1       21 0.12445892E-01 0.44845425E+03</pdfrwt>
<totfact> 0.56954134E+04</totfact>
</mgrwt>
</event>
<event>
 7    0  0.4737014E-002  0.4551292E+03  0.7546771E-02  0.1026203E+00
         21   -1    0    0  502  501  0.00000000000E+00  0.00000000000E+00  0.65612032269E+02  0.65612032269E+02  0.00000000000E+00 0.  1.
         21   -1    0    0  501  502 -0.00000000000E+00 -0.00000000000E+00 -0.78927062641E+03  0.78927062641E+03  0.00000000000E+00 0.  1.
      99926    2    1    2    0    0 -0.35527136788E-14  0.00000000000E+00 -0.72365859414E+03  0.85488265868E+03  0.45512921158E+03 0.  0.
      99925    2    3    3    0    0  0.24335173921E+02 -0.10508768113E+03 -0.52030571456E+03  0.59289883637E+03  0.26301211409E+03 0.  0.
         25    1    3    3    0    0 -0.24335173921E+02  0.10508768113E+03 -0.20335287958E+03  0.26198382231E+03  0.12509000000E+03 0.  0.
         25    1    4    4    0    0  0.32855405620E+02 -0.19460202988E+02 -0.20915844638E+03  0.24668388876E+03  0.12509000000E+03 0.  0.
         25    1    4    4    0    0 -0.85202316991E+01 -0.85627478141E+02 -0.31114726817E+03  0.34621494762E+03  0.12509000000E+03 0.  0.
<mgrwt>
<rscale>  2 0.45512921E+03</rscale>
<asrwt>0</asrwt>
<pdfrwt beam="1">  1       21 0.96488289E-02 0.45512921E+03</pdfrwt>
<pdfrwt beam="2">  1       21 0.11606920E+00 0.45512921E+03</pdfrwt>
<totfact> 0.45175932E+04</totfact>
</mgrwt>
</event>
<event>
 7    0  0.4737014E-002  0.4362281E+03  0.7546771E-02  0.1031910E+00
         21   -1    0    0  502  501  0.00000000000E+00  0.00000000000E+00  0.11227393806E+03  0.11227393806E+03  0.00000000000E+00 0.  1.
         21   -1    0    0  501  502 -0.00000000000E+00 -0.00000000000E+00 -0.42372908310E+03  0.42372908310E+03  0.00000000000E+00 0.  1.
      99926    2    1    2    0    0  0.14210854715E-13 -0.35527136788E-14 -0.31145514504E+03  0.53600302116E+03  0.43622807260E+03 0.  0.
      99925    2    3    3    0    0 -0.70796981351E+02 -0.17943312835E+02 -0.27316776572E+03  0.38617776775E+03  0.26301799375E+03 0.  0.
         25    1    3    3    0    0  0.70796981351E+02  0.17943312835E+02 -0.38287379323E+02  0.14982525341E+03  0.12509000000E+03 0.  0.
         25    1    4    4    0    0 -0.36511646733E+02 -0.48499366500E+02 -0.12592082341E+03  0.18758691523E+03  0.12509000000E+03 0.  0.
         25    1    4    4    0    0 -0.34285334618E+02  0.30556053665E+02 -0.14724694231E+03  0.19859085252E+03  0.12509000000E+03 0.  0.
<mgrwt>
<rscale>  2 0.43622807E+03</rscale>
<asrwt>0</asrwt>
<pdfrwt beam="1">  1       21 0.16510873E-01 0.43622807E+03</pdfrwt>
<pdfrwt beam="2">  1       21 0.62313101E-01 0.43622807E+03</pdfrwt>
<totfact> 0.73066508E+04</totfact>
</mgrwt>
</event>
<event>
 7    0  0.4737014E-002  0.4504178E+03  0.7546771E-02  0.1027598E+00
         21   -1    0    0  502  501  0.00000000000E+00  0.00000000000E+00  0.25326299735E+04  0.25326299735E+04  0.00000000000E+00 0.  1.
         21   -1    0    0  501  502 -0.00000000000E+00 -0.00000000000E+00 -0.20026238298E+02  0.20026238298E+02  0.00000000000E+00 0.  1.
      99926    2    1    2    0    0  0.00000000000E+00  0.00000000000E+00  0.25126037352E+04  0.25526562118E+04  0.45041781213E+03 0.  0.
      99925    2    3    3    0    0 -0.38346100317E+02 -0.65344347451E+02  0.20305044717E+04  0.20488630845E+04  0.26296619980E+03 0.  0.
         25    1    3    3    0    0  0.38346100317E+02  0.65344347451E+02  0.48209926347E+03  0.50379312728E+03  0.12509000000E+03 0.  0.
         25    1    4    4    0    0  0.49158628418E+01 -0.96816568038E+01  0.76455923651E+03  0.77480077079E+03  0.12509000000E+03 0.  0.
         25    1    4    4    0    0 -0.43261963159E+02 -0.55662690647E+02  0.12659452352E+04  0.12740623137E+04  0.12509000000E+03 0.  0.
<mgrwt>
<rscale>  2 0.45041781E+03</rscale>
<asrwt>0</asrwt>
<pdfrwt beam="1">  1       21 0.37244536E+00 0.45041781E+03</pdfrwt>
<pdfrwt beam="2">  1       21 0.29450368E-02 0.45041781E+03</pdfrwt>
<totfact> 0.68487527E+03</totfact>
</mgrwt>
</event>
<event>
 7    0  0.4737014E-002  0.4355893E+03  0.7546771E-02  0.1032109E+00
         21   -1    0    0  502  501  0.00000000000E+00  0.00000000000E+00  0.14725421844E+04  0.14725421844E+04  0.00000000000E+00 0.  1.
         21   -1    0    0  501  502 -0.00000000000E+00 -0.00000000000E+00 -0.32212670898E+02  0.32212670898E+02  0.00000000000E+00 0.  1.
      99926    2    1    2    0    0  0.00000000000E+00  0.00000000000E+00  0.14403295135E+04  0.15047548553E+04  0.43558933306E+03 0.  0.
      99925    2    3    3    0    0  0.19857721443E+02  0.20541854842E+02  0.61469161549E+03  0.66920608734E+03  0.26301085202E+03 0.  0.
         25    1    4    4    0    0  0.21988257073E+01 -0.10158225867E+02  0.38897401907E+03  0.40872523778E+03  0.12509000000E+03 0.  0.
         25    1    3    3    0    0 -0.19857721443E+02 -0.20541854842E+02  0.82563789802E+03  0.83554876797E+03  0.12509000000E+03 0.  0.
         25    1    4    4    0    0  0.17658895735E+02  0.30700080708E+02  0.22571759642E+03  0.26048084956E+03  0.12509000000E+03 0.  0.
<mgrwt>
<rscale>  2 0.43558933E+03</rscale>
<asrwt>0</asrwt>
<pdfrwt beam="1">  1       21 0.21655028E+00 0.43558933E+03</pdfrwt>
<pdfrwt beam="2">  1       21 0.47371585E-02 0.43558933E+03</pdfrwt>
<totfact> 0.27594778E+04</totfact>
</mgrwt>
</event>
<event>
 7    0  0.4737014E-002  0.4542508E+03  0.7546771E-02  0.1026462E+00
         21   -1    0    0  502  501  0.00000000000E+00  0.00000000000E+00  0.32816337242E+02  0.32816337242E+02  0.00000000000E+00 0. -1.
         21   -1    0    0  501  502 -0.00000000000E+00 -0.00000000000E+00 -0.15719591454E+04  0.15719591454E+04  0.00000000000E+00 0. -1.
      99926    2    1    2    0    0  0.14210854715E-13  0.00000000000E+00 -0.15391428082E+04  0.16047754827E+04  0.45425077412E+03 0.  0.
      99925    2    3    3    0    0 -0.85933582464E+02  0.72383163164E+02 -0.95588638230E+03  0.99776685890E+03  0.26305137508E+03 0.  0.
         25    1    4    4    0    0 -0.53327750272E+02  0.71499521148E+02 -0.59159055505E+03  0.61121430235E+03  0.12509000000E+03 0.  0.
         25    1    3    3    0    0  0.85933582464E+02 -0.72383163164E+02 -0.58325642589E+03  0.60700862379E+03  0.12509000000E+03 0.  0.
         25    1    4    4    0    0 -0.32605832192E+02  0.88364201598E+00 -0.36429582726E+03  0.38655255655E+03  0.12509000000E+03 0.  0.
<mgrwt>
<rscale>  2 0.45425077E+03</rscale>
<asrwt>0</asrwt>
<pdfrwt beam="1">  1       21 0.48259305E-02 0.45425077E+03</pdfrwt>
<pdfrwt beam="2">  1       21 0.23117053E+00 0.45425077E+03</pdfrwt>
<totfact> 0.21446575E+04</totfact>
</mgrwt>
</event>
<event>
 7    0  0.4737014E-002  0.4543799E+03  0.7546771E-02  0.1026424E+00
         21   -1    0    0  502  501  0.00000000000E+00  0.00000000000E+00  0.10298919694E+04  0.10298919694E+04  0.00000000000E+00 0. -1.
         21   -1    0    0  501  502 -0.00000000000E+00 -0.00000000000E+00 -0.50117178716E+02  0.50117178716E+02  0.00000000000E+00 0. -1.
      99926    2    1    2    0    0  0.00000000000E+00  0.00000000000E+00  0.97977479066E+03  0.10800091481E+04  0.45437992864E+03 0.  0.
      99925    2    3    3    0    0  0.80336091607E+02 -0.78748441065E+02  0.61361225130E+03  0.67704796148E+03  0.26309455072E+03 0.  0.
         25    1    3    3    0    0 -0.80336091607E+02  0.78748441065E+02  0.36616253936E+03  0.40296118661E+03  0.12509000000E+03 0.  0.
         25    1    4    4    0    0  0.47920117933E+02 -0.80645285014E+01  0.35370305453E+03  0.37830507954E+03  0.12509000000E+03 0.  0.
         25    1    4    4    0    0  0.32415973674E+02 -0.70683912564E+02  0.25990919677E+03  0.29874288194E+03  0.12509000000E+03 0.  0.
<mgrwt>
<rscale>  2 0.45437993E+03</rscale>
<asrwt>0</asrwt>
<pdfrwt beam="1">  1       21 0.15145469E+00 0.45437993E+03</pdfrwt>
<pdfrwt beam="2">  1       21 0.73701740E-02 0.45437993E+03</pdfrwt>
<totfact> 0.36370813E+04</totfact>
</mgrwt>
</event>
<event>
 7    0  0.4737014E-002  0.4577296E+03  0.7546771E-02  0.1025442E+00
         21   -1    0    0  502  501  0.00000000000E+00  0.00000000000E+00  0.16749473109E+03  0.16749473109E+03  0.00000000000E+00 0. -1.
         21   -1    0    0  501  502 -0.00000000000E+00 -0.00000000000E+00 -0.31272082091E+03  0.31272082091E+03  0.00000000000E+00 0. -1.
      99926    2    1    2    0    0  0.00000000000E+00  0.00000000000E+00 -0.14522608981E+03  0.48021555200E+03  0.45772956997E+03 0.  0.
      99925    2    3    3    0    0 -0.74211050684E+02 -0.83193421159E+02 -0.58306093457E+02  0.29145374645E+03  0.26290161738E+03 0.  0.
         25    1    3    3    0    0  0.74211050684E+02  0.83193421159E+02 -0.86919996354E+02  0.18876180555E+03  0.12509000000E+03 0.  0.
         25    1    4    4    0    0 -0.49874837045E+02 -0.33944065496E+02  0.89679745874E+01  0.13916763855E+03  0.12509000000E+03 0.  0.
         25    1    4    4    0    0 -0.24336213639E+02 -0.49249355663E+02 -0.67274068044E+02  0.15228610790E+03  0.12509000000E+03 0.  0.
<mgrwt>
<rscale>  2 0.45772957E+03</rscale>
<asrwt>0</asrwt>
<pdfrwt beam="1">  1       21 0.24631578E-01 0.45772957E+03</pdfrwt>
<pdfrwt beam="2">  1       21 0.45988356E-01 0.45772957E+03</pdfrwt>
<totfact> 0.65259083E+04</totfact>
</mgrwt>
</event>
<event>
 7    0  0.4737014E-002  0.4531107E+03  0.7546771E-02  0.1026798E+00
         21   -1    0    0  502  501  0.00000000000E+00  0.00000000000E+00  0.15514318690E+03  0.15514318690E+03  0.00000000000E+00 0. -1.
         21   -1    0    0  501  502 -0.00000000000E+00 -0.00000000000E+00 -0.33083843042E+03  0.33083843042E+03  0.00000000000E+00 0. -1.
      99926    2    1    2    0    0  0.00000000000E+00  0.00000000000E+00 -0.17569524352E+03  0.48598161732E+03  0.45311070808E+03 0.  0.
      99925    2    3    3    0    0  0.84448125451E+02 -0.72047656596E+02 -0.10122481225E+03  0.30290867026E+03  0.26303012981E+03 0.  0.
         25    1    4    4    0    0  0.26661481317E+02 -0.59164592748E+02 -0.19710201580E+02  0.14229295052E+03  0.12509000000E+03 0.  0.
         25    1    3    3    0    0 -0.84448125451E+02  0.72047656596E+02 -0.74470431267E+02  0.18307294706E+03  0.12509000000E+03 0.  0.
         25    1    4    4    0    0  0.57786644134E+02 -0.12883063848E+02 -0.81514610672E+02  0.16061571974E+03  0.12509000000E+03 0.  0.
<mgrwt>
<rscale>  2 0.45311071E+03</rscale>
<asrwt>0</asrwt>
<pdfrwt beam="1">  1       21 0.22815175E-01 0.45311071E+03</pdfrwt>
<pdfrwt beam="2">  1       21 0.48652709E-01 0.45311071E+03</pdfrwt>
<totfact> 0.67270488E+04</totfact>
</mgrwt>
</event>
<event>
 7    0  0.4737014E-002  0.4595783E+03  0.7546771E-02  0.1024904E+00
         21   -1    0    0  502  501  0.00000000000E+00  0.00000000000E+00  0.69697383098E+02  0.69697383098E+02  0.00000000000E+00 0. -1.
         21   -1    0    0  501  502 -0.00000000000E+00 -0.00000000000E+00 -0.75760459306E+03  0.75760459306E+03  0.00000000000E+00 0. -1.
      99926    2    1    2    0    0  0.00000000000E+00 -0.71054273576E-14 -0.68790720996E+03  0.82730197616E+03  0.45957831785E+03 0.  0.
      99925    2    3    3    0    0  0.78139293637E+02  0.49349167096E+02 -0.30064538814E+03  0.40997678372E+03  0.26296810505E+03 0.  0.
         25    1    3    3    0    0 -0.78139293637E+02 -0.49349167096E+02 -0.38726182182E+03  0.41732519244E+03  0.12509000000E+03 0.  0.
         25    1    4    4    0    0  0.96712514168E+01  0.45532913569E+02 -0.17339760313E+03  0.21881731237E+03  0.12509000000E+03 0.  0.
         25    1    4    4    0    0  0.68468042220E+02  0.38162535270E+01 -0.12724778501E+03  0.19115947135E+03  0.12509000000E+03 0.  0.
<mgrwt>
<rscale>  2 0.45957832E+03</rscale>
<asrwt>0</asrwt>
<pdfrwt beam="1">  1       21 0.10249615E-01 0.45957832E+03</pdfrwt>
<pdfrwt beam="2">  1       21 0.11141244E+00 0.45957832E+03</pdfrwt>
<totfact> 0.44839833E+04</totfact>
</mgrwt>
</event>
<event>
 7    0  0.4737014E-002  0.4593922E+03  0.7546771E-02  0.1024958E+00
         21   -1    0    0  502  501  0.00000000000E+00  0.00000000000E+00  0.29668539262E+03  0.29668539262E+03  0.00000000000E+00 0. -1.
         21   -1    0    0  501  502 -0.00000000000E+00 -0.00000000000E+00 -0.17783245526E+03  0.17783245526E+03  0.00000000000E+00 0. -1.
      99926    2    1    2    0    0  0.00000000000E+00  0.35527136788E-14  0.11885293736E+03  0.47451784788E+03  0.45939217150E+03 0.  0.
      99925    2    3    3    0    0  0.10982379915E+03  0.18171316105E+02  0.11248915412E+03  0.30694855049E+03  0.26300596811E+03 0.  0.
         25    1    3    3    0    0 -0.10982379915E+03 -0.18171316105E+02  0.63637832382E+01  0.16756929739E+03  0.12509000000E+03 0.  0.
         25    1    4    4    0    0  0.55796665135E+02  0.48417278071E+02  0.46306690528E+02  0.15247727156E+03  0.12509000000E+03 0.  0.
         25    1    4    4    0    0  0.54027134017E+02 -0.30245961966E+02  0.66182463597E+02  0.15447127893E+03  0.12509000000E+03 0.  0.
<mgrwt>
<rscale>  2 0.45939217E+03</rscale>
<asrwt>0</asrwt>
<pdfrwt beam="1">  1       21 0.43630205E-01 0.45939217E+03</pdfrwt>
<pdfrwt beam="2">  1       21 0.26151832E-01 0.45939217E+03</pdfrwt>
<totfact> 0.64813148E+04</totfact>
</mgrwt>
</event>
<event>
 7    0  0.4737014E-002  0.4291180E+03  0.7546771E-02  0.1034139E+00
         21   -1    0    0  502  501  0.00000000000E+00  0.00000000000E+00  0.34301640451E+03  0.34301640451E+03  0.00000000000E+00 0. -1.
         21   -1    0    0  501  502 -0.00000000000E+00 -0.00000000000E+00 -0.13420805943E+03  0.13420805943E+03  0.00000000000E+00 0. -1.
      99926    2    1    2    0    0  0.44408920985E-15  0.00000000000E+00  0.20880834508E+03  0.47722446394E+03  0.42911800709E+03 0.  0.
      99925    2    3    3    0    0  0.33512722400E+01  0.70419010303E+02  0.19070320046E+03  0.33249930234E+03  0.26309315338E+03 0.  0.
         25    1    4    4    0    0  0.26250772916E+02  0.15725353389E+02  0.59834613814E+02  0.14200027792E+03  0.12509000000E+03 0.  0.
         25    1    3    3    0    0 -0.33512722400E+01 -0.70419010303E+02  0.18105144617E+02  0.14472516160E+03  0.12509000000E+03 0.  0.
         25    1    4    4    0    0 -0.22899500676E+02  0.54693656913E+02  0.13086858664E+03  0.19049902443E+03  0.12509000000E+03 0.  0.
<mgrwt>
<rscale>  2 0.42911801E+03</rscale>
<asrwt>0</asrwt>
<pdfrwt beam="1">  1       21 0.50443589E-01 0.42911801E+03</pdfrwt>
<pdfrwt beam="2">  1       21 0.19736479E-01 0.42911801E+03</pdfrwt>
<totfact> 0.82616225E+04</totfact>
</mgrwt>
</event>
<event>
 7    0  0.4737014E-002  0.4507477E+03  0.7546771E-02  0.1027499E+00
         21   -1    0    0  502  501  0.00000000000E+00  0.00000000000E+00  0.12174510985E+03  0.12174510985E+03  0.00000000000E+00 0. -1.
         21   -1    0    0  501  502 -0.00000000000E+00 -0.00000000000E+00 -0.41721080284E+03  0.41721080284E+03  0.00000000000E+00 0. -1.
      99926    2    1    2    0    0  0.00000000000E+00  0.00000000000E+00 -0.29546569299E+03  0.53895591269E+03  0.45074771225E+03 0.  0.
      99925    2    3    3    0    0 -0.49107242414E+02  0.80529249837E+02 -0.25256273823E+03  0.37652237871E+03  0.26283965376E+03 0.  0.
         25    1    4    4    0    0  0.55000279105E+01  0.28505869619E+02 -0.83862469902E+02  0.15337293395E+03  0.12509000000E+03 0.  0.
         25    1    4    4    0    0 -0.54607270325E+02  0.52023380219E+02 -0.16870026833E+03  0.22314944476E+03  0.12509000000E+03 0.  0.
         25    1    3    3    0    0  0.49107242414E+02 -0.80529249837E+02 -0.42902954757E+02  0.16243353399E+03  0.12509000000E+03 0.  0.
<mgrwt>
<rscale>  2 0.45074771E+03</rscale>
<asrwt>0</asrwt>
<pdfrwt beam="1">  1       21 0.17903693E-01 0.45074771E+03</pdfrwt>
<pdfrwt beam="2">  1       21 0.61354529E-01 0.45074771E+03</pdfrwt>
<totfact> 0.64754069E+04</totfact>
</mgrwt>
</event>
<event>
 7    0  0.4737014E-002  0.4570607E+03  0.7546771E-02  0.1025637E+00
         21   -1    0    0  502  501  0.00000000000E+00  0.00000000000E+00  0.27500334500E+03  0.27500334500E+03  0.00000000000E+00 0. -1.
         21   -1    0    0  501  502 -0.00000000000E+00 -0.00000000000E+00 -0.18991084573E+03  0.18991084573E+03  0.00000000000E+00 0. -1.
      99926    2    1    2    0    0 -0.14210854715E-13 -0.35527136788E-14  0.85092499261E+02  0.46491419073E+03  0.45706068668E+03 0.  0.
      99925    2    3    3    0    0 -0.11223936079E+03 -0.24848357193E+02  0.46805395123E+02  0.29076332105E+03  0.26294001006E+03 0.  0.
         25    1    4    4    0    0 -0.40806412135E+02 -0.16334537699E+02 -0.15686272234E+02  0.13351235010E+03  0.12509000000E+03 0.  0.
         25    1    4    4    0    0 -0.71432948656E+02 -0.85138194945E+01  0.62491667357E+02  0.15725097095E+03  0.12509000000E+03 0.  0.
         25    1    3    3    0    0  0.11223936079E+03  0.24848357193E+02  0.38287104138E+02  0.17415086968E+03  0.12509000000E+03 0.  0.
<mgrwt>
<rscale>  2 0.45706069E+03</rscale>
<asrwt>0</asrwt>
<pdfrwt beam="1">  1       21 0.40441668E-01 0.45706069E+03</pdfrwt>
<pdfrwt beam="2">  1       21 0.27928066E-01 0.45706069E+03</pdfrwt>
<totfact> 0.66716919E+04</totfact>
</mgrwt>
</event>
<event>
 7    0  0.4737014E-002  0.4560691E+03  0.7546771E-02  0.1025927E+00
         21   -1    0    0  502  501  0.00000000000E+00  0.00000000000E+00  0.57099482714E+03  0.57099482714E+03  0.00000000000E+00 0.  1.
         21   -1    0    0  501  502 -0.00000000000E+00 -0.00000000000E+00 -0.91068679308E+02  0.91068679308E+02  0.00000000000E+00 0.  1.
      99926    2    1    2    0    0 -0.14210854715E-13  0.00000000000E+00  0.47992614783E+03  0.66206350645E+03  0.45606905091E+03 0.  0.
      99925    2    3    3    0    0 -0.83612262790E+02 -0.22041039178E+02  0.40989811576E+03  0.49464710560E+03  0.26302561829E+03 0.  0.
         25    1    4    4    0    0 -0.75607723225E+02 -0.22593907390E+02  0.18165785942E+03  0.23425221120E+03  0.12509000000E+03 0.  0.
         25    1    4    4    0    0 -0.80045395655E+01  0.55286821229E+00  0.22824025633E+03  0.26039489440E+03  0.12509000000E+03 0.  0.
         25    1    3    3    0    0  0.83612262790E+02  0.22041039178E+02  0.70028032076E+02  0.16741640085E+03  0.12509000000E+03 0.  0.
<mgrwt>
<rscale>  2 0.45606905E+03</rscale>
<asrwt>0</asrwt>
<pdfrwt beam="1">  1       21 0.83969826E-01 0.45606905E+03</pdfrwt>
<pdfrwt beam="2">  1       21 0.13392453E-01 0.45606905E+03</pdfrwt>
<totfact> 0.54549875E+04</totfact>
</mgrwt>
</event>
<event>
 7    0  0.4737014E-002  0.4549067E+03  0.7546771E-02  0.1026269E+00
         21   -1    0    0  502  501  0.00000000000E+00  0.00000000000E+00  0.31555181949E+02  0.31555181949E+02  0.00000000000E+00 0. -1.
         21   -1    0    0  501  502 -0.00000000000E+00 -0.00000000000E+00 -0.16395094259E+04  0.16395094259E+04  0.00000000000E+00 0. -1.
      99926    2    1    2    0    0  0.00000000000E+00  0.35527136788E-14 -0.16079542440E+04  0.16710646079E+04  0.45490666402E+03 0.  0.
      99925    2    3    3    0    0  0.95825684020E+02  0.29612891114E+02 -0.82066362500E+03  0.86761360634E+03  0.26306862122E+03 0.  0.
         25    1    3    3    0    0 -0.95825684020E+02 -0.29612891114E+02 -0.78729061899E+03  0.80345100155E+03  0.12509000000E+03 0.  0.
         25    1    4    4    0    0  0.65975081845E+02  0.50531435692E+02 -0.40154258013E+03  0.42870746340E+03  0.12509000000E+03 0.  0.
         25    1    4    4    0    0  0.29850602175E+02 -0.20918544578E+02 -0.41912104487E+03  0.43890614294E+03  0.12509000000E+03 0.  0.
<mgrwt>
<rscale>  2 0.45490666E+03</rscale>
<asrwt>0</asrwt>
<pdfrwt beam="1">  1       21 0.46404667E-02 0.45490666E+03</pdfrwt>
<pdfrwt beam="2">  1       21 0.24110439E+00 0.45490666E+03</pdfrwt>
<totfact> 0.19884947E+04</totfact>
</mgrwt>
</event>
<event>
 7    0  0.4737014E-002  0.4564793E+03  0.7546771E-02  0.1025807E+00
         21   -1    0    0  502  501  0.00000000000E+00  0.00000000000E+00  0.10975359259E+03  0.10975359259E+03  0.00000000000E+00 0.  1.
         21   -1    0    0  501  502 -0.00000000000E+00 -0.00000000000E+00 -0.47463898198E+03  0.47463898198E+03  0.00000000000E+00 0.  1.
      99926    2    1    2    0    0  0.17763568394E-14  0.00000000000E+00 -0.36488538940E+03  0.58439257457E+03  0.45647928082E+03 0.  0.
      99925    2    3    3    0    0 -0.10952240743E+02  0.78315882741E+02 -0.12253409792E+03  0.30042957409E+03  0.26265946540E+03 0.  0.
         25    1    3    3    0    0  0.10952240743E+02 -0.78315882741E+02 -0.24235129147E+03  0.28396300049E+03  0.12509000000E+03 0.  0.
         25    1    4    4    0    0  0.33861494746E+02  0.43795444356E+02 -0.67264452546E+02  0.15243574531E+03  0.12509000000E+03 0.  0.
         25    1    4    4    0    0 -0.44813735489E+02  0.34520438385E+02 -0.55269645377E+02  0.14799382877E+03  0.12509000000E+03 0.  0.
<mgrwt>
<rscale>  2 0.45647928E+03</rscale>
<asrwt>0</asrwt>
<pdfrwt beam="1">  1       21 0.16140234E-01 0.45647928E+03</pdfrwt>
<pdfrwt beam="2">  1       21 0.69799850E-01 0.45647928E+03</pdfrwt>
<totfact> 0.58956938E+04</totfact>
</mgrwt>
</event>
<event>
 7    0  0.4737014E-002  0.4233787E+03  0.7546771E-02  0.1035972E+00
         21   -1    0    0  502  501  0.00000000000E+00  0.00000000000E+00  0.92698292712E+02  0.92698292712E+02  0.00000000000E+00 0. -1.
         21   -1    0    0  501  502 -0.00000000000E+00 -0.00000000000E+00 -0.48342188736E+03  0.48342188736E+03  0.00000000000E+00 0. -1.
      99926    2    1    2    0    0  0.00000000000E+00  0.00000000000E+00 -0.39072359465E+03  0.57612018007E+03  0.42337871282E+03 0.  0.
      99925    2    3    3    0    0  0.59927436294E+02 -0.12179758705E+02 -0.32375051120E+03  0.42161274935E+03  0.26306514928E+03 0.  0.
         25    1    3    3    0    0 -0.59927436294E+02  0.12179758705E+02 -0.66973083446E+02  0.15450743072E+03  0.12509000000E+03 0.  0.
         25    1    4    4    0    0  0.64060208157E+02  0.12046775206E+02 -0.14748596354E+03  0.20407952520E+03  0.12509000000E+03 0.  0.
         25    1    4    4    0    0 -0.41327718630E+01 -0.24226533911E+02 -0.17626454766E+03  0.21753322415E+03  0.12509000000E+03 0.  0.
<mgrwt>
<rscale>  2 0.42337871E+03</rscale>
<asrwt>0</asrwt>
<pdfrwt beam="1">  1       21 0.13632102E-01 0.42337871E+03</pdfrwt>
<pdfrwt beam="2">  1       21 0.71091454E-01 0.42337871E+03</pdfrwt>
<totfact> 0.77894749E+04</totfact>
</mgrwt>
</event>
<event>
 7    0  0.4737014E-002  0.4544377E+03  0.7546771E-02  0.1026407E+00
         21   -1    0    0  502  501  0.00000000000E+00  0.00000000000E+00  0.27038599819E+04  0.27038599819E+04  0.00000000000E+00 0.  1.
         21   -1    0    0  501  502 -0.00000000000E+00 -0.00000000000E+00 -0.19094331718E+02  0.19094331718E+02  0.00000000000E+00 0.  1.
      99926    2    1    2    0    0  0.00000000000E+00 -0.88817841970E-15  0.26847656502E+04  0.27229543136E+04  0.45443767191E+03 0.  0.
      99925    2    3    3    0    0  0.75394929895E+02 -0.50154136471E+01  0.11895809117E+04  0.12206446051E+04  0.26298470831E+03 0.  0.
         25    1    3    3    0    0 -0.75394929895E+02  0.50154136471E+01  0.14951847385E+04  0.15023097085E+04  0.12509000000E+03 0.  0.
         25    1    4    4    0    0  0.25672879960E+02 -0.23877626821E+02  0.72664259906E+03  0.73816408250E+03  0.12509000000E+03 0.  0.
         25    1    4    4    0    0  0.49722049935E+02  0.18862213173E+02  0.46293831259E+03  0.48248052262E+03  0.12509000000E+03 0.  0.
<mgrwt>
<rscale>  2 0.45443767E+03</rscale>
<asrwt>0</asrwt>
<pdfrwt beam="1">  1       21 0.39762620E+00 0.45443767E+03</pdfrwt>
<pdfrwt beam="2">  1       21 0.28079918E-02 0.45443767E+03</pdfrwt>
<totfact> 0.51316103E+03</totfact>
</mgrwt>
</event>
<event>
 7    0  0.4737014E-002  0.4536305E+03  0.7546771E-02  0.1026645E+00
         21   -1    0    0  502  501  0.00000000000E+00  0.00000000000E+00  0.12056881982E+04  0.12056881982E+04  0.00000000000E+00 0.  1.
         21   -1    0    0  501  502 -0.00000000000E+00 -0.00000000000E+00 -0.42668716825E+02  0.42668716825E+02  0.00000000000E+00 0.  1.
      99926    2    1    2    0    0  0.17763568394E-14 -0.17763568394E-14  0.11630194814E+04  0.12483569150E+04  0.45363054707E+03 0.  0.
      99925    2    3    3    0    0  0.14225546501E+02 -0.14722445791E+02  0.42985139898E+03  0.50431252003E+03  0.26294443533E+03 0.  0.
         25    1    3    3    0    0 -0.14225546501E+02  0.14722445791E+02  0.73316808241E+03  0.74404439501E+03  0.12509000000E+03 0.  0.
         25    1    4    4    0    0 -0.36705502566E+01  0.18922979856E+02  0.15634876926E+03  0.20115665004E+03  0.12509000000E+03 0.  0.
         25    1    4    4    0    0  0.17896096757E+02 -0.33645425646E+02  0.27350262972E+03  0.30315586999E+03  0.12509000000E+03 0.  0.
<mgrwt>
<rscale>  2 0.45363055E+03</rscale>
<asrwt>0</asrwt>
<pdfrwt beam="1">  1       21 0.17730707E+00 0.45363055E+03</pdfrwt>
<pdfrwt beam="2">  1       21 0.62748121E-02 0.45363055E+03</pdfrwt>
<totfact> 0.30981123E+04</totfact>
</mgrwt>
</event>
<event>
 7    0  0.4737014E-002  0.4214879E+03  0.7546771E-02  0.1036583E+00
         21   -1    0    0  502  501  0.00000000000E+00  0.00000000000E+00  0.26255325662E+02  0.26255325662E+02  0.00000000000E+00 0. -1.
         21   -1    0    0  501  502 -0.00000000000E+00 -0.00000000000E+00 -0.16915809406E+04  0.16915809406E+04  0.00000000000E+00 0. -1.
      99926    2    1    2    0    0 -0.17763568394E-14 -0.14210854715E-13 -0.16653256150E+04  0.17178362663E+04  0.42148788111E+03 0.  0.
      99925    2    3    3    0    0 -0.15377103637E+02  0.69103987815E+02 -0.12174625574E+04  0.12474740198E+04  0.26261099572E+03 0.  0.
         25    1    4    4    0    0  0.18131153897E+02  0.56205071644E+02 -0.72672584270E+03  0.73977409212E+03  0.12509000000E+03 0.  0.
         25    1    3    3    0    0  0.15377103637E+02 -0.69103987815E+02 -0.44786305759E+03  0.47036224647E+03  0.12509000000E+03 0.  0.
         25    1    4    4    0    0 -0.33508257534E+02  0.12898916172E+02 -0.49073671468E+03  0.50769992771E+03  0.12509000000E+03 0.  0.
<mgrwt>
<rscale>  2 0.42148788E+03</rscale>
<asrwt>0</asrwt>
<pdfrwt beam="1">  1       21 0.38610754E-02 0.42148788E+03</pdfrwt>
<pdfrwt beam="2">  1       21 0.24876203E+00 0.42148788E+03</pdfrwt>
<totfact> 0.24726317E+04</totfact>
</mgrwt>
</event>
<event>
 7    0  0.4737014E-002  0.4015905E+03  0.7546771E-02  0.1043230E+00
         21   -1    0    0  502  501  0.00000000000E+00  0.00000000000E+00  0.76267737297E+02  0.76267737297E+02  0.00000000000E+00 0.  1.
         21   -1    0    0  501  502 -0.00000000000E+00 -0.00000000000E+00 -0.52864738527E+03  0.52864738527E+03  0.00000000000E+00 0.  1.
      99926    2    1    2    0    0  0.00000000000E+00  0.19428902931E-14 -0.45237964797E+03  0.60491512257E+03  0.40159053725E+03 0.  0.
      99925    2    3    3    0    0 -0.30161630641E+02  0.49135865831E+00 -0.24318575429E+03  0.35931471815E+03  0.26278848946E+03 0.  0.
         25    1    4    4    0    0 -0.13660250820E+02 -0.29695565756E+02 -0.84981488120E+02  0.15471842328E+03  0.12509000000E+03 0.  0.
         25    1    4    4    0    0 -0.16501379821E+02  0.30186924414E+02 -0.15820426617E+03  0.20459629487E+03  0.12509000000E+03 0.  0.
         25    1    3    3    0    0  0.30161630641E+02 -0.49135865831E+00 -0.20919389368E+03  0.24560040442E+03  0.12509000000E+03 0.  0.
<mgrwt>
<rscale>  2 0.40159054E+03</rscale>
<asrwt>0</asrwt>
<pdfrwt beam="1">  1       21 0.11215844E-01 0.40159054E+03</pdfrwt>
<pdfrwt beam="2">  1       21 0.77742260E-01 0.40159054E+03</pdfrwt>
<totfact> 0.91153776E+04</totfact>
</mgrwt>
</event>
<event>
 7    0  0.4737014E-002  0.4745039E+03  0.7546771E-02  0.1020657E+00
         21   -1    0    0  502  501  0.00000000000E+00  0.00000000000E+00  0.16087370024E+03  0.16087370024E+03  0.00000000000E+00 0. -1.
         21   -1    0    0  501  502 -0.00000000000E+00 -0.00000000000E+00 -0.34989243273E+03  0.34989243273E+03  0.00000000000E+00 0. -1.
      99926    2    1    2    0    0  0.00000000000E+00  0.14210854715E-13 -0.18901873249E+03  0.51076613296E+03  0.47450391079E+03 0.  0.
      99925    2    3    3    0    0  0.16790050221E+02  0.96958979136E+02 -0.24541711976E+02  0.28189248267E+03  0.26301735064E+03 0.  0.
         25    1    4    4    0    0  0.30217521314E+02  0.12502385140E+02 -0.11495269380E+02  0.12980391961E+03  0.12509000000E+03 0.  0.
         25    1    4    4    0    0 -0.13427471093E+02  0.84456593997E+02 -0.13046442596E+02  0.15208856306E+03  0.12509000000E+03 0.  0.
         25    1    3    3    0    0 -0.16790050221E+02 -0.96958979136E+02 -0.16447702051E+03  0.22887365029E+03  0.12509000000E+03 0.  0.
<mgrwt>
<rscale>  2 0.47450391E+03</rscale>
<asrwt>0</asrwt>
<pdfrwt beam="1">  1       21 0.23657897E-01 0.47450391E+03</pdfrwt>
<pdfrwt beam="2">  1       21 0.51454769E-01 0.47450391E+03</pdfrwt>
<totfact> 0.55429117E+04</totfact>
</mgrwt>
</event>
<event>
 7    0  0.4737014E-002  0.4478145E+03  0.7546771E-02  0.1028376E+00
         21   -1    0    0  502  501  0.00000000000E+00  0.00000000000E+00  0.38348345067E+03  0.38348345067E+03  0.00000000000E+00 0. -1.
         21   -1    0    0  501  502 -0.00000000000E+00 -0.00000000000E+00 -0.13073431444E+03  0.13073431444E+03  0.00000000000E+00 0. -1.
      99926    2    1    2    0    0  0.00000000000E+00  0.00000000000E+00  0.25274913623E+03  0.51421776511E+03  0.44781445275E+03 0.  0.
      99925    2    3    3    0    0 -0.73167521079E+02 -0.72624590241E+02  0.13063701599E+03  0.31127271034E+03  0.26305294715E+03 0.  0.
         25    1    4    4    0    0 -0.30341016321E+02 -0.19166655358E+00  0.37515268805E+02  0.13407280672E+03  0.12509000000E+03 0.  0.
         25    1    3    3    0    0  0.73167521079E+02  0.72624590241E+02  0.12211212023E+03  0.20294505477E+03  0.12509000000E+03 0.  0.
         25    1    4    4    0    0 -0.42826504758E+02 -0.72432923688E+02  0.93121747186E+02  0.17719990362E+03  0.12509000000E+03 0.  0.
<mgrwt>
<rscale>  2 0.44781445E+03</rscale>
<asrwt>0</asrwt>
<pdfrwt beam="1">  1       21 0.56394625E-01 0.44781445E+03</pdfrwt>
<pdfrwt beam="2">  1       21 0.19225635E-01 0.44781445E+03</pdfrwt>
<totfact> 0.68082379E+04</totfact>
</mgrwt>
</event>
<event>
 7    0  0.4737014E-002  0.4573591E+03  0.7546771E-02  0.1025550E+00
         21   -1    0    0  502  501  0.00000000000E+00  0.00000000000E+00  0.98741611680E+02  0.98741611680E+02  0.00000000000E+00 0.  1.
         21   -1    0    0  501  502 -0.00000000000E+00 -0.00000000000E+00 -0.52960793398E+03  0.52960793398E+03  0.00000000000E+00 0.  1.
      99926    2    1    2    0    0  0.00000000000E+00  0.00000000000E+00 -0.43086632230E+03  0.62834954566E+03  0.45735911911E+03 0.  0.
      99925    2    3    3    0    0 -0.10992067487E+03  0.28015164489E+02 -0.24203102912E+03  0.37502429967E+03  0.26305285035E+03 0.  0.
         25    1    3    3    0    0  0.10992067487E+03 -0.28015164489E+02 -0.18883529317E+03  0.25332524599E+03  0.12509000000E+03 0.  0.
         25    1    4    4    0    0 -0.29593320141E+02  0.14866438031E+02 -0.15629321855E+03  0.20290848637E+03  0.12509000000E+03 0.  0.
         25    1    4    4    0    0 -0.80327354732E+02  0.13148726458E+02 -0.85737810571E+02  0.17211581330E+03  0.12509000000E+03 0.  0.
<mgrwt>
<rscale>  2 0.45735912E+03</rscale>
<asrwt>0</asrwt>
<pdfrwt beam="1">  1       21 0.14520826E-01 0.45735912E+03</pdfrwt>
<pdfrwt beam="2">  1       21 0.77883518E-01 0.45735912E+03</pdfrwt>
<totfact> 0.55917619E+04</totfact>
</mgrwt>
</event>
<event>
 7    0  0.4737014E-002  0.4500077E+03  0.7546771E-02  0.1027720E+00
         21   -1    0    0  502  501  0.00000000000E+00  0.00000000000E+00  0.64939363646E+03  0.64939363646E+03  0.00000000000E+00 0. -1.
         21   -1    0    0  501  502 -0.00000000000E+00 -0.00000000000E+00 -0.77959999410E+02  0.77959999410E+02  0.00000000000E+00 0. -1.
      99926    2    1    2    0    0  0.00000000000E+00  0.00000000000E+00  0.57143363705E+03  0.72735363587E+03  0.45000767778E+03 0.  0.
      99925    2    3    3    0    0 -0.86284498791E+02  0.62418063474E+02  0.38220481007E+03  0.47676216267E+03  0.26434941561E+03 0.  0.
         25    1    4    4    0    0 -0.19481123928E+02  0.42550274835E+01  0.12909650431E+03  0.18086192240E+03  0.12509000000E+03 0.  0.
         25    1    3    3    0    0  0.86284498791E+02 -0.62418063474E+02  0.18922882698E+03  0.25059147320E+03  0.12509000000E+03 0.  0.
         25    1    4    4    0    0 -0.66803374864E+02  0.58163035991E+02  0.25310830576E+03  0.29590024027E+03  0.12509000000E+03 0.  0.
<mgrwt>
<rscale>  2 0.45000768E+03</rscale>
<asrwt>0</asrwt>
<pdfrwt beam="1">  1       21 0.95499061E-01 0.45000768E+03</pdfrwt>
<pdfrwt beam="2">  1       21 0.11464706E-01 0.45000768E+03</pdfrwt>
<totfact> 0.53513070E+04</totfact>
</mgrwt>
</event>
<event>
 7    0  0.4737014E-002  0.4525946E+03  0.7546771E-02  0.1026951E+00
         21   -1    0    0  502  501  0.00000000000E+00  0.00000000000E+00  0.13390095872E+03  0.13390095872E+03  0.00000000000E+00 0.  1.
         21   -1    0    0  501  502 -0.00000000000E+00 -0.00000000000E+00 -0.38245041522E+03  0.38245041522E+03  0.00000000000E+00 0.  1.
      99926    2    1    2    0    0  0.00000000000E+00  0.00000000000E+00 -0.24854945650E+03  0.51635137395E+03  0.45259464099E+03 0.  0.
      99925    2    3    3    0    0 -0.64354046814E+02  0.84183871270E+02 -0.11941020112E+03  0.30765824301E+03  0.26299511561E+03 0.  0.
         25    1    4    4    0    0 -0.27386998433E+02  0.38767909636E+01 -0.35200357677E+02  0.13285951404E+03  0.12509000000E+03 0.  0.
         25    1    4    4    0    0 -0.36967048381E+02  0.80307080307E+02 -0.84209843446E+02  0.17479872896E+03  0.12509000000E+03 0.  0.
         25    1    3    3    0    0  0.64354046814E+02 -0.84183871270E+02 -0.12913925537E+03  0.20869313094E+03  0.12509000000E+03 0.  0.
<mgrwt>
<rscale>  2 0.45259464E+03</rscale>
<asrwt>0</asrwt>
<pdfrwt beam="1">  1       21 0.19691318E-01 0.45259464E+03</pdfrwt>
<pdfrwt beam="2">  1       21 0.56242707E-01 0.45259464E+03</pdfrwt>
<totfact> 0.65375345E+04</totfact>
</mgrwt>
</event>
<event>
 7    0  0.4737014E-002  0.4540718E+03  0.7546771E-02  0.1026515E+00
         21   -1    0    0  502  501  0.00000000000E+00  0.00000000000E+00  0.12155695862E+04  0.12155695862E+04  0.00000000000E+00 0.  1.
         21   -1    0    0  501  502 -0.00000000000E+00 -0.00000000000E+00 -0.42404228486E+02  0.42404228486E+02  0.00000000000E+00 0.  1.
      99926    2    1    2    0    0  0.00000000000E+00  0.00000000000E+00  0.11731653577E+04  0.12579738146E+04  0.45407175853E+03 0.  0.
      99925    2    3    3    0    0  0.66799655294E+02 -0.87484883209E+02  0.67631436585E+03  0.73392781007E+03  0.26293175959E+03 0.  0.
         25    1    4    4    0    0  0.15720235236E+02 -0.79469999731E+02  0.37921297504E+03  0.40744643230E+03  0.12509000000E+03 0.  0.
         25    1    3    3    0    0 -0.66799655294E+02  0.87484883209E+02  0.49685099182E+03  0.52404600457E+03  0.12509000000E+03 0.  0.
         25    1    4    4    0    0  0.51079420058E+02 -0.80148834779E+01  0.29710139081E+03  0.32648137777E+03  0.12509000000E+03 0.  0.
<mgrwt>
<rscale>  2 0.45407176E+03</rscale>
<asrwt>0</asrwt>
<pdfrwt beam="1">  1       21 0.17876021E+00 0.45407176E+03</pdfrwt>
<pdfrwt beam="2">  1       21 0.62359167E-02 0.45407176E+03</pdfrwt>
<totfact> 0.30580408E+04</totfact>
</mgrwt>
</event>
<event>
 7    0  0.4737014E-002  0.4587255E+03  0.7546771E-02  0.1025152E+00
         21   -1    0    0  502  501  0.00000000000E+00  0.00000000000E+00  0.71450003330E+03  0.71450003330E+03  0.00000000000E+00 0. -1.
         21   -1    0    0  501  502 -0.00000000000E+00 -0.00000000000E+00 -0.73628073080E+02  0.73628073080E+02  0.00000000000E+00 0. -1.
      99926    2    1    2    0    0  0.00000000000E+00  0.71054273576E-14  0.64087196022E+03  0.78812810638E+03  0.45872545457E+03 0.  0.
      99925    2    3    3    0    0  0.98294174850E+02  0.56795942788E+02  0.44797380475E+03  0.53172075389E+03  0.26298081004E+03 0.  0.
         25    1    3    3    0    0 -0.98294174850E+02 -0.56795942788E+02  0.19289815547E+03  0.25640735249E+03  0.12509000000E+03 0.  0.
         25    1    4    4    0    0  0.73549321399E+02  0.24197969434E+02  0.17460718159E+03  0.22832043353E+03  0.12509000000E+03 0.  0.
         25    1    4    4    0    0  0.24744853450E+02  0.32597973354E+02  0.27336662316E+03  0.30340032037E+03  0.12509000000E+03 0.  0.
<mgrwt>
<rscale>  2 0.45872545E+03</rscale>
<asrwt>0</asrwt>
<pdfrwt beam="1">  1       21 0.10507353E+00 0.45872545E+03</pdfrwt>
<pdfrwt beam="2">  1       21 0.10827658E-01 0.45872545E+03</pdfrwt>
<totfact> 0.46956326E+04</totfact>
</mgrwt>
</event>
<event>
 7    0  0.4737014E-002  0.4503046E+03  0.7546771E-02  0.1027631E+00
         21   -1    0    0  502  501  0.00000000000E+00  0.00000000000E+00  0.22258425845E+03  0.22258425845E+03  0.00000000000E+00 0. -1.
         21   -1    0    0  501  502 -0.00000000000E+00 -0.00000000000E+00 -0.22775001960E+03  0.22775001960E+03  0.00000000000E+00 0. -1.
      99926    2    1    2    0    0  0.00000000000E+00  0.00000000000E+00 -0.51657611478E+01  0.45033427805E+03  0.45030464899E+03 0.  0.
      99925    2    3    3    0    0 -0.74923013857E+02 -0.53844573702E+02  0.54048755712E+02  0.28400158965E+03  0.26310252528E+03 0.  0.
         25    1    4    4    0    0 -0.14595054373E+02 -0.61287523001E+01 -0.38677935280E+01  0.12614691888E+03  0.12509000000E+03 0.  0.
         25    1    4    4    0    0 -0.60327959484E+02 -0.47715821402E+02  0.57916549240E+02  0.15785467077E+03  0.12509000000E+03 0.  0.
         25    1    3    3    0    0  0.74923013857E+02  0.53844573702E+02 -0.59214516860E+02  0.16633268840E+03  0.12509000000E+03 0.  0.
<mgrwt>
<rscale>  2 0.45030465E+03</rscale>
<asrwt>0</asrwt>
<pdfrwt beam="1">  1       21 0.32732979E-01 0.45030465E+03</pdfrwt>
<pdfrwt beam="2">  1       21 0.33492650E-01 0.45030465E+03</pdfrwt>
<totfact> 0.71531486E+04</totfact>
</mgrwt>
</event>
<event>
 7    0  0.4737014E-002  0.4501533E+03  0.7546771E-02  0.1027676E+00
         21   -1    0    0  502  501  0.00000000000E+00  0.00000000000E+00  0.14148583131E+03  0.14148583131E+03  0.00000000000E+00 0. -1.
         21   -1    0    0  501  502 -0.00000000000E+00 -0.00000000000E+00 -0.35805348996E+03  0.35805348996E+03  0.00000000000E+00 0. -1.
      99926    2    1    2    0    0 -0.71054273576E-14  0.00000000000E+00 -0.21656765866E+03  0.49953932127E+03  0.45015328802E+03 0.  0.
      99925    2    3    3    0    0 -0.40983689283E+02  0.10850183588E+02 -0.24780025378E+03  0.36381764883E+03  0.26298465080E+03 0.  0.
         25    1    4    4    0    0  0.19134101038E+02  0.89229941858E+01 -0.13172396075E+03  0.18287822064E+03  0.12509000000E+03 0.  0.
         25    1    4    4    0    0 -0.60117790321E+02  0.19271894022E+01 -0.11607629303E+03  0.18093942820E+03  0.12509000000E+03 0.  0.
         25    1    3    3    0    0  0.40983689283E+02 -0.10850183588E+02  0.31232595124E+02  0.13572167244E+03  0.12509000000E+03 0.  0.
<mgrwt>
<rscale>  2 0.45015329E+03</rscale>
<asrwt>0</asrwt>
<pdfrwt beam="1">  1       21 0.20806740E-01 0.45015329E+03</pdfrwt>
<pdfrwt beam="2">  1       21 0.52654925E-01 0.45015329E+03</pdfrwt>
<totfact> 0.67877046E+04</totfact>
</mgrwt>
</event>
<event>
 7    0  0.4737014E-002  0.4516313E+03  0.7546771E-02  0.1027237E+00
         21   -1    0    0  502  501  0.00000000000E+00  0.00000000000E+00  0.71630551405E+03  0.71630551405E+03  0.00000000000E+00 0. -1.
         21   -1    0    0  501  502 -0.00000000000E+00 -0.00000000000E+00 -0.71188476434E+02  0.71188476434E+02  0.00000000000E+00 0. -1.
      99926    2    1    2    0    0  0.00000000000E+00  0.44408920985E-15  0.64511703762E+03  0.78749399049E+03  0.45163125758E+03 0.  0.
      99925    2    3    3    0    0 -0.75341648773E+02  0.29386328386E+01  0.54675637199E+03  0.61140501228E+03  0.26303718202E+03 0.  0.
         25    1    4    4    0    0 -0.63555894880E+02  0.32451901558E+02  0.30767689613E+03  0.33971319993E+03  0.12509000000E+03 0.  0.
         25    1    4    4    0    0 -0.11785753894E+02 -0.29513268720E+02  0.23907947586E+03  0.27169181236E+03  0.12509000000E+03 0.  0.
         25    1    3    3    0    0  0.75341648773E+02 -0.29386328386E+01  0.98360665629E+02  0.17608897821E+03  0.12509000000E+03 0.  0.
<mgrwt>
<rscale>  2 0.45163126E+03</rscale>
<asrwt>0</asrwt>
<pdfrwt beam="1">  1       21 0.10533904E+00 0.45163126E+03</pdfrwt>
<pdfrwt beam="2">  1       21 0.10468894E-01 0.45163126E+03</pdfrwt>
<totfact> 0.49676165E+04</totfact>
</mgrwt>
</event>
<event>
 7    0  0.4737014E-002  0.4510793E+03  0.7546771E-02  0.1027401E+00
         21   -1    0    0  502  501  0.00000000000E+00  0.00000000000E+00  0.26063560167E+03  0.26063560167E+03  0.00000000000E+00 0.  1.
         21   -1    0    0  501  502 -0.00000000000E+00 -0.00000000000E+00 -0.19516952102E+03  0.19516952102E+03  0.00000000000E+00 0.  1.
      99926    2    1    2    0    0  0.00000000000E+00  0.71054273576E-14  0.65466080652E+02  0.45580512269E+03  0.45107926371E+03 0.  0.
      99925    2    3    3    0    0  0.19541503109E+02 -0.52214694877E+02 -0.54041446554E+02  0.27404208502E+03  0.26281236978E+03 0.  0.
         25    1    4    4    0    0  0.14032219290E+02  0.14633182967E+02 -0.25584529232E+02  0.12927919190E+03  0.12509000000E+03 0.  0.
         25    1    4    4    0    0  0.55092838187E+01 -0.66847877844E+02 -0.28456917323E+02  0.14476289312E+03  0.12509000000E+03 0.  0.
         25    1    3    3    0    0 -0.19541503109E+02  0.52214694877E+02  0.11950752721E+03  0.18176303767E+03  0.12509000000E+03 0.  0.
<mgrwt>
<rscale>  2 0.45107926E+03</rscale>
<asrwt>0</asrwt>
<pdfrwt beam="1">  1       21 0.38328765E-01 0.45107926E+03</pdfrwt>
<pdfrwt beam="2">  1       21 0.28701400E-01 0.45107926E+03</pdfrwt>
<totfact> 0.70671315E+04</totfact>
</mgrwt>
</event>
<event>
 7    0  0.4737014E-002  0.4541805E+03  0.7546771E-02  0.1026483E+00
         21   -1    0    0  502  501  0.00000000000E+00  0.00000000000E+00  0.33476902875E+03  0.33476902875E+03  0.00000000000E+00 0.  1.
         21   -1    0    0  501  502 -0.00000000000E+00 -0.00000000000E+00 -0.15404648235E+03  0.15404648235E+03  0.00000000000E+00 0.  1.
      99926    2    1    2    0    0  0.71054273576E-14  0.00000000000E+00  0.18072254640E+03  0.48881551111E+03  0.45418054243E+03 0.  0.
      99925    2    3    3    0    0 -0.45962831106E+02  0.17906247734E+02  0.22228079859E+03  0.34807528240E+03  0.26327634387E+03 0.  0.
         25    1    3    3    0    0  0.45962831106E+02 -0.17906247734E+02 -0.41558252193E+02  0.14074022871E+03  0.12509000000E+03 0.  0.
         25    1    4    4    0    0 -0.49295669848E+02 -0.31581570689E+01  0.76202560735E+02  0.15457805596E+03  0.12509000000E+03 0.  0.
         25    1    4    4    0    0  0.33328387420E+01  0.21064404803E+02  0.14607823786E+03  0.19349722644E+03  0.12509000000E+03 0.  0.
<mgrwt>
<rscale>  2 0.45418054E+03</rscale>
<asrwt>0</asrwt>
<pdfrwt beam="1">  1       21 0.49230740E-01 0.45418054E+03</pdfrwt>
<pdfrwt beam="2">  1       21 0.22653894E-01 0.45418054E+03</pdfrwt>
<totfact> 0.66495305E+04</totfact>
</mgrwt>
</event>
<event>
 7    0  0.4737014E-002  0.4484357E+03  0.7546771E-02  0.1028190E+00
         21   -1    0    0  502  501  0.00000000000E+00  0.00000000000E+00  0.54560105042E+02  0.54560105042E+02  0.00000000000E+00 0. -1.
         21   -1    0    0  501  502 -0.00000000000E+00 -0.00000000000E+00 -0.92143612702E+03  0.92143612702E+03  0.00000000000E+00 0. -1.
      99926    2    1    2    0    0  0.00000000000E+00  0.00000000000E+00 -0.86687602198E+03  0.97599623206E+03  0.44843573399E+03 0.  0.
      99925    2    3    3    0    0 -0.47013550394E+02 -0.95098648417E+02 -0.51764274345E+03  0.59016541709E+03  0.26284440803E+03 0.  0.
         25    1    4    4    0    0 -0.48447788780E+01 -0.84444877544E+02 -0.27777037669E+03  0.31616182485E+03  0.12509000000E+03 0.  0.
         25    1    4    4    0    0 -0.42168771516E+02 -0.10653770873E+02 -0.23987236675E+03  0.27400359223E+03  0.12509000000E+03 0.  0.
         25    1    3    3    0    0  0.47013550394E+02  0.95098648417E+02 -0.34923327853E+03  0.38583081498E+03  0.12509000000E+03 0.  0.
<mgrwt>
<rscale>  2 0.44843573E+03</rscale>
<asrwt>0</asrwt>
<pdfrwt beam="1">  1       21 0.80235444E-02 0.44843573E+03</pdfrwt>
<pdfrwt beam="2">  1       21 0.13550532E+00 0.44843573E+03</pdfrwt>
<totfact> 0.42231431E+04</totfact>
</mgrwt>
</event>
<event>
 7    0  0.4737014E-002  0.4528261E+03  0.7546771E-02  0.1026883E+00
         21   -1    0    0  502  501  0.00000000000E+00  0.00000000000E+00  0.21853982950E+02  0.21853982950E+02  0.00000000000E+00 0.  1.
         21   -1    0    0  501  502 -0.00000000000E+00 -0.00000000000E+00 -0.23456988755E+04  0.23456988755E+04  0.00000000000E+00 0.  1.
      99926    2    1    2    0    0  0.14210854715E-13  0.00000000000E+00 -0.23238448925E+04  0.23675528584E+04  0.45282607358E+03 0.  0.
      99925    2    3    3    0    0 -0.75877718211E+02  0.44684371913E+02 -0.18180198520E+04  0.18391017245E+04  0.26333410264E+03 0.  0.
         25    1    3    3    0    0  0.75877718211E+02 -0.44684371913E+02 -0.50582504053E+03  0.52845113392E+03  0.12509000000E+03 0.  0.
         25    1    4    4    0    0 -0.67959077781E+01  0.20499857519E+02 -0.10378624600E+04  0.10455966825E+04  0.12509000000E+03 0.  0.
         25    1    4    4    0    0 -0.69081810433E+02  0.24184514394E+02 -0.78015739202E+03  0.79350504200E+03  0.12509000000E+03 0.  0.
<mgrwt>
<rscale>  2 0.45282607E+03</rscale>
<asrwt>0</asrwt>
<pdfrwt beam="1">  1       21 0.32138228E-02 0.45282607E+03</pdfrwt>
<pdfrwt beam="2">  1       21 0.34495553E+00 0.45282607E+03</pdfrwt>
<totfact> 0.87301834E+03</totfact>
</mgrwt>
</event>
<event>
 7    0  0.4737014E-002  0.4545040E+03  0.7546771E-02  0.1026387E+00
         21   -1    0    0  502  501  0.00000000000E+00  0.00000000000E+00  0.54497621148E+03  0.54497621148E+03  0.00000000000E+00 0. -1.
         21   -1    0    0  501  502 -0.00000000000E+00 -0.00000000000E+00 -0.94762798444E+02  0.94762798444E+02  0.00000000000E+00 0. -1.
      99926    2    1    2    0    0  0.00000000000E+00  0.38857805862E-15  0.45021341304E+03  0.63973900993E+03  0.45450399728E+03 0.  0.
      99925    2    3    3    0    0  0.10789632777E+03  0.72777232256E-01  0.32934464399E+03  0.43504804707E+03  0.26297772889E+03 0.  0.
         25    1    4    4    0    0  0.29710693022E+02 -0.30675299289E+02  0.13258006201E+03  0.18721292746E+03  0.12509000000E+03 0.  0.
         25    1    3    3    0    0 -0.10789632777E+03 -0.72777232256E-01  0.12086876905E+03  0.20469096286E+03  0.12509000000E+03 0.  0.
         25    1    4    4    0    0  0.78185634750E+02  0.30748076521E+02  0.19676458198E+03  0.24783511961E+03  0.12509000000E+03 0.  0.
<mgrwt>
<rscale>  2 0.45450400E+03</rscale>
<asrwt>0</asrwt>
<pdfrwt beam="1">  1       21 0.80143559E-01 0.45450400E+03</pdfrwt>
<pdfrwt beam="2">  1       21 0.13935706E-01 0.45450400E+03</pdfrwt>
<totfact> 0.56517426E+04</totfact>
</mgrwt>
</event>
<event>
 7    0  0.4737014E-002  0.4556746E+03  0.7546771E-02  0.1026043E+00
         21   -1    0    0  502  501  0.00000000000E+00  0.00000000000E+00  0.21926700020E+03  0.21926700020E+03  0.00000000000E+00 0. -1.
         21   -1    0    0  501  502 -0.00000000000E+00 -0.00000000000E+00 -0.23674256054E+03  0.23674256054E+03  0.00000000000E+00 0. -1.
      99926    2    1    2    0    0 -0.35527136788E-14  0.35527136788E-14 -0.17475560343E+02  0.45600956074E+03  0.45567458156E+03 0.  0.
      99925    2    3    3    0    0  0.30760197740E+02 -0.22314471578E+02 -0.11837691412E+03  0.29086502798E+03  0.26295483510E+03 0.  0.
         25    1    4    4    0    0  0.88627128823E+01 -0.33825199457E+02 -0.95741670465E+02  0.16135881557E+03  0.12509000000E+03 0.  0.
         25    1    4    4    0    0  0.21897484858E+02  0.11510727880E+02 -0.22635243652E+02  0.12950621242E+03  0.12509000000E+03 0.  0.
         25    1    3    3    0    0 -0.30760197740E+02  0.22314471578E+02  0.10090135377E+03  0.16514453276E+03  0.12509000000E+03 0.  0.
<mgrwt>
<rscale>  2 0.45567458E+03</rscale>
<asrwt>0</asrwt>
<pdfrwt beam="1">  1       21 0.32245147E-01 0.45567458E+03</pdfrwt>
<pdfrwt beam="2">  1       21 0.34815082E-01 0.45567458E+03</pdfrwt>
<totfact> 0.68104607E+04</totfact>
</mgrwt>
</event>
<event>
 7    0  0.4737014E-002  0.4585844E+03  0.7546771E-02  0.1025193E+00
         21   -1    0    0  502  501  0.00000000000E+00  0.00000000000E+00  0.19639820784E+03  0.19639820784E+03  0.00000000000E+00 0.  1.
         21   -1    0    0  501  502 -0.00000000000E+00 -0.00000000000E+00 -0.26769550245E+03  0.26769550245E+03  0.00000000000E+00 0.  1.
      99926    2    1    2    0    0 -0.71054273576E-14  0.00000000000E+00 -0.71297294615E+02  0.46409371029E+03  0.45858441721E+03 0.  0.
      99925    2    3    3    0    0 -0.44922772192E+02 -0.98530236273E+02 -0.85432281523E+02  0.29804080042E+03  0.26420329495E+03 0.  0.
         25    1    3    3    0    0  0.44922772192E+02  0.98530236273E+02  0.14134986908E+02  0.16605290987E+03  0.12509000000E+03 0.  0.
         25    1    4    4    0    0  0.49623621583E+01 -0.19837433418E+02 -0.17651053569E+02  0.12797349958E+03  0.12509000000E+03 0.  0.
         25    1    4    4    0    0 -0.49885134351E+02 -0.78692802855E+02 -0.67781227954E+02  0.17006730083E+03  0.12509000000E+03 0.  0.
<mgrwt>
<rscale>  2 0.45858442E+03</rscale>
<asrwt>0</asrwt>
<pdfrwt beam="1">  1       21 0.28882089E-01 0.45858442E+03</pdfrwt>
<pdfrwt beam="2">  1       21 0.39366986E-01 0.45858442E+03</pdfrwt>
<totfact> 0.65977062E+04</totfact>
</mgrwt>
</event>
<event>
 7    0  0.4737014E-002  0.4484116E+03  0.7546771E-02  0.1028197E+00
         21   -1    0    0  502  501  0.00000000000E+00  0.00000000000E+00  0.62034691343E+03  0.62034691343E+03  0.00000000000E+00 0.  1.
         21   -1    0    0  501  502 -0.00000000000E+00 -0.00000000000E+00 -0.81032457187E+02  0.81032457187E+02  0.00000000000E+00 0.  1.
      99926    2    1    2    0    0 -0.14210854715E-13  0.00000000000E+00  0.53931445625E+03  0.70137937062E+03  0.44841157302E+03 0.  0.
      99925    2    3    3    0    0 -0.66871123739E+02  0.26988668070E+02  0.46497757319E+03  0.53897981497E+03  0.26285920561E+03 0.  0.
         25    1    4    4    0    0 -0.59961532566E+01 -0.29322204815E+01  0.16691946755E+03  0.20869635483E+03  0.12509000000E+03 0.  0.
         25    1    3    3    0    0  0.66871123739E+02 -0.26988668070E+02  0.74336883053E+02  0.16239955565E+03  0.12509000000E+03 0.  0.
         25    1    4    4    0    0 -0.60874970483E+02  0.29920888551E+02  0.29805810564E+03  0.33028346014E+03  0.12509000000E+03 0.  0.
<mgrwt>
<rscale>  2 0.44841157E+03</rscale>
<asrwt>0</asrwt>
<pdfrwt beam="1">  1       21 0.91227485E-01 0.44841157E+03</pdfrwt>
<pdfrwt beam="2">  1       21 0.11916538E-01 0.44841157E+03</pdfrwt>
<totfact> 0.55658180E+04</totfact>
</mgrwt>
</event>
<event>
 7    0  0.4737014E-002  0.4560147E+03  0.7546771E-02  0.1025943E+00
         21   -1    0    0  502  501  0.00000000000E+00  0.00000000000E+00  0.11850825177E+03  0.11850825177E+03  0.00000000000E+00 0. -1.
         21   -1    0    0  501  502 -0.00000000000E+00 -0.00000000000E+00 -0.43868132517E+03  0.43868132517E+03  0.00000000000E+00 0. -1.
      99926    2    1    2    0    0  0.00000000000E+00  0.00000000000E+00 -0.32017307341E+03  0.55718957694E+03  0.45601472313E+03 0.  0.
      99925    2    3    3    0    0 -0.27380295624E+02 -0.17925383861E+02 -0.33479925834E+03  0.42706489304E+03  0.26310241258E+03 0.  0.
         25    1    3    3    0    0  0.27380295624E+02  0.17925383861E+02  0.14626184934E+02  0.13012468390E+03  0.12509000000E+03 0.  0.
         25    1    4    4    0    0 -0.20745070230E+02 -0.96117684064E+01 -0.23297933190E+03  0.26542347527E+03  0.12509000000E+03 0.  0.
         25    1    4    4    0    0 -0.66352253938E+01 -0.83136154542E+01 -0.10181992644E+03  0.16164141777E+03  0.12509000000E+03 0.  0.
<mgrwt>
<rscale>  2 0.45601472E+03</rscale>
<asrwt>0</asrwt>
<pdfrwt beam="1">  1       21 0.17427685E-01 0.45601472E+03</pdfrwt>
<pdfrwt beam="2">  1       21 0.64511958E-01 0.45601472E+03</pdfrwt>
<totfact> 0.60903562E+04</totfact>
</mgrwt>
</event>
<event>
 7    0  0.4737014E-002  0.4166988E+03  0.7546771E-02  0.1038146E+00
         21   -1    0    0  502  501  0.00000000000E+00  0.00000000000E+00  0.26562091492E+03  0.26562091492E+03  0.00000000000E+00 0. -1.
         21   -1    0    0  501  502 -0.00000000000E+00 -0.00000000000E+00 -0.16342643952E+03  0.16342643952E+03  0.00000000000E+00 0. -1.
      99926    2    1    2    0    0  0.71054273576E-14  0.00000000000E+00  0.10219447540E+03  0.42904735444E+03  0.41669883795E+03 0.  0.
      99925    2    3    3    0    0  0.36803239202E+02 -0.16446297320E+02  0.12787855314E+03  0.29513641739E+03  0.26292132170E+03 0.  0.
         25    1    4    4    0    0  0.52117936166E+02 -0.95013484562E+01  0.91484920492E+02  0.16377897811E+03  0.12509000000E+03 0.  0.
         25    1    3    3    0    0 -0.36803239202E+02  0.16446297320E+02 -0.25684077748E+02  0.13391093705E+03  0.12509000000E+03 0.  0.
         25    1    4    4    0    0 -0.15314696963E+02 -0.69449488635E+01  0.36393632652E+02  0.13135743928E+03  0.12509000000E+03 0.  0.
<mgrwt>
<rscale>  2 0.41669884E+03</rscale>
<asrwt>0</asrwt>
<pdfrwt beam="1">  1       21 0.39061899E-01 0.41669884E+03</pdfrwt>
<pdfrwt beam="2">  1       21 0.24033300E-01 0.41669884E+03</pdfrwt>
<totfact> 0.96848705E+04</totfact>
</mgrwt>
</event>
<event>
 7    0  0.4737014E-002  0.4530288E+03  0.7546771E-02  0.1026823E+00
         21   -1    0    0  502  501  0.00000000000E+00  0.00000000000E+00  0.24125056706E+03  0.24125056706E+03  0.00000000000E+00 0.  1.
         21   -1    0    0  501  502 -0.00000000000E+00 -0.00000000000E+00 -0.21267834838E+03  0.21267834838E+03  0.00000000000E+00 0.  1.
      99926    2    1    2    0    0  0.00000000000E+00  0.00000000000E+00  0.28572218682E+02  0.45392891544E+03  0.45302879444E+03 0.  0.
      99925    2    3    3    0    0  0.70824182787E+02 -0.85095479370E+02  0.29875787934E+02  0.28687648993E+03  0.26296055273E+03 0.  0.
         25    1    4    4    0    0  0.32672314876E+02 -0.10771501336E+02  0.40956504803E+02  0.13604575990E+03  0.12509000000E+03 0.  0.
         25    1    3    3    0    0 -0.70824182787E+02  0.85095479370E+02 -0.13035692524E+01  0.16705242551E+03  0.12509000000E+03 0.  0.
         25    1    4    4    0    0  0.38151867912E+02 -0.74323978034E+02 -0.11080716869E+02  0.15083073003E+03  0.12509000000E+03 0.  0.
<mgrwt>
<rscale>  2 0.45302879E+03</rscale>
<asrwt>0</asrwt>
<pdfrwt beam="1">  1       21 0.35478024E-01 0.45302879E+03</pdfrwt>
<pdfrwt beam="2">  1       21 0.31276228E-01 0.45302879E+03</pdfrwt>
<totfact> 0.69714388E+04</totfact>
</mgrwt>
</event>
<event>
 7    0  0.4737014E-002  0.4549961E+03  0.7546771E-02  0.1026243E+00
         21   -1    0    0  502  501  0.00000000000E+00  0.00000000000E+00  0.19710899099E+03  0.19710899099E+03  0.00000000000E+00 0. -1.
         21   -1    0    0  501  502 -0.00000000000E+00 -0.00000000000E+00 -0.26257226137E+03  0.26257226137E+03  0.00000000000E+00 0. -1.
      99926    2    1    2    0    0  0.00000000000E+00  0.00000000000E+00 -0.65463270375E+02  0.45968125236E+03  0.45499605932E+03 0.  0.
      99925    2    3    3    0    0 -0.76728465077E+02 -0.66969736728E+02  0.84531630596E+01  0.28224577050E+03  0.26309507028E+03 0.  0.
         25    1    4    4    0    0 -0.33389774391E+02 -0.41453961788E+02  0.43874700156E+02  0.14284889007E+03  0.12509000000E+03 0.  0.
         25    1    4    4    0    0 -0.43338690687E+02 -0.25515774940E+02 -0.35421537096E+02  0.13939688042E+03  0.12509000000E+03 0.  0.
         25    1    3    3    0    0  0.76728465077E+02  0.66969736728E+02 -0.73916433435E+02  0.17743548186E+03  0.12509000000E+03 0.  0.
<mgrwt>
<rscale>  2 0.45499606E+03</rscale>
<asrwt>0</asrwt>
<pdfrwt beam="1">  1       21 0.28986617E-01 0.45499606E+03</pdfrwt>
<pdfrwt beam="2">  1       21 0.38613568E-01 0.45499606E+03</pdfrwt>
<totfact> 0.68205955E+04</totfact>
</mgrwt>
</event>
<event>
 7    0  0.4737014E-002  0.4242613E+03  0.7546771E-02  0.1035688E+00
         21   -1    0    0  502  501  0.00000000000E+00  0.00000000000E+00  0.52029299190E+02  0.52029299190E+02  0.00000000000E+00 0.  1.
         21   -1    0    0  501  502 -0.00000000000E+00 -0.00000000000E+00 -0.86488585119E+03  0.86488585119E+03  0.00000000000E+00 0.  1.
      99926    2    1    2    0    0  0.35527136788E-14  0.00000000000E+00 -0.81285655200E+03  0.91691515038E+03  0.42426126251E+03 0.  0.
      99925    2    3    3    0    0  0.10395078996E+02 -0.80297399027E+02 -0.51709881519E+03  0.58574166572E+03  0.26295700092E+03 0.  0.
         25    1    3    3    0    0 -0.10395078996E+02  0.80297399027E+02 -0.29575773681E+03  0.33117348466E+03  0.12509000000E+03 0.  0.
         25    1    4    4    0    0  0.41173524396E+02 -0.58911771255E+02 -0.25801850092E+03  0.29561277175E+03  0.12509000000E+03 0.  0.
         25    1    4    4    0    0 -0.30778445400E+02 -0.21385627772E+02 -0.25908031427E+03  0.29012889397E+03  0.12509000000E+03 0.  0.
<mgrwt>
<rscale>  2 0.42426126E+03</rscale>
<asrwt>0</asrwt>
<pdfrwt beam="1">  1       21 0.76513675E-02 0.42426126E+03</pdfrwt>
<pdfrwt beam="2">  1       21 0.12718910E+00 0.42426126E+03</pdfrwt>
<totfact> 0.54476902E+04</totfact>
</mgrwt>
</event>
<event>
 7    0  0.4737014E-002  0.4600015E+03  0.7546771E-02  0.1024781E+00
         21   -1    0    0  502  501  0.00000000000E+00  0.00000000000E+00  0.58246974493E+03  0.58246974493E+03  0.00000000000E+00 0. -1.
         21   -1    0    0  501  502 -0.00000000000E+00 -0.00000000000E+00 -0.90820745521E+02  0.90820745521E+02  0.00000000000E+00 0. -1.
      99926    2    1    2    0    0  0.00000000000E+00  0.00000000000E+00  0.49164899941E+03  0.67329049046E+03  0.46000146295E+03 0.  0.
      99925    2    3    3    0    0  0.33506230215E+02  0.54483436755E+02  0.16317949407E+03  0.31603590842E+03  0.26298295721E+03 0.  0.
         25    1    4    4    0    0  0.48987949488E+02  0.48582628245E+02  0.10377334741E+03  0.17656870248E+03  0.12509000000E+03 0.  0.
         25    1    3    3    0    0 -0.33506230215E+02 -0.54483436755E+02  0.32846950534E+03  0.35725458203E+03  0.12509000000E+03 0.  0.
         25    1    4    4    0    0 -0.15481719273E+02  0.59008085096E+01  0.59406146660E+02  0.13946720594E+03  0.12509000000E+03 0.  0.
<mgrwt>
<rscale>  2 0.46000146E+03</rscale>
<asrwt>0</asrwt>
<pdfrwt beam="1">  1       21 0.85657314E-01 0.46000146E+03</pdfrwt>
<pdfrwt beam="2">  1       21 0.13355992E-01 0.46000146E+03</pdfrwt>
<totfact> 0.52285516E+04</totfact>
</mgrwt>
</event>
<event>
 7    0  0.4737014E-002  0.4516602E+03  0.7546771E-02  0.1027228E+00
         21   -1    0    0  502  501  0.00000000000E+00  0.00000000000E+00  0.17334854894E+04  0.17334854894E+04  0.00000000000E+00 0. -1.
         21   -1    0    0  501  502 -0.00000000000E+00 -0.00000000000E+00 -0.29420057817E+02  0.29420057817E+02  0.00000000000E+00 0. -1.
      99926    2    1    2    0    0  0.71054273576E-14  0.00000000000E+00  0.17040654315E+04  0.17629055472E+04  0.45166024099E+03 0.  0.
      99925    2    3    3    0    0  0.49091829287E+02 -0.94111104732E+02  0.11921701158E+04  0.12253637069E+04  0.26263990803E+03 0.  0.
         25    1    3    3    0    0 -0.49091829287E+02  0.94111104732E+02  0.51189531570E+03  0.53754184030E+03  0.12509000000E+03 0.  0.
         25    1    4    4    0    0  0.73069080071E+01 -0.10670196293E+02  0.59436459044E+03  0.60752285427E+03  0.12509000000E+03 0.  0.
         25    1    4    4    0    0  0.41784921280E+02 -0.83440908438E+02  0.59780552539E+03  0.61784085259E+03  0.12509000000E+03 0.  0.
<mgrwt>
<rscale>  2 0.45166024E+03</rscale>
<asrwt>0</asrwt>
<pdfrwt beam="1">  1       21 0.25492427E+00 0.45166024E+03</pdfrwt>
<pdfrwt beam="2">  1       21 0.43264803E-02 0.45166024E+03</pdfrwt>
<totfact> 0.18457179E+04</totfact>
</mgrwt>
</event>
<event>
 7    0  0.4737014E-002  0.4404843E+03  0.7546771E-02  0.1030598E+00
         21   -1    0    0  502  501  0.00000000000E+00  0.00000000000E+00  0.81621861225E+02  0.81621861225E+02  0.00000000000E+00 0. -1.
         21   -1    0    0  501  502 -0.00000000000E+00 -0.00000000000E+00 -0.59428459903E+03  0.59428459903E+03  0.00000000000E+00 0. -1.
      99926    2    1    2    0    0  0.00000000000E+00  0.14210854715E-13 -0.51266273781E+03  0.67590646026E+03  0.44048434737E+03 0.  0.
      99925    2    3    3    0    0 -0.59025603063E+02 -0.79036556811E+02 -0.31389249792E+03  0.42117539522E+03  0.26292473098E+03 0.  0.
         25    1    4    4    0    0 -0.10789506341E+01 -0.57733111422E+02 -0.12261745024E+03  0.18443650260E+03  0.12509000000E+03 0.  0.
         25    1    3    3    0    0  0.59025603063E+02  0.79036556811E+02 -0.19877023989E+03  0.25473106504E+03  0.12509000000E+03 0.  0.
         25    1    4    4    0    0 -0.57946652429E+02 -0.21303445389E+02 -0.19127504768E+03  0.23673889262E+03  0.12509000000E+03 0.  0.
<mgrwt>
<rscale>  2 0.44048435E+03</rscale>
<asrwt>0</asrwt>
<pdfrwt beam="1">  1       21 0.12003215E-01 0.44048435E+03</pdfrwt>
<pdfrwt beam="2">  1       21 0.87394794E-01 0.44048435E+03</pdfrwt>
<totfact> 0.60899773E+04</totfact>
</mgrwt>
</event>
<event>
 7    0  0.4737014E-002  0.4549888E+03  0.7546771E-02  0.1026245E+00
         21   -1    0    0  502  501  0.00000000000E+00  0.00000000000E+00  0.70718787612E+02  0.70718787612E+02  0.00000000000E+00 0.  1.
         21   -1    0    0  501  502 -0.00000000000E+00 -0.00000000000E+00 -0.73182401958E+03  0.73182401958E+03  0.00000000000E+00 0.  1.
      99926    2    1    2    0    0  0.00000000000E+00  0.00000000000E+00 -0.66110523197E+03  0.80254280719E+03  0.45498882364E+03 0.  0.
      99925    2    3    3    0    0  0.56019443069E+02 -0.98263177064E+02 -0.41812527616E+03  0.50677161692E+03  0.26304922579E+03 0.  0.
         25    1    3    3    0    0 -0.56019443069E+02  0.98263177064E+02 -0.24297995581E+03  0.29577119027E+03  0.12509000000E+03 0.  0.
         25    1    4    4    0    0  0.21189342759E+02 -0.72968804780E+02 -0.16080624752E+03  0.21743870874E+03  0.12509000000E+03 0.  0.
         25    1    4    4    0    0  0.34830100310E+02 -0.25294372284E+02 -0.25731902864E+03  0.28933290818E+03  0.12509000000E+03 0.  0.
<mgrwt>
<rscale>  2 0.45498882E+03</rscale>
<asrwt>0</asrwt>
<pdfrwt beam="1">  1       21 0.10399821E-01 0.45498882E+03</pdfrwt>
<pdfrwt beam="2">  1       21 0.10762118E+00 0.45498882E+03</pdfrwt>
<totfact> 0.47646237E+04</totfact>
</mgrwt>
</event>
<event>
 7    0  0.4737014E-002  0.4481736E+03  0.7546771E-02  0.1028268E+00
         21   -1    0    0  502  501  0.00000000000E+00  0.00000000000E+00  0.53547627788E+02  0.53547627788E+02  0.00000000000E+00 0. -1.
         21   -1    0    0  501  502 -0.00000000000E+00 -0.00000000000E+00 -0.93776122692E+03  0.93776122692E+03  0.00000000000E+00 0. -1.
      99926    2    1    2    0    0  0.00000000000E+00  0.00000000000E+00 -0.88421359913E+03  0.99130885470E+03  0.44817357857E+03 0.  0.
      99925    2    3    3    0    0  0.38446044500E+02 -0.55175663415E+02 -0.37685246631E+03  0.46444522968E+03  0.26300026206E+03 0.  0.
         25    1    3    3    0    0 -0.38446044500E+02  0.55175663415E+02 -0.50736113282E+03  0.52686362502E+03  0.12509000000E+03 0.  0.
         25    1    4    4    0    0  0.46475656778E+02 -0.34612873172E+01 -0.21763345103E+03  0.25531117150E+03  0.12509000000E+03 0.  0.
         25    1    4    4    0    0 -0.80296122777E+01 -0.51714376098E+02 -0.15921901527E+03  0.20913405818E+03  0.12509000000E+03 0.  0.
<mgrwt>
<rscale>  2 0.44817358E+03</rscale>
<asrwt>0</asrwt>
<pdfrwt beam="1">  1       21 0.78746516E-02 0.44817358E+03</pdfrwt>
<pdfrwt beam="2">  1       21 0.13790605E+00 0.44817358E+03</pdfrwt>
<totfact> 0.41685153E+04</totfact>
</mgrwt>
</event>
<event>
 7    0  0.4737014E-002  0.4669576E+03  0.7546771E-02  0.1022782E+00
         21   -1    0    0  502  501  0.00000000000E+00  0.00000000000E+00  0.83551210921E+02  0.83551210921E+02  0.00000000000E+00 0. -1.
         21   -1    0    0  501  502 -0.00000000000E+00 -0.00000000000E+00 -0.65244247186E+03  0.65244247186E+03  0.00000000000E+00 0. -1.
      99926    2    1    2    0    0 -0.14210854715E-13 -0.71054273576E-14 -0.56889126093E+03  0.73599368278E+03  0.46695763654E+03 0.  0.
      99925    2    3    3    0    0 -0.66795924613E+02 -0.42789671284E+02 -0.50473934611E+03  0.57457612553E+03  0.26283695516E+03 0.  0.
         25    1    4    4    0    0 -0.66798856235E+02 -0.18645970816E+02 -0.21702368809E+03  0.25991642640E+03  0.12509000000E+03 0.  0.
         25    1    4    4    0    0  0.29316227010E-02 -0.24143700468E+02 -0.28771565802E+03  0.31465969912E+03  0.12509000000E+03 0.  0.
         25    1    3    3    0    0  0.66795924613E+02  0.42789671284E+02 -0.64151914821E+02  0.16141755725E+03  0.12509000000E+03 0.  0.
<mgrwt>
<rscale>  2 0.46695764E+03</rscale>
<asrwt>0</asrwt>
<pdfrwt beam="1">  1       21 0.12286942E-01 0.46695764E+03</pdfrwt>
<pdfrwt beam="2">  1       21 0.95947425E-01 0.46695764E+03</pdfrwt>
<totfact> 0.46466714E+04</totfact>
</mgrwt>
</event>
<event>
 7    0  0.4737014E-002  0.4539083E+03  0.7546771E-02  0.1026563E+00
         21   -1    0    0  502  501  0.00000000000E+00  0.00000000000E+00  0.24896063076E+03  0.24896063076E+03  0.00000000000E+00 0. -1.
         21   -1    0    0  501  502 -0.00000000000E+00 -0.00000000000E+00 -0.20689289653E+03  0.20689289653E+03  0.00000000000E+00 0. -1.
      99926    2    1    2    0    0  0.14210854715E-13  0.00000000000E+00  0.42067734231E+02  0.45585352729E+03  0.45390829920E+03 0.  0.
      99925    2    3    3    0    0 -0.10148771304E+03  0.48219342226E+02  0.26063584578E+02  0.28694970327E+03  0.26274695222E+03 0.  0.
         25    1    4    4    0    0 -0.46482315759E+02  0.64319378134E+02  0.15592210381E+02  0.14895708512E+03  0.12509000000E+03 0.  0.
         25    1    3    3    0    0  0.10148771304E+03 -0.48219342226E+02  0.16004149653E+02  0.16890382402E+03  0.12509000000E+03 0.  0.
         25    1    4    4    0    0 -0.55005397284E+02 -0.16100035908E+02  0.10471374197E+02  0.13799261815E+03  0.12509000000E+03 0.  0.
<mgrwt>
<rscale>  2 0.45390830E+03</rscale>
<asrwt>0</asrwt>
<pdfrwt beam="1">  1       21 0.36611858E-01 0.45390830E+03</pdfrwt>
<pdfrwt beam="2">  1       21 0.30425426E-01 0.45390830E+03</pdfrwt>
<totfact> 0.69083095E+04</totfact>
</mgrwt>
</event>
<event>
 7    0  0.4737014E-002  0.4552941E+03  0.7546771E-02  0.1026155E+00
         21   -1    0    0  502  501  0.00000000000E+00  0.00000000000E+00  0.99390409678E+02  0.99390409678E+02  0.00000000000E+00 0. -1.
         21   -1    0    0  501  502 -0.00000000000E+00 -0.00000000000E+00 -0.52141033969E+03  0.52141033969E+03  0.00000000000E+00 0. -1.
      99926    2    1    2    0    0  0.00000000000E+00 -0.35527136788E-14 -0.42201993002E+03  0.62080074937E+03  0.45529413470E+03 0.  0.
      99925    2    3    3    0    0 -0.11014044900E+03  0.26224947890E+02 -0.27536411149E+03  0.39725186522E+03  0.26299236515E+03 0.  0.
         25    1    3    3    0    0  0.11014044900E+03 -0.26224947890E+02 -0.14665581852E+03  0.22354888415E+03  0.12509000000E+03 0.  0.
         25    1    4    4    0    0 -0.86199408953E+02  0.81305043021E+01 -0.18757052035E+03  0.24150911247E+03  0.12509000000E+03 0.  0.
         25    1    4    4    0    0 -0.23941040050E+02  0.18094443588E+02 -0.87793591143E+02  0.15574275275E+03  0.12509000000E+03 0.  0.
<mgrwt>
<rscale>  2 0.45529413E+03</rscale>
<asrwt>0</asrwt>
<pdfrwt beam="1">  1       21 0.14616237E-01 0.45529413E+03</pdfrwt>
<pdfrwt beam="2">  1       21 0.76677991E-01 0.45529413E+03</pdfrwt>
<totfact> 0.57282693E+04</totfact>
</mgrwt>
</event>
<event>
 7    0  0.4737014E-002  0.4038390E+03  0.7546771E-02  0.1042458E+00
         21   -1    0    0  502  501  0.00000000000E+00  0.00000000000E+00  0.11581175845E+03  0.11581175845E+03  0.00000000000E+00 0. -1.
         21   -1    0    0  501  502 -0.00000000000E+00 -0.00000000000E+00 -0.35204953257E+03  0.35204953257E+03  0.00000000000E+00 0. -1.
      99926    2    1    2    0    0  0.00000000000E+00  0.00000000000E+00 -0.23623777413E+03  0.46786129102E+03  0.40383895517E+03 0.  0.
      99925    2    3    3    0    0  0.26777480109E+02 -0.35250887669E+02 -0.18963807614E+03  0.32722453027E+03  0.26297078690E+03 0.  0.
         25    1    4    4    0    0  0.41138185600E+02  0.11869421181E+02 -0.92224778031E+02  0.16120220612E+03  0.12509000000E+03 0.  0.
         25    1    3    3    0    0 -0.26777480109E+02  0.35250887669E+02 -0.46599697986E+02  0.14063676075E+03  0.12509000000E+03 0.  0.
         25    1    4    4    0    0 -0.14360705491E+02 -0.47120308850E+02 -0.97413298109E+02  0.16602232415E+03  0.12509000000E+03 0.  0.
<mgrwt>
<rscale>  2 0.40383896E+03</rscale>
<asrwt>0</asrwt>
<pdfrwt beam="1">  1       21 0.17031141E-01 0.40383896E+03</pdfrwt>
<pdfrwt beam="2">  1       21 0.51771991E-01 0.40383896E+03</pdfrwt>
<totfact> 0.10373091E+05</totfact>
</mgrwt>
</event>
<event>
 7    0  0.4737014E-002  0.4572239E+03  0.7546771E-02  0.1025589E+00
         21   -1    0    0  502  501  0.00000000000E+00  0.00000000000E+00  0.29118559382E+03  0.29118559382E+03  0.00000000000E+00 0.  1.
         21   -1    0    0  501  502 -0.00000000000E+00 -0.00000000000E+00 -0.17948495025E+03  0.17948495025E+03  0.00000000000E+00 0.  1.
      99926    2    1    2    0    0  0.00000000000E+00  0.00000000000E+00  0.11170064357E+03  0.47067054407E+03  0.45722393560E+03 0.  0.
      99925    2    3    3    0    0  0.11349315668E+03 -0.54679629287E+01  0.50153847441E+02  0.29082029679E+03  0.26296471509E+03 0.  0.
         25    1    3    3    0    0 -0.11349315668E+03  0.54679629287E+01  0.61546796131E+02  0.17985024728E+03  0.12509000000E+03 0.  0.
         25    1    4    4    0    0  0.20091121638E+02  0.18327068912E+02  0.13633877226E+02  0.12873587430E+03  0.12509000000E+03 0.  0.
         25    1    4    4    0    0  0.93402035044E+02 -0.23795031841E+02  0.36519970215E+02  0.16208442249E+03  0.12509000000E+03 0.  0.
<mgrwt>
<rscale>  2 0.45722394E+03</rscale>
<asrwt>0</asrwt>
<pdfrwt beam="1">  1       21 0.42821411E-01 0.45722394E+03</pdfrwt>
<pdfrwt beam="2">  1       21 0.26394846E-01 0.45722394E+03</pdfrwt>
<totfact> 0.66210126E+04</totfact>
</mgrwt>
</event>
<event>
 7    0  0.4737014E-002  0.4571253E+03  0.7546771E-02  0.1025618E+00
         21   -1    0    0  502  501  0.00000000000E+00  0.00000000000E+00  0.25499571390E+03  0.25499571390E+03  0.00000000000E+00 0.  1.
         21   -1    0    0  501  502 -0.00000000000E+00 -0.00000000000E+00 -0.20486964376E+03  0.20486964376E+03  0.00000000000E+00 0.  1.
      99926    2    1    2    0    0 -0.53290705182E-14  0.14210854715E-13  0.50126070137E+02  0.45986535766E+03  0.45712528290E+03 0.  0.
      99925    2    3    3    0    0 -0.13200547726E+02  0.81693677002E+02  0.11198635090E+03  0.29762382858E+03  0.26304161121E+03 0.  0.
         25    1    4    4    0    0 -0.38274903388E+02  0.51676227515E+02  0.83269629596E+02  0.16345256203E+03  0.12509000000E+03 0.  0.
         25    1    4    4    0    0  0.25074355662E+02  0.30017449487E+02  0.28716721304E+02  0.13417126655E+03  0.12509000000E+03 0.  0.
         25    1    3    3    0    0  0.13200547726E+02 -0.81693677002E+02 -0.61860280763E+02  0.16224152908E+03  0.12509000000E+03 0.  0.
<mgrwt>
<rscale>  2 0.45712528E+03</rscale>
<asrwt>0</asrwt>
<pdfrwt beam="1">  1       21 0.37499370E-01 0.45712528E+03</pdfrwt>
<pdfrwt beam="2">  1       21 0.30127889E-01 0.45712528E+03</pdfrwt>
<totfact> 0.67046656E+04</totfact>
</mgrwt>
</event>
<event>
 7    0  0.4737014E-002  0.4453330E+03  0.7546771E-02  0.1029123E+00
         21   -1    0    0  502  501  0.00000000000E+00  0.00000000000E+00  0.18169142179E+03  0.18169142179E+03  0.00000000000E+00 0.  1.
         21   -1    0    0  501  502 -0.00000000000E+00 -0.00000000000E+00 -0.27288227419E+03  0.27288227419E+03  0.00000000000E+00 0.  1.
      99926    2    1    2    0    0  0.00000000000E+00  0.14210854715E-13 -0.91190852400E+02  0.45457369598E+03  0.44533299172E+03 0.  0.
      99925    2    3    3    0    0 -0.30809846631E+02 -0.94695550221E+02 -0.87582939535E+02  0.29464552768E+03  0.26311351505E+03 0.  0.
         25    1    4    4    0    0 -0.27647649217E+02 -0.24864703899E+02 -0.80272531431E+01  0.13074628446E+03  0.12509000000E+03 0.  0.
         25    1    4    4    0    0 -0.31621974133E+01 -0.69830846322E+02 -0.79555686392E+02  0.16389924322E+03  0.12509000000E+03 0.  0.
         25    1    3    3    0    0  0.30809846631E+02  0.94695550221E+02 -0.36079128649E+01  0.15992816830E+03  0.12509000000E+03 0.  0.
<mgrwt>
<rscale>  2 0.44533299E+03</rscale>
<asrwt>0</asrwt>
<pdfrwt beam="1">  1       21 0.26719327E-01 0.44533299E+03</pdfrwt>
<pdfrwt beam="2">  1       21 0.40129746E-01 0.44533299E+03</pdfrwt>
<totfact> 0.74123666E+04</totfact>
</mgrwt>
</event>
<event>
 7    0  0.4737014E-002  0.4556872E+03  0.7546771E-02  0.1026040E+00
         21   -1    0    0  502  501  0.00000000000E+00  0.00000000000E+00  0.14476876613E+03  0.14476876613E+03  0.00000000000E+00 0.  1.
         21   -1    0    0  501  502 -0.00000000000E+00 -0.00000000000E+00 -0.35859046299E+03  0.35859046299E+03  0.00000000000E+00 0.  1.
      99926    2    1    2    0    0 -0.35527136788E-14  0.00000000000E+00 -0.21382169686E+03  0.50335922912E+03  0.45568716845E+03 0.  0.
      99925    2    3    3    0    0  0.92859436372E+01 -0.10833416511E+03 -0.97369034900E+02  0.30079750851E+03  0.26301310250E+03 0.  0.
         25    1    4    4    0    0 -0.31381521725E+02 -0.73829780812E+02 -0.49391793549E+02  0.15659723436E+03  0.12509000000E+03 0.  0.
         25    1    3    3    0    0 -0.92859436372E+01  0.10833416511E+03 -0.11645266196E+03  0.20256172061E+03  0.12509000000E+03 0.  0.
         25    1    4    4    0    0  0.40667465362E+02 -0.34504384303E+02 -0.47977241351E+02  0.14420027414E+03  0.12509000000E+03 0.  0.
<mgrwt>
<rscale>  2 0.45568717E+03</rscale>
<asrwt>0</asrwt>
<pdfrwt beam="1">  1       21 0.21289524E-01 0.45568717E+03</pdfrwt>
<pdfrwt beam="2">  1       21 0.52733892E-01 0.45568717E+03</pdfrwt>
<totfact> 0.64681778E+04</totfact>
</mgrwt>
</event>
<event>
 7    0  0.4737014E-002  0.4376424E+03  0.7546771E-02  0.1031473E+00
         21   -1    0    0  502  501  0.00000000000E+00  0.00000000000E+00  0.18160408768E+03  0.18160408768E+03  0.00000000000E+00 0. -1.
         21   -1    0    0  501  502 -0.00000000000E+00 -0.00000000000E+00 -0.26366535951E+03  0.26366535951E+03  0.00000000000E+00 0. -1.
      99926    2    1    2    0    0  0.00000000000E+00  0.00000000000E+00 -0.82061271832E+02  0.44526944719E+03  0.43764235200E+03 0.  0.
      99925    2    3    3    0    0 -0.46679885309E+02  0.70357373114E+02 -0.65117372511E+01  0.27649619125E+03  0.26320822443E+03 0.  0.
         25    1    3    3    0    0  0.46679885309E+02 -0.70357373114E+02 -0.75549534581E+02  0.16877325594E+03  0.12509000000E+03 0.  0.
         25    1    4    4    0    0 -0.10488234331E+02  0.57205568091E+02 -0.35495261012E+02  0.14244262611E+03  0.12509000000E+03 0.  0.
         25    1    4    4    0    0 -0.36191650978E+02  0.13151805023E+02  0.28983523761E+02  0.13405356514E+03  0.12509000000E+03 0.  0.
<mgrwt>
<rscale>  2 0.43764235E+03</rscale>
<asrwt>0</asrwt>
<pdfrwt beam="1">  1       21 0.26706484E-01 0.43764235E+03</pdfrwt>
<pdfrwt beam="2">  1       21 0.38774317E-01 0.43764235E+03</pdfrwt>
<totfact> 0.79744321E+04</totfact>
</mgrwt>
</event>
<event>
 7    0  0.4737014E-002  0.4829711E+03  0.7546771E-02  0.1018322E+00
         21   -1    0    0  502  501  0.00000000000E+00  0.00000000000E+00  0.50455866621E+03  0.50455866621E+03  0.00000000000E+00 0. -1.
         21   -1    0    0  501  502 -0.00000000000E+00 -0.00000000000E+00 -0.11557679832E+03  0.11557679832E+03  0.00000000000E+00 0. -1.
      99926    2    1    2    0    0 -0.88817841970E-15  0.26645352591E-14  0.38898186790E+03  0.62013546453E+03  0.48297111799E+03 0.  0.
      99925    2    3    3    0    0 -0.74313776659E+01 -0.55844978558E+01  0.62641022491E+02  0.27051814878E+03  0.26300144321E+03 0.  0.
         25    1    4    4    0    0 -0.15193732608E+01  0.37541848721E+02  0.34963434603E+02  0.13520964744E+03  0.12509000000E+03 0.  0.
         25    1    4    4    0    0 -0.59120044051E+01 -0.43126346577E+02  0.27677587887E+02  0.13530850135E+03  0.12509000000E+03 0.  0.
         25    1    3    3    0    0  0.74313776659E+01  0.55844978558E+01  0.32634084541E+03  0.34961731575E+03  0.12509000000E+03 0.  0.
<mgrwt>
<rscale>  2 0.48297112E+03</rscale>
<asrwt>0</asrwt>
<pdfrwt beam="1">  1       21 0.74199803E-01 0.48297112E+03</pdfrwt>
<pdfrwt beam="2">  1       21 0.16996588E-01 0.48297112E+03</pdfrwt>
<totfact> 0.46338511E+04</totfact>
</mgrwt>
</event>
<event>
 7    0  0.4737014E-002  0.4551022E+03  0.7546771E-02  0.1026211E+00
         21   -1    0    0  502  501  0.00000000000E+00  0.00000000000E+00  0.22552393888E+03  0.22552393888E+03  0.00000000000E+00 0.  1.
         21   -1    0    0  501  502 -0.00000000000E+00 -0.00000000000E+00 -0.22959643861E+03  0.22959643861E+03  0.00000000000E+00 0.  1.
      99926    2    1    2    0    0  0.00000000000E+00  0.00000000000E+00 -0.40724997347E+01  0.45512037749E+03  0.45510215640E+03 0.  0.
      99925    2    3    3    0    0  0.78090876456E+02 -0.67825457351E+02 -0.48511572828E+02  0.28683247844E+03  0.26309887940E+03 0.  0.
         25    1    4    4    0    0  0.15302524398E+02 -0.36383305098E+02 -0.57240752403E+02  0.14311507251E+03  0.12509000000E+03 0.  0.
         25    1    3    3    0    0 -0.78090876456E+02  0.67825457351E+02  0.44439073094E+02  0.16828789905E+03  0.12509000000E+03 0.  0.
         25    1    4    4    0    0  0.62788352058E+02 -0.31442152253E+02  0.87291795745E+01  0.14371740593E+03  0.12509000000E+03 0.  0.
<mgrwt>
<rscale>  2 0.45510216E+03</rscale>
<asrwt>0</asrwt>
<pdfrwt beam="1">  1       21 0.33165285E-01 0.45510216E+03</pdfrwt>
<pdfrwt beam="2">  1       21 0.33764182E-01 0.45510216E+03</pdfrwt>
<totfact> 0.68481137E+04</totfact>
</mgrwt>
</event>
<event>
 7    0  0.4737014E-002  0.4548521E+03  0.7546771E-02  0.1026285E+00
         21   -1    0    0  502  501  0.00000000000E+00  0.00000000000E+00  0.70453265126E+03  0.70453265126E+03  0.00000000000E+00 0.  1.
         21   -1    0    0  501  502 -0.00000000000E+00 -0.00000000000E+00 -0.73414071648E+02  0.73414071648E+02  0.00000000000E+00 0.  1.
      99926    2    1    2    0    0  0.00000000000E+00  0.00000000000E+00  0.63111857961E+03  0.77794672291E+03  0.45485211020E+03 0.  0.
      99925    2    3    3    0    0 -0.10235648349E+03 -0.45556165702E+02  0.37157540953E+03  0.46881506943E+03  0.26299633155E+03 0.  0.
         25    1    4    4    0    0 -0.90029737443E+02 -0.26222374303E+02  0.17469904162E+03  0.23443598226E+03  0.12509000000E+03 0.  0.
         25    1    3    3    0    0  0.10235648349E+03  0.45556165702E+02  0.25954317008E+03  0.30913165348E+03  0.12509000000E+03 0.  0.
         25    1    4    4    0    0 -0.12326746048E+02 -0.19333791400E+02  0.19687636791E+03  0.23437908716E+03  0.12509000000E+03 0.  0.
<mgrwt>
<rscale>  2 0.45485211E+03</rscale>
<asrwt>0</asrwt>
<pdfrwt beam="1">  1       21 0.10360774E+00 0.45485211E+03</pdfrwt>
<pdfrwt beam="2">  1       21 0.10796187E-01 0.45485211E+03</pdfrwt>
<totfact> 0.48906781E+04</totfact>
</mgrwt>
</event>
<event>
 7    0  0.4737014E-002  0.4514292E+03  0.7546771E-02  0.1027297E+00
         21   -1    0    0  502  501  0.00000000000E+00  0.00000000000E+00  0.12739566599E+04  0.12739566599E+04  0.00000000000E+00 0.  1.
         21   -1    0    0  501  502 -0.00000000000E+00 -0.00000000000E+00 -0.39991222438E+02  0.39991222438E+02  0.00000000000E+00 0.  1.
      99926    2    1    2    0    0 -0.71054273576E-14  0.00000000000E+00  0.12339654375E+04  0.13139478824E+04  0.45142921555E+03 0.  0.
      99925    2    3    3    0    0 -0.60764122196E+02 -0.36419125869E+02  0.10229291827E+04  0.10586001974E+04  0.26311904882E+03 0.  0.
         25    1    4    4    0    0 -0.60203124793E+02 -0.15946858828E+02  0.42498096567E+03  0.44736455808E+03  0.12509000000E+03 0.  0.
         25    1    4    4    0    0 -0.56099740273E+00 -0.20472267041E+02  0.59794821707E+03  0.61123563937E+03  0.12509000000E+03 0.  0.
         25    1    3    3    0    0  0.60764122196E+02  0.36419125869E+02  0.21103625474E+03  0.25534768491E+03  0.12509000000E+03 0.  0.
<mgrwt>
<rscale>  2 0.45142922E+03</rscale>
<asrwt>0</asrwt>
<pdfrwt beam="1">  1       21 0.18734654E+00 0.45142922E+03</pdfrwt>
<pdfrwt beam="2">  1       21 0.58810630E-02 0.45142922E+03</pdfrwt>
<totfact> 0.29523623E+04</totfact>
</mgrwt>
</event>
<event>
 7    0  0.4737014E-002  0.4461708E+03  0.7546771E-02  0.1028870E+00
         21   -1    0    0  502  501  0.00000000000E+00  0.00000000000E+00  0.12139211632E+03  0.12139211632E+03  0.00000000000E+00 0. -1.
         21   -1    0    0  501  502 -0.00000000000E+00 -0.00000000000E+00 -0.40996981275E+03  0.40996981275E+03  0.00000000000E+00 0. -1.
      99926    2    1    2    0    0  0.14210854715E-13  0.00000000000E+00 -0.28857769643E+03  0.53136192907E+03  0.44617083364E+03 0.  0.
      99925    2    3    3    0    0 -0.96340553848E+02 -0.40853420178E+02 -0.18705281898E+03  0.33925437301E+03  0.26297199140E+03 0.  0.
         25    1    3    3    0    0  0.96340553848E+02  0.40853420178E+02 -0.10152487744E+03  0.19210755606E+03  0.12509000000E+03 0.  0.
         25    1    4    4    0    0 -0.48096352300E+02 -0.51073278053E+02 -0.12862333368E+03  0.19264788839E+03  0.12509000000E+03 0.  0.
         25    1    4    4    0    0 -0.48244201548E+02  0.10219857875E+02 -0.58429485304E+02  0.14660648461E+03  0.12509000000E+03 0.  0.
<mgrwt>
<rscale>  2 0.44617083E+03</rscale>
<asrwt>0</asrwt>
<pdfrwt beam="1">  1       21 0.17851782E-01 0.44617083E+03</pdfrwt>
<pdfrwt beam="2">  1       21 0.60289679E-01 0.44617083E+03</pdfrwt>
<totfact> 0.67725724E+04</totfact>
</mgrwt>
</event>
<event>
 7    0  0.4737014E-002  0.4549464E+03  0.7546771E-02  0.1026257E+00
         21   -1    0    0  502  501  0.00000000000E+00  0.00000000000E+00  0.21886594577E+03  0.21886594577E+03  0.00000000000E+00 0. -1.
         21   -1    0    0  501  502 -0.00000000000E+00 -0.00000000000E+00 -0.23641894581E+03  0.23641894581E+03  0.00000000000E+00 0. -1.
      99926    2    1    2    0    0 -0.11102230246E-14  0.00000000000E+00 -0.17553000045E+02  0.45528489158E+03  0.45494639760E+03 0.  0.
      99925    2    3    3    0    0  0.19039115273E+01 -0.91277789636E+02 -0.77829117935E+02  0.28910433240E+03  0.26303741874E+03 0.  0.
         25    1    4    4    0    0  0.10633691359E+02 -0.78069352093E+02 -0.16079066976E+02  0.14870757756E+03  0.12509000000E+03 0.  0.
         25    1    3    3    0    0 -0.19039115273E+01  0.91277789636E+02  0.60276117890E+02  0.16618055918E+03  0.12509000000E+03 0.  0.
         25    1    4    4    0    0 -0.87297798320E+01 -0.13208437543E+02 -0.61750050959E+02  0.14039675485E+03  0.12509000000E+03 0.  0.
<mgrwt>
<rscale>  2 0.45494640E+03</rscale>
<asrwt>0</asrwt>
<pdfrwt beam="1">  1       21 0.32186168E-01 0.45494640E+03</pdfrwt>
<pdfrwt beam="2">  1       21 0.34767492E-01 0.45494640E+03</pdfrwt>
<totfact> 0.68554259E+04</totfact>
</mgrwt>
</event>
<event>
 7    0  0.4737014E-002  0.4631156E+03  0.7546771E-02  0.1023881E+00
         21   -1    0    0  502  501  0.00000000000E+00  0.00000000000E+00  0.97729461319E+03  0.97729461319E+03  0.00000000000E+00 0.  1.
         21   -1    0    0  501  502 -0.00000000000E+00 -0.00000000000E+00 -0.54864740984E+02  0.54864740984E+02  0.00000000000E+00 0.  1.
      99926    2    1    2    0    0  0.00000000000E+00  0.71054273576E-14  0.92242987221E+03  0.10321593542E+04  0.46311560465E+03 0.  0.
      99925    2    3    3    0    0  0.11100631028E+03 -0.44809021356E+02  0.60816877782E+03  0.67335886245E+03  0.26308296412E+03 0.  0.
         25    1    4    4    0    0  0.36943245052E+02 -0.25894182632E+02  0.37558011058E+03  0.39842595249E+03  0.12509000000E+03 0.  0.
         25    1    4    4    0    0  0.74063065226E+02 -0.18914838724E+02  0.23258866724E+03  0.27493290997E+03  0.12509000000E+03 0.  0.
         25    1    3    3    0    0 -0.11100631028E+03  0.44809021356E+02  0.31426109438E+03  0.35880049172E+03  0.12509000000E+03 0.  0.
<mgrwt>
<rscale>  2 0.46311560E+03</rscale>
<asrwt>0</asrwt>
<pdfrwt beam="1">  1       21 0.14371979E+00 0.46311560E+03</pdfrwt>
<pdfrwt beam="2">  1       21 0.80683449E-02 0.46311560E+03</pdfrwt>
<totfact> 0.35627557E+04</totfact>
</mgrwt>
</event>
<event>
 7    0  0.4737014E-002  0.4547349E+03  0.7546771E-02  0.1026319E+00
         21   -1    0    0  502  501  0.00000000000E+00  0.00000000000E+00  0.84790941594E+02  0.84790941594E+02  0.00000000000E+00 0. -1.
         21   -1    0    0  501  502 -0.00000000000E+00 -0.00000000000E+00 -0.60968714731E+03  0.60968714731E+03  0.00000000000E+00 0. -1.
      99926    2    1    2    0    0  0.00000000000E+00  0.00000000000E+00 -0.52489620572E+03  0.69447808891E+03  0.45473485592E+03 0.  0.
      99925    2    3    3    0    0  0.34415989684E+02  0.96281640024E+02 -0.40362040405E+03  0.49246337973E+03  0.26297554119E+03 0.  0.
         25    1    4    4    0    0  0.53573934638E+02  0.68085580766E+02 -0.20584629859E+03  0.25598050614E+03  0.12509000000E+03 0.  0.
         25    1    3    3    0    0 -0.34415989684E+02 -0.96281640024E+02 -0.12127580167E+03  0.20201470917E+03  0.12509000000E+03 0.  0.
         25    1    4    4    0    0 -0.19157944954E+02  0.28196059257E+02 -0.19777410546E+03  0.23648287360E+03  0.12509000000E+03 0.  0.
<mgrwt>
<rscale>  2 0.45473486E+03</rscale>
<asrwt>0</asrwt>
<pdfrwt beam="1">  1       21 0.12469257E-01 0.45473486E+03</pdfrwt>
<pdfrwt beam="2">  1       21 0.89659871E-01 0.45473486E+03</pdfrwt>
<totfact> 0.53315003E+04</totfact>
</mgrwt>
</event>
<event>
 7    0  0.4737014E-002  0.4528572E+03  0.7546771E-02  0.1026873E+00
         21   -1    0    0  502  501  0.00000000000E+00  0.00000000000E+00  0.30386884449E+03  0.30386884449E+03  0.00000000000E+00 0. -1.
         21   -1    0    0  501  502 -0.00000000000E+00 -0.00000000000E+00 -0.16872380396E+03  0.16872380396E+03  0.00000000000E+00 0. -1.
      99926    2    1    2    0    0  0.00000000000E+00 -0.62172489379E-14  0.13514504053E+03  0.47259264846E+03  0.45285718433E+03 0.  0.
      99925    2    3    3    0    0 -0.88666342207E+02 -0.62529259991E+01  0.15555896475E+02  0.27804216452E+03  0.26299171092E+03 0.  0.
         25    1    4    4    0    0 -0.45400441063E+02  0.37282281993E+02  0.10908574014E+02  0.13862782436E+03  0.12509000000E+03 0.  0.
         25    1    4    4    0    0 -0.43265901144E+02 -0.43535207992E+02  0.46473224607E+01  0.13941434016E+03  0.12509000000E+03 0.  0.
         25    1    3    3    0    0  0.88666342207E+02  0.62529259991E+01  0.11958914406E+03  0.19455048394E+03  0.12509000000E+03 0.  0.
<mgrwt>
<rscale>  2 0.45285718E+03</rscale>
<asrwt>0</asrwt>
<pdfrwt beam="1">  1       21 0.44686595E-01 0.45285718E+03</pdfrwt>
<pdfrwt beam="2">  1       21 0.24812324E-01 0.45285718E+03</pdfrwt>
<totfact> 0.68399082E+04</totfact>
</mgrwt>
</event>
<event>
 7    0  0.4737014E-002  0.4502978E+03  0.7546771E-02  0.1027633E+00
         21   -1    0    0  502  501  0.00000000000E+00  0.00000000000E+00  0.95760661678E+02  0.95760661678E+02  0.00000000000E+00 0.  1.
         21   -1    0    0  501  502 -0.00000000000E+00 -0.00000000000E+00 -0.52936165283E+03  0.52936165283E+03  0.00000000000E+00 0.  1.
      99926    2    1    2    0    0 -0.35527136788E-14  0.00000000000E+00 -0.43360099115E+03  0.62512231451E+03  0.45029777766E+03 0.  0.
      99925    2    3    3    0    0  0.28845945319E+02  0.55045334000E+02 -0.39660010864E+03  0.48062784830E+03  0.26429038015E+03 0.  0.
         25    1    4    4    0    0 -0.11006434249E+02  0.11564903937E+02 -0.13509832305E+03  0.18480788292E+03  0.12509000000E+03 0.  0.
         25    1    4    4    0    0  0.39852379568E+02  0.43480430062E+02 -0.26150178559E+03  0.29581996538E+03  0.12509000000E+03 0.  0.
         25    1    3    3    0    0 -0.28845945319E+02 -0.55045334000E+02 -0.37000882515E+02  0.14449446620E+03  0.12509000000E+03 0.  0.
<mgrwt>
<rscale>  2 0.45029778E+03</rscale>
<asrwt>0</asrwt>
<pdfrwt beam="1">  1       21 0.14082450E-01 0.45029778E+03</pdfrwt>
<pdfrwt beam="2">  1       21 0.77847302E-01 0.45029778E+03</pdfrwt>
<totfact> 0.59330056E+04</totfact>
</mgrwt>
</event>
<event>
 7    0  0.4737014E-002  0.4558077E+03  0.7546771E-02  0.1026004E+00
         21   -1    0    0  502  501  0.00000000000E+00  0.00000000000E+00  0.17248149334E+04  0.17248149334E+04  0.00000000000E+00 0.  1.
         21   -1    0    0  501  502 -0.00000000000E+00 -0.00000000000E+00 -0.30113467950E+02  0.30113467950E+02  0.00000000000E+00 0.  1.
      99926    2    1    2    0    0  0.26645352591E-14  0.00000000000E+00  0.16947014654E+04  0.17549284013E+04  0.45580767530E+03 0.  0.
      99925    2    3    3    0    0 -0.28862662466E+01 -0.89663794402E+02  0.13355783566E+04  0.13642049161E+04  0.26313034749E+03 0.  0.
         25    1    4    4    0    0 -0.20962521391E+02 -0.22544245579E+02  0.77585262490E+03  0.78647471286E+03  0.12509000000E+03 0.  0.
         25    1    3    3    0    0  0.28862662466E+01  0.89663794402E+02  0.35912310878E+03  0.39072348524E+03  0.12509000000E+03 0.  0.
         25    1    4    4    0    0  0.18076255144E+02 -0.67119548823E+02  0.55972573175E+03  0.57773020322E+03  0.12509000000E+03 0.  0.
<mgrwt>
<rscale>  2 0.45580768E+03</rscale>
<asrwt>0</asrwt>
<pdfrwt beam="1">  1       21 0.25364919E+00 0.45580768E+03</pdfrwt>
<pdfrwt beam="2">  1       21 0.44284523E-02 0.45580768E+03</pdfrwt>
<totfact> 0.18028495E+04</totfact>
</mgrwt>
</event>
<event>
 7    0  0.4737014E-002  0.4526339E+03  0.7546771E-02  0.1026939E+00
         21   -1    0    0  502  501  0.00000000000E+00  0.00000000000E+00  0.43109277927E+03  0.43109277927E+03  0.00000000000E+00 0.  1.
         21   -1    0    0  501  502 -0.00000000000E+00 -0.00000000000E+00 -0.11881286455E+03  0.11881286455E+03  0.00000000000E+00 0.  1.
      99926    2    1    2    0    0  0.00000000000E+00  0.00000000000E+00  0.31227991473E+03  0.54990564382E+03  0.45263392710E+03 0.  0.
      99925    2    3    3    0    0  0.10250896766E+03  0.32634532218E+02  0.16264220476E+03  0.32716801007E+03  0.26270386160E+03 0.  0.
         25    1    4    4    0    0  0.95944885636E+01  0.12982315888E+02  0.61123878356E+02  0.14015788006E+03  0.12509000000E+03 0.  0.
         25    1    4    4    0    0  0.92914479098E+02  0.19652216330E+02  0.10151832640E+03  0.18701013001E+03  0.12509000000E+03 0.  0.
         25    1    3    3    0    0 -0.10250896766E+03 -0.32634532218E+02  0.14963770997E+03  0.22273763375E+03  0.12509000000E+03 0.  0.
<mgrwt>
<rscale>  2 0.45263393E+03</rscale>
<asrwt>0</asrwt>
<pdfrwt beam="1">  1       21 0.63395997E-01 0.45263393E+03</pdfrwt>
<pdfrwt beam="2">  1       21 0.17472480E-01 0.45263393E+03</pdfrwt>
<totfact> 0.63044687E+04</totfact>
</mgrwt>
</event>
<event>
 7    0  0.4737014E-002  0.4527531E+03  0.7546771E-02  0.1026904E+00
         21   -1    0    0  502  501  0.00000000000E+00  0.00000000000E+00  0.49656175828E+03  0.49656175828E+03  0.00000000000E+00 0. -1.
         21   -1    0    0  501  502 -0.00000000000E+00 -0.00000000000E+00 -0.10320235540E+03  0.10320235540E+03  0.00000000000E+00 0. -1.
      99926    2    1    2    0    0  0.00000000000E+00  0.00000000000E+00  0.39335940288E+03  0.59976411368E+03  0.45275310294E+03 0.  0.
      99925    2    3    3    0    0  0.20618452492E+01 -0.96472325105E+02  0.17504043965E+03  0.33027971984E+03  0.26293416877E+03 0.  0.
         25    1    4    4    0    0  0.50454433509E+01 -0.20421320246E+02  0.11765800839E+03  0.17301272166E+03  0.12509000000E+03 0.  0.
         25    1    3    3    0    0 -0.20618452492E+01  0.96472325105E+02  0.21831896324E+03  0.26948439385E+03  0.12509000000E+03 0.  0.
         25    1    4    4    0    0 -0.29835981017E+01 -0.76051004860E+02  0.57382431259E+02  0.15726699818E+03  0.12509000000E+03 0.  0.
<mgrwt>
<rscale>  2 0.45275310E+03</rscale>
<asrwt>0</asrwt>
<pdfrwt beam="1">  1       21 0.73023787E-01 0.45275310E+03</pdfrwt>
<pdfrwt beam="2">  1       21 0.15176817E-01 0.45275310E+03</pdfrwt>
<totfact> 0.59746438E+04</totfact>
</mgrwt>
</event>
<event>
 7    0  0.4737014E-002  0.4512207E+03  0.7546771E-02  0.1027359E+00
         21   -1    0    0  502  501  0.00000000000E+00  0.00000000000E+00  0.66498469523E+02  0.66498469523E+02  0.00000000000E+00 0. -1.
         21   -1    0    0  501  502 -0.00000000000E+00 -0.00000000000E+00 -0.76543165968E+03  0.76543165968E+03  0.00000000000E+00 0. -1.
      99926    2    1    2    0    0  0.00000000000E+00  0.00000000000E+00 -0.69893319015E+03  0.83193012920E+03  0.45122071714E+03 0.  0.
      99925    2    3    3    0    0  0.72013719571E+02 -0.60351756792E+02 -0.54534339701E+03  0.61269134839E+03  0.26298851186E+03 0.  0.
         25    1    4    4    0    0  0.76868594479E+02 -0.25063471793E+02 -0.30432196399E+03  0.33881606264E+03  0.12509000000E+03 0.  0.
         25    1    3    3    0    0 -0.72013719571E+02  0.60351756792E+02 -0.15358979314E+03  0.21923878081E+03  0.12509000000E+03 0.  0.
         25    1    4    4    0    0 -0.48548749079E+01 -0.35288284999E+02 -0.24102143303E+03  0.27387528575E+03  0.12509000000E+03 0.  0.
<mgrwt>
<rscale>  2 0.45122072E+03</rscale>
<asrwt>0</asrwt>
<pdfrwt beam="1">  1       21 0.97791864E-02 0.45122072E+03</pdfrwt>
<pdfrwt beam="2">  1       21 0.11256348E+00 0.45122072E+03</pdfrwt>
<totfact> 0.47656303E+04</totfact>
</mgrwt>
</event>
<event>
 7    0  0.4737014E-002  0.4529648E+03  0.7546771E-02  0.1026842E+00
         21   -1    0    0  502  501  0.00000000000E+00  0.00000000000E+00  0.49493223123E+03  0.49493223123E+03  0.00000000000E+00 0.  1.
         21   -1    0    0  501  502 -0.00000000000E+00 -0.00000000000E+00 -0.10363900055E+03  0.10363900055E+03  0.00000000000E+00 0.  1.
      99926    2    1    2    0    0  0.71054273576E-14 -0.14210854715E-13  0.39129323068E+03  0.59857123177E+03  0.45296481886E+03 0.  0.
      99925    2    3    3    0    0  0.36905238553E+02 -0.10461180716E+03  0.23601844267E+03  0.37039718697E+03  0.26302802893E+03 0.  0.
         25    1    3    3    0    0 -0.36905238553E+02  0.10461180716E+03  0.15527478801E+03  0.22817404480E+03  0.12509000000E+03 0.  0.
         25    1    4    4    0    0  0.17309933622E+02 -0.93564933355E+02  0.11352115139E+03  0.19387777198E+03  0.12509000000E+03 0.  0.
         25    1    4    4    0    0  0.19595304930E+02 -0.11046873809E+02  0.12249729127E+03  0.17651941498E+03  0.12509000000E+03 0.  0.
<mgrwt>
<rscale>  2 0.45296482E+03</rscale>
<asrwt>0</asrwt>
<pdfrwt beam="1">  1       21 0.72784151E-01 0.45296482E+03</pdfrwt>
<pdfrwt beam="2">  1       21 0.15241030E-01 0.45296482E+03</pdfrwt>
<totfact> 0.59720891E+04</totfact>
</mgrwt>
</event>
<event>
 7    0  0.4737014E-002  0.4591094E+03  0.7546771E-02  0.1025040E+00
         21   -1    0    0  502  501  0.00000000000E+00  0.00000000000E+00  0.43644941843E+03  0.43644941843E+03  0.00000000000E+00 0.  1.
         21   -1    0    0  501  502 -0.00000000000E+00 -0.00000000000E+00 -0.12073647066E+03  0.12073647066E+03  0.00000000000E+00 0.  1.
      99926    2    1    2    0    0  0.00000000000E+00  0.77715611724E-15  0.31571294776E+03  0.55718588909E+03  0.45910940920E+03 0.  0.
      99925    2    3    3    0    0 -0.36996193138E+02 -0.52773468467E+00  0.63167865605E+02  0.27294035538E+03  0.26293965380E+03 0.  0.
         25    1    4    4    0    0  0.12714131010E+02 -0.70083199793E+01  0.56473615185E+02  0.13801283632E+03  0.12509000000E+03 0.  0.
         25    1    3    3    0    0  0.36996193138E+02  0.52773468467E+00  0.25254508216E+03  0.28424553371E+03  0.12509000000E+03 0.  0.
         25    1    4    4    0    0 -0.49710324148E+02  0.64805852947E+01  0.66942504207E+01  0.13492751907E+03  0.12509000000E+03 0.  0.
<mgrwt>
<rscale>  2 0.45910941E+03</rscale>
<asrwt>0</asrwt>
<pdfrwt beam="1">  1       21 0.64183737E-01 0.45910941E+03</pdfrwt>
<pdfrwt beam="2">  1       21 0.17755364E-01 0.45910941E+03</pdfrwt>
<totfact> 0.59438256E+04</totfact>
</mgrwt>
</event>
<event>
 7    0  0.4737014E-002  0.4483441E+03  0.7546771E-02  0.1028217E+00
         21   -1    0    0  502  501  0.00000000000E+00  0.00000000000E+00  0.33659223454E+02  0.33659223454E+02  0.00000000000E+00 0.  1.
         21   -1    0    0  501  502 -0.00000000000E+00 -0.00000000000E+00 -0.14929968012E+04  0.14929968012E+04  0.00000000000E+00 0.  1.
      99926    2    1    2    0    0 -0.35527136788E-14  0.00000000000E+00 -0.14593375778E+04  0.15266560247E+04  0.44834412207E+03 0.  0.
      99925    2    3    3    0    0 -0.24676986577E+02  0.81723171935E+02 -0.11425926167E+04  0.11755684160E+04  0.26297449018E+03 0.  0.
         25    1    4    4    0    0 -0.48023942389E+02  0.52970026990E+02 -0.52976378670E+03  0.54900755970E+03  0.12509000000E+03 0.  0.
         25    1    3    3    0    0  0.24676986577E+02 -0.81723171935E+02 -0.31674496111E+03  0.35108760870E+03  0.12509000000E+03 0.  0.
         25    1    4    4    0    0  0.23346955812E+02  0.28753144945E+02 -0.61282882996E+03  0.62656085628E+03  0.12509000000E+03 0.  0.
<mgrwt>
<rscale>  2 0.44834412E+03</rscale>
<asrwt>0</asrwt>
<pdfrwt beam="1">  1       21 0.49498864E-02 0.44834412E+03</pdfrwt>
<pdfrwt beam="2">  1       21 0.21955833E+00 0.44834412E+03</pdfrwt>
<totfact> 0.24368956E+04</totfact>
</mgrwt>
</event>
<event>
 7    0  0.4737014E-002  0.4613317E+03  0.7546771E-02  0.1024396E+00
         21   -1    0    0  502  501  0.00000000000E+00  0.00000000000E+00  0.42264374601E+03  0.42264374601E+03  0.00000000000E+00 0.  1.
         21   -1    0    0  501  502 -0.00000000000E+00 -0.00000000000E+00 -0.12589026030E+03  0.12589026030E+03  0.00000000000E+00 0.  1.
      99926    2    1    2    0    0  0.00000000000E+00 -0.17763568394E-14  0.29675348571E+03  0.54853400631E+03  0.46133168632E+03 0.  0.
      99925    2    3    3    0    0 -0.11278907160E+03  0.69047629218E+01  0.22966532292E+03  0.36710253134E+03  0.26315215664E+03 0.  0.
         25    1    4    4    0    0 -0.39832340263E+02 -0.13073498305E+02  0.15303872009E+03  0.20205417501E+03  0.12509000000E+03 0.  0.
         25    1    3    3    0    0  0.11278907160E+03 -0.69047629218E+01  0.67088162793E+02  0.18143147497E+03  0.12509000000E+03 0.  0.
         25    1    4    4    0    0 -0.72956731336E+02  0.19978261226E+02  0.76626602825E+02  0.16504835634E+03  0.12509000000E+03 0.  0.
<mgrwt>
<rscale>  2 0.46133169E+03</rscale>
<asrwt>0</asrwt>
<pdfrwt beam="1">  1       21 0.62153492E-01 0.46133169E+03</pdfrwt>
<pdfrwt beam="2">  1       21 0.18513274E-01 0.46133169E+03</pdfrwt>
<totfact> 0.58954006E+04</totfact>
</mgrwt>
</event>
<event>
 7    0  0.4737014E-002  0.4581582E+03  0.7546771E-02  0.1025317E+00
         21   -1    0    0  502  501  0.00000000000E+00  0.00000000000E+00  0.11521237241E+03  0.11521237241E+03  0.00000000000E+00 0. -1.
         21   -1    0    0  501  502 -0.00000000000E+00 -0.00000000000E+00 -0.45548262085E+03  0.45548262085E+03  0.00000000000E+00 0. -1.
      99926    2    1    2    0    0  0.00000000000E+00  0.00000000000E+00 -0.34027024844E+03  0.57069499326E+03  0.45815819688E+03 0.  0.
      99925    2    3    3    0    0 -0.85588790746E+02  0.71355622443E+02 -0.25454635720E+03  0.38251114809E+03  0.26287613907E+03 0.  0.
         25    1    4    4    0    0 -0.55100323737E+02  0.24802146840E+02 -0.17753894913E+03  0.22543020810E+03  0.12509000000E+03 0.  0.
         25    1    3    3    0    0  0.85588790746E+02 -0.71355622443E+02 -0.85723891232E+02  0.18818384517E+03  0.12509000000E+03 0.  0.
         25    1    4    4    0    0 -0.30488467009E+02  0.46553475603E+02 -0.77007408071E+02  0.15708093999E+03  0.12509000000E+03 0.  0.
<mgrwt>
<rscale>  2 0.45815820E+03</rscale>
<asrwt>0</asrwt>
<pdfrwt beam="1">  1       21 0.16942996E-01 0.45815820E+03</pdfrwt>
<pdfrwt beam="2">  1       21 0.66982738E-01 0.45815820E+03</pdfrwt>
<totfact> 0.59031198E+04</totfact>
</mgrwt>
</event>
<event>
 7    0  0.4737014E-002  0.4530516E+03  0.7546771E-02  0.1026816E+00
         21   -1    0    0  502  501  0.00000000000E+00  0.00000000000E+00  0.38009527529E+03  0.38009527529E+03  0.00000000000E+00 0.  1.
         21   -1    0    0  501  502 -0.00000000000E+00 -0.00000000000E+00 -0.13500283341E+03  0.13500283341E+03  0.00000000000E+00 0.  1.
      99926    2    1    2    0    0  0.00000000000E+00  0.00000000000E+00  0.24509244187E+03  0.51509810870E+03  0.45305160470E+03 0.  0.
      99925    2    3    3    0    0  0.32285589993E+02  0.44147444758E+02  0.44243381975E+02  0.27224175371E+03  0.26299570227E+03 0.  0.
         25    1    4    4    0    0  0.42076257417E+02 -0.91306566679E+01  0.23211023530E+02  0.13431321619E+03  0.12509000000E+03 0.  0.
         25    1    3    3    0    0 -0.32285589993E+02 -0.44147444758E+02  0.20084905990E+03  0.24285635500E+03  0.12509000000E+03 0.  0.
         25    1    4    4    0    0 -0.97906674236E+01  0.53278101426E+02  0.21032358445E+02  0.13792853752E+03  0.12509000000E+03 0.  0.
<mgrwt>
<rscale>  2 0.45305160E+03</rscale>
<asrwt>0</asrwt>
<pdfrwt beam="1">  1       21 0.55896364E-01 0.45305160E+03</pdfrwt>
<pdfrwt beam="2">  1       21 0.19853358E-01 0.45305160E+03</pdfrwt>
<totfact> 0.65225035E+04</totfact>
</mgrwt>
</event>
<event>
 7    0  0.4737014E-002  0.4525444E+03  0.7546771E-02  0.1026966E+00
         21   -1    0    0  502  501  0.00000000000E+00  0.00000000000E+00  0.17852226591E+03  0.17852226591E+03  0.00000000000E+00 0.  1.
         21   -1    0    0  501  502 -0.00000000000E+00 -0.00000000000E+00 -0.28679397513E+03  0.28679397513E+03  0.00000000000E+00 0.  1.
      99926    2    1    2    0    0  0.00000000000E+00  0.14210854715E-13 -0.10827170922E+03  0.46531624104E+03  0.45254440794E+03 0.  0.
      99925    2    3    3    0    0  0.53881290589E+02  0.94417827788E+02 -0.90472973966E+02  0.29863623997E+03  0.26302152977E+03 0.  0.
         25    1    3    3    0    0 -0.53881290589E+02 -0.94417827788E+02 -0.17798735258E+02  0.16668000107E+03  0.12509000000E+03 0.  0.
         25    1    4    4    0    0  0.23003773590E+02  0.31812966974E+02 -0.83046195751E+02  0.15519477181E+03  0.12509000000E+03 0.  0.
         25    1    4    4    0    0  0.30877516999E+02  0.62604860814E+02 -0.74267782148E+01  0.14344146816E+03  0.12509000000E+03 0.  0.
<mgrwt>
<rscale>  2 0.45254441E+03</rscale>
<asrwt>0</asrwt>
<pdfrwt beam="1">  1       21 0.26253275E-01 0.45254441E+03</pdfrwt>
<pdfrwt beam="2">  1       21 0.42175584E-01 0.45254441E+03</pdfrwt>
<totfact> 0.69122452E+04</totfact>
</mgrwt>
</event>
<event>
 7    0  0.4737014E-002  0.4600570E+03  0.7546771E-02  0.1024765E+00
         21   -1    0    0  502  501  0.00000000000E+00  0.00000000000E+00  0.11874535752E+03  0.11874535752E+03  0.00000000000E+00 0. -1.
         21   -1    0    0  501  502 -0.00000000000E+00 -0.00000000000E+00 -0.44560157874E+03  0.44560157874E+03  0.00000000000E+00 0. -1.
      99926    2    1    2    0    0 -0.35527136788E-14 -0.14210854715E-13 -0.32685622122E+03  0.56434693626E+03  0.46005703463E+03 0.  0.
      99925    2    3    3    0    0 -0.27237906822E+02 -0.11391368217E+03 -0.22042352980E+03  0.36262024874E+03  0.26303741511E+03 0.  0.
         25    1    4    4    0    0 -0.17456399917E+02 -0.17343657633E+02 -0.76675919226E+02  0.14876905944E+03  0.12509000000E+03 0.  0.
         25    1    4    4    0    0 -0.97815069054E+01 -0.96570024539E+02 -0.14374761057E+03  0.21385118929E+03  0.12509000000E+03 0.  0.
         25    1    3    3    0    0  0.27237906822E+02  0.11391368217E+03 -0.10643269142E+03  0.20172668752E+03  0.12509000000E+03 0.  0.
<mgrwt>
<rscale>  2 0.46005703E+03</rscale>
<asrwt>0</asrwt>
<pdfrwt beam="1">  1       21 0.17462553E-01 0.46005703E+03</pdfrwt>
<pdfrwt beam="2">  1       21 0.65529642E-01 0.46005703E+03</pdfrwt>
<totfact> 0.58551073E+04</totfact>
</mgrwt>
</event>
<event>
 7    0  0.4737014E-002  0.4542510E+03  0.7546771E-02  0.1026462E+00
         21   -1    0    0  502  501  0.00000000000E+00  0.00000000000E+00  0.39898928961E+02  0.39898928961E+02  0.00000000000E+00 0. -1.
         21   -1    0    0  501  502 -0.00000000000E+00 -0.00000000000E+00 -0.12929169174E+04  0.12929169174E+04  0.00000000000E+00 0. -1.
      99926    2    1    2    0    0  0.00000000000E+00  0.00000000000E+00 -0.12530179885E+04  0.13328158464E+04  0.45425103298E+03 0.  0.
      99925    2    3    3    0    0 -0.30258230070E+02  0.86798560445E+02 -0.60064732301E+03  0.66223062151E+03  0.26329192703E+03 0.  0.
         25    1    4    4    0    0 -0.30827923944E+02  0.58683588645E+02 -0.23045613066E+03  0.27046563687E+03  0.12509000000E+03 0.  0.
         25    1    4    4    0    0  0.56969387408E+00  0.28114971800E+02 -0.37019119236E+03  0.39176498464E+03  0.12509000000E+03 0.  0.
         25    1    3    3    0    0  0.30258230070E+02 -0.86798560445E+02 -0.65237066545E+03  0.67058522488E+03  0.12509000000E+03 0.  0.
<mgrwt>
<rscale>  2 0.45425103E+03</rscale>
<asrwt>0</asrwt>
<pdfrwt beam="1">  1       21 0.58674900E-02 0.45425103E+03</pdfrwt>
<pdfrwt beam="2">  1       21 0.19013483E+00 0.45425103E+03</pdfrwt>
<totfact> 0.28341087E+04</totfact>
</mgrwt>
</event>
<event>
 7    0  0.4737014E-002  0.4492636E+03  0.7546771E-02  0.1027942E+00
         21   -1    0    0  502  501  0.00000000000E+00  0.00000000000E+00  0.11074476431E+03  0.11074476431E+03  0.00000000000E+00 0.  1.
         21   -1    0    0  501  502 -0.00000000000E+00 -0.00000000000E+00 -0.45563738590E+03  0.45563738590E+03  0.00000000000E+00 0.  1.
      99926    2    1    2    0    0  0.00000000000E+00  0.00000000000E+00 -0.34489262159E+03  0.56638215021E+03  0.44926364159E+03 0.  0.
      99925    2    3    3    0    0  0.57876413243E+02 -0.59453464833E+02 -0.30454784297E+03  0.41094855361E+03  0.26314431662E+03 0.  0.
         25    1    3    3    0    0 -0.57876413243E+02  0.59453464833E+02 -0.40344778615E+02  0.15543359660E+03  0.12509000000E+03 0.  0.
         25    1    4    4    0    0  0.10113204693E+02 -0.54696778825E+02 -0.19291770980E+03  0.23655605124E+03  0.12509000000E+03 0.  0.
         25    1    4    4    0    0  0.47763208550E+02 -0.47566860085E+01 -0.11163013317E+03  0.17439250238E+03  0.12509000000E+03 0.  0.
<mgrwt>
<rscale>  2 0.44926364E+03</rscale>
<asrwt>0</asrwt>
<pdfrwt beam="1">  1       21 0.16285995E-01 0.44926364E+03</pdfrwt>
<pdfrwt beam="2">  1       21 0.67005497E-01 0.44926364E+03</pdfrwt>
<totfact> 0.63634857E+04</totfact>
</mgrwt>
</event>
<event>
 7    0  0.4737014E-002  0.4252334E+03  0.7546771E-02  0.1035376E+00
         21   -1    0    0  502  501  0.00000000000E+00  0.00000000000E+00  0.21296390255E+03  0.21296390255E+03  0.00000000000E+00 0.  1.
         21   -1    0    0  501  502 -0.00000000000E+00 -0.00000000000E+00 -0.21227007633E+03  0.21227007633E+03  0.00000000000E+00 0.  1.
      99926    2    1    2    0    0  0.71054273576E-14 -0.71054273576E-14  0.69382622282E+00  0.42523397888E+03  0.42523341284E+03 0.  0.
      99925    2    3    3    0    0 -0.21362966499E+02 -0.47621332730E+02 -0.63084652340E+02  0.27543621489E+03  0.26298529891E+03 0.  0.
         25    1    4    4    0    0 -0.48564067262E+02 -0.10976953750E+02 -0.38496464099E+02  0.14003016815E+03  0.12509000000E+03 0.  0.
         25    1    4    4    0    0  0.27201100763E+02 -0.36644378980E+02 -0.24588188241E+02  0.13540604674E+03  0.12509000000E+03 0.  0.
         25    1    3    3    0    0  0.21362966499E+02  0.47621332730E+02  0.63778478563E+02  0.14979776399E+03  0.12509000000E+03 0.  0.
<mgrwt>
<rscale>  2 0.42523341E+03</rscale>
<asrwt>0</asrwt>
<pdfrwt beam="1">  1       21 0.31318221E-01 0.42523341E+03</pdfrwt>
<pdfrwt beam="2">  1       21 0.31216188E-01 0.42523341E+03</pdfrwt>
<totfact> 0.90426907E+04</totfact>
</mgrwt>
</event>
<event>
 7    0  0.4737014E-002  0.4572136E+03  0.7546771E-02  0.1025592E+00
         21   -1    0    0  502  501  0.00000000000E+00  0.00000000000E+00  0.80354647646E+02  0.80354647646E+02  0.00000000000E+00 0. -1.
         21   -1    0    0  501  502 -0.00000000000E+00 -0.00000000000E+00 -0.65038003935E+03  0.65038003935E+03  0.00000000000E+00 0. -1.
      99926    2    1    2    0    0  0.00000000000E+00  0.14210854715E-13 -0.57002539170E+03  0.73073468700E+03  0.45721355578E+03 0.  0.
      99925    2    3    3    0    0  0.10079297945E+02 -0.98268626137E+02 -0.26311199483E+03  0.38489996287E+03  0.26298620584E+03 0.  0.
         25    1    4    4    0    0  0.30859719373E+01 -0.89959279593E+02 -0.16295761335E+03  0.22428750981E+03  0.12509000000E+03 0.  0.
         25    1    4    4    0    0  0.69933260082E+01 -0.83093465432E+01 -0.10015438148E+03  0.16061245306E+03  0.12509000000E+03 0.  0.
         25    1    3    3    0    0 -0.10079297945E+02  0.98268626137E+02 -0.30691339688E+03  0.34583472413E+03  0.12509000000E+03 0.  0.
<mgrwt>
<rscale>  2 0.45721356E+03</rscale>
<asrwt>0</asrwt>
<pdfrwt beam="1">  1       21 0.11816860E-01 0.45721356E+03</pdfrwt>
<pdfrwt beam="2">  1       21 0.95644126E-01 0.45721356E+03</pdfrwt>
<totfact> 0.50383144E+04</totfact>
</mgrwt>
</event>
<event>
 7    0  0.4737014E-002  0.4464902E+03  0.7546771E-02  0.1028774E+00
         21   -1    0    0  502  501  0.00000000000E+00  0.00000000000E+00  0.38747522448E+02  0.38747522448E+02  0.00000000000E+00 0. -1.
         21   -1    0    0  501  502 -0.00000000000E+00 -0.00000000000E+00 -0.12862339477E+04  0.12862339477E+04  0.00000000000E+00 0. -1.
      99926    2    1    2    0    0  0.14210854715E-13  0.44408920985E-15 -0.12474864252E+04  0.13249814701E+04  0.44649021830E+03 0.  0.
      99925    2    3    3    0    0  0.67264697473E+02  0.12744658056E+01 -0.10303963311E+04  0.10655556024E+04  0.26299425623E+03 0.  0.
         25    1    4    4    0    0  0.60517518574E+02 -0.15617323991E+02 -0.43631814356E+03  0.45817824191E+03  0.12509000000E+03 0.  0.
         25    1    4    4    0    0  0.67471788990E+01  0.16891789796E+02 -0.59407818755E+03  0.60737736047E+03  0.12509000000E+03 0.  0.
         25    1    3    3    0    0 -0.67264697473E+02 -0.12744658056E+01 -0.21709009411E+03  0.25942586773E+03  0.12509000000E+03 0.  0.
<mgrwt>
<rscale>  2 0.44649022E+03</rscale>
<asrwt>0</asrwt>
<pdfrwt beam="1">  1       21 0.56981646E-02 0.44649022E+03</pdfrwt>
<pdfrwt beam="2">  1       21 0.18915207E+00 0.44649022E+03</pdfrwt>
<totfact> 0.30357353E+04</totfact>
</mgrwt>
</event>
<event>
 7    0  0.4737014E-002  0.4543357E+03  0.7546771E-02  0.1026437E+00
         21   -1    0    0  502  501  0.00000000000E+00  0.00000000000E+00  0.80259722049E+03  0.80259722049E+03  0.00000000000E+00 0. -1.
         21   -1    0    0  501  502 -0.00000000000E+00 -0.00000000000E+00 -0.64297808210E+02  0.64297808210E+02  0.00000000000E+00 0. -1.
      99926    2    1    2    0    0  0.00000000000E+00  0.00000000000E+00  0.73829941228E+03  0.86689502870E+03  0.45433574437E+03 0.  0.
      99925    2    3    3    0    0 -0.13844022651E+02 -0.57993375140E+02  0.64701733392E+03  0.70095885286E+03  0.26297717484E+03 0.  0.
         25    1    4    4    0    0 -0.52148397143E+01  0.10904957459E+02  0.27401366646E+03  0.30145830584E+03  0.12509000000E+03 0.  0.
         25    1    4    4    0    0 -0.86291829365E+01 -0.68898332599E+02  0.37300366746E+03  0.39950054702E+03  0.12509000000E+03 0.  0.
         25    1    3    3    0    0  0.13844022651E+02  0.57993375140E+02  0.91282078359E+02  0.16593617584E+03  0.12509000000E+03 0.  0.
<mgrwt>
<rscale>  2 0.45433574E+03</rscale>
<asrwt>0</asrwt>
<pdfrwt beam="1">  1       21 0.11802900E+00 0.45433574E+03</pdfrwt>
<pdfrwt beam="2">  1       21 0.94555605E-02 0.45433574E+03</pdfrwt>
<totfact> 0.44926281E+04</totfact>
</mgrwt>
</event>
<event>
 7    0  0.4737014E-002  0.4515014E+03  0.7546771E-02  0.1027275E+00
         21   -1    0    0  502  501  0.00000000000E+00  0.00000000000E+00  0.53138520530E+03  0.53138520530E+03  0.00000000000E+00 0. -1.
         21   -1    0    0  501  502 -0.00000000000E+00 -0.00000000000E+00 -0.95906659865E+02  0.95906659865E+02  0.00000000000E+00 0. -1.
      99926    2    1    2    0    0 -0.14210854715E-13 -0.17763568394E-14  0.43547854544E+03  0.62729186517E+03  0.45150140705E+03 0.  0.
      99925    2    3    3    0    0  0.77185231410E+02 -0.93420764183E+01  0.16732572051E+03  0.32135350544E+03  0.26310709677E+03 0.  0.
         25    1    4    4    0    0  0.53797258706E+02  0.20464566758E+02  0.52463995915E+02  0.14735305394E+03  0.12509000000E+03 0.  0.
         25    1    4    4    0    0  0.23387972705E+02 -0.29806643177E+02  0.11486172460E+03  0.17400045150E+03  0.12509000000E+03 0.  0.
         25    1    3    3    0    0 -0.77185231410E+02  0.93420764183E+01  0.26815282493E+03  0.30593835973E+03  0.12509000000E+03 0.  0.
<mgrwt>
<rscale>  2 0.45150141E+03</rscale>
<asrwt>0</asrwt>
<pdfrwt beam="1">  1       21 0.78144882E-01 0.45150141E+03</pdfrwt>
<pdfrwt beam="2">  1       21 0.14103921E-01 0.45150141E+03</pdfrwt>
<totfact> 0.58631751E+04</totfact>
</mgrwt>
</event>
<event>
 7    0  0.4737014E-002  0.4640615E+03  0.7546771E-02  0.1023610E+00
         21   -1    0    0  502  501  0.00000000000E+00  0.00000000000E+00  0.16766437028E+03  0.16766437028E+03  0.00000000000E+00 0. -1.
         21   -1    0    0  501  502 -0.00000000000E+00 -0.00000000000E+00 -0.32110741574E+03  0.32110741574E+03  0.00000000000E+00 0. -1.
      99926    2    1    2    0    0  0.00000000000E+00  0.00000000000E+00 -0.15344304546E+03  0.48877178602E+03  0.46406151597E+03 0.  0.
      99925    2    3    3    0    0 -0.31100152948E+02  0.10219144571E+03 -0.34640221496E+02  0.28586311156E+03  0.26288298255E+03 0.  0.
         25    1    4    4    0    0 -0.11919061990E+02  0.19185313574E+02 -0.43260039285E+02  0.13427240742E+03  0.12509000000E+03 0.  0.
         25    1    3    3    0    0  0.31100152948E+02 -0.10219144571E+03 -0.11880282397E+03  0.20290867446E+03  0.12509000000E+03 0.  0.
         25    1    4    4    0    0 -0.19181090958E+02  0.83006132134E+02  0.86198177891E+01  0.15159070414E+03  0.12509000000E+03 0.  0.
<mgrwt>
<rscale>  2 0.46406152E+03</rscale>
<asrwt>0</asrwt>
<pdfrwt beam="1">  1       21 0.24656525E-01 0.46406152E+03</pdfrwt>
<pdfrwt beam="2">  1       21 0.47221678E-01 0.46406152E+03</pdfrwt>
<totfact> 0.61521102E+04</totfact>
</mgrwt>
</event>
<event>
 7    0  0.4737014E-002  0.4588508E+03  0.7546771E-02  0.1025115E+00
         21   -1    0    0  502  501  0.00000000000E+00  0.00000000000E+00  0.22439938720E+03  0.22439938720E+03  0.00000000000E+00 0.  1.
         21   -1    0    0  501  502 -0.00000000000E+00 -0.00000000000E+00 -0.23456402829E+03  0.23456402829E+03  0.00000000000E+00 0.  1.
      99926    2    1    2    0    0  0.26645352591E-14  0.00000000000E+00 -0.10164641087E+02  0.45896341549E+03  0.45885084377E+03 0.  0.
      99925    2    3    3    0    0 -0.26324576399E+01 -0.47874404387E+02  0.10007410985E+03  0.28547284302E+03  0.26302286633E+03 0.  0.
         25    1    4    4    0    0  0.31823356796E+02 -0.35413697923E+02  0.72587373790E+02  0.15226060217E+03  0.12509000000E+03 0.  0.
         25    1    4    4    0    0 -0.34455814436E+02 -0.12460706464E+02  0.27486736059E+02  0.13321224085E+03  0.12509000000E+03 0.  0.
         25    1    3    3    0    0  0.26324576399E+01  0.47874404387E+02 -0.11023875094E+03  0.17349057247E+03  0.12509000000E+03 0.  0.
<mgrwt>
<rscale>  2 0.45885084E+03</rscale>
<asrwt>0</asrwt>
<pdfrwt beam="1">  1       21 0.32999910E-01 0.45885084E+03</pdfrwt>
<pdfrwt beam="2">  1       21 0.34494710E-01 0.45885084E+03</pdfrwt>
<totfact> 0.66198904E+04</totfact>
</mgrwt>
</event>
<event>
 7    0  0.4737014E-002  0.4420265E+03  0.7546771E-02  0.1030127E+00
         21   -1    0    0  502  501  0.00000000000E+00  0.00000000000E+00  0.12064817906E+03  0.12064817906E+03  0.00000000000E+00 0.  1.
         21   -1    0    0  501  502 -0.00000000000E+00 -0.00000000000E+00 -0.40487020632E+03  0.40487020632E+03  0.00000000000E+00 0.  1.
      99926    2    1    2    0    0  0.00000000000E+00  0.00000000000E+00 -0.28422202726E+03  0.52551838538E+03  0.44202648404E+03 0.  0.
      99925    2    3    3    0    0 -0.92994133523E+02 -0.13072918797E+02 -0.22368177309E+03  0.35779408616E+03  0.26299099301E+03 0.  0.
         25    1    4    4    0    0 -0.53990567276E+02  0.21586267579E+02 -0.76593449005E+02  0.15778153515E+03  0.12509000000E+03 0.  0.
         25    1    3    3    0    0  0.92994133523E+02  0.13072918797E+02 -0.60540254176E+02  0.16772429923E+03  0.12509000000E+03 0.  0.
         25    1    4    4    0    0 -0.39003566247E+02 -0.34659186376E+02 -0.14708832408E+03  0.20001255101E+03  0.12509000000E+03 0.  0.
<mgrwt>
<rscale>  2 0.44202648E+03</rscale>
<asrwt>0</asrwt>
<pdfrwt beam="1">  1       21 0.17742379E-01 0.44202648E+03</pdfrwt>
<pdfrwt beam="2">  1       21 0.59539736E-01 0.44202648E+03</pdfrwt>
<totfact> 0.70478336E+04</totfact>
</mgrwt>
</event>
<event>
 7    0  0.4737014E-002  0.4539369E+03  0.7546771E-02  0.1026554E+00
         21   -1    0    0  502  501  0.00000000000E+00  0.00000000000E+00  0.20827224424E+03  0.20827224424E+03  0.00000000000E+00 0. -1.
         21   -1    0    0  501  502 -0.00000000000E+00 -0.00000000000E+00 -0.24734300960E+03  0.24734300960E+03  0.00000000000E+00 0. -1.
      99926    2    1    2    0    0  0.00000000000E+00 -0.71054273576E-14 -0.39070765359E+02  0.45561525383E+03  0.45393692824E+03 0.  0.
      99925    2    3    3    0    0 -0.14857324297E+02 -0.56043717314E+02  0.71715776177E+02  0.27874579852E+03  0.26304834025E+03 0.  0.
         25    1    4    4    0    0 -0.11686520125E+02 -0.65625940166E+02  0.55438144221E+02  0.15219801152E+03  0.12509000000E+03 0.  0.
         25    1    3    3    0    0  0.14857324297E+02  0.56043717314E+02 -0.11078654154E+03  0.17686945531E+03  0.12509000000E+03 0.  0.
         25    1    4    4    0    0 -0.31708041716E+01  0.95822228522E+01  0.16277631956E+02  0.12654778701E+03  0.12509000000E+03 0.  0.
<mgrwt>
<rscale>  2 0.45393693E+03</rscale>
<asrwt>0</asrwt>
<pdfrwt beam="1">  1       21 0.30628271E-01 0.45393693E+03</pdfrwt>
<pdfrwt beam="2">  1       21 0.36373972E-01 0.45393693E+03</pdfrwt>
<totfact> 0.69084882E+04</totfact>
</mgrwt>
</event>
<event>
 7    0  0.4737014E-002  0.4498312E+03  0.7546771E-02  0.1027772E+00
         21   -1    0    0  502  501  0.00000000000E+00  0.00000000000E+00  0.17119008516E+03  0.17119008516E+03  0.00000000000E+00 0. -1.
         21   -1    0    0  501  502 -0.00000000000E+00 -0.00000000000E+00 -0.29550212295E+03  0.29550212295E+03  0.00000000000E+00 0. -1.
      99926    2    1    2    0    0  0.00000000000E+00  0.00000000000E+00 -0.12431203778E+03  0.46669220811E+03  0.44983122876E+03 0.  0.
      99925    2    3    3    0    0  0.73324868111E+02  0.68504236199E+02 -0.12046960999E+03  0.30628136367E+03  0.26310830496E+03 0.  0.
         25    1    4    4    0    0  0.74075776672E+02  0.19810755653E+02 -0.73188045196E+02  0.16396244933E+03  0.12509000000E+03 0.  0.
         25    1    3    3    0    0 -0.73324868111E+02 -0.68504236199E+02 -0.38424277901E+01  0.16041084443E+03  0.12509000000E+03 0.  0.
         25    1    4    4    0    0 -0.75090856078E+00  0.48693480546E+02 -0.47281564798E+02  0.14231891435E+03  0.12509000000E+03 0.  0.
<mgrwt>
<rscale>  2 0.44983123E+03</rscale>
<asrwt>0</asrwt>
<pdfrwt beam="1">  1       21 0.25175013E-01 0.44983123E+03</pdfrwt>
<pdfrwt beam="2">  1       21 0.43456194E-01 0.44983123E+03</pdfrwt>
<totfact> 0.70530554E+04</totfact>
</mgrwt>
</event>
<event>
 7    0  0.4737014E-002  0.4364161E+03  0.7546771E-02  0.1031852E+00
         21   -1    0    0  502  501  0.00000000000E+00  0.00000000000E+00  0.37905092444E+02  0.37905092444E+02  0.00000000000E+00 0. -1.
         21   -1    0    0  501  502 -0.00000000000E+00 -0.00000000000E+00 -0.12561572560E+04  0.12561572560E+04  0.00000000000E+00 0. -1.
      99926    2    1    2    0    0  0.00000000000E+00 -0.35527136788E-14 -0.12182521636E+04  0.12940623485E+04  0.43641611755E+03 0.  0.
      99925    2    3    3    0    0  0.64150607742E+02 -0.16296263592E+02 -0.57965785358E+03  0.63997438073E+03  0.26302682770E+03 0.  0.
         25    1    3    3    0    0 -0.64150607742E+02  0.16296263592E+02 -0.63859431001E+03  0.65408796776E+03  0.12509000000E+03 0.  0.
         25    1    4    4    0    0  0.20341570577E+02  0.28754686617E+02 -0.31025658476E+03  0.33637370287E+03  0.12509000000E+03 0.  0.
         25    1    4    4    0    0  0.43809037165E+02 -0.45050950210E+02 -0.26940126882E+03  0.30360067785E+03  0.12509000000E+03 0.  0.
<mgrwt>
<rscale>  2 0.43641612E+03</rscale>
<asrwt>0</asrwt>
<pdfrwt beam="1">  1       21 0.55742787E-02 0.43641612E+03</pdfrwt>
<pdfrwt beam="2">  1       21 0.18472899E+00 0.43641612E+03</pdfrwt>
<totfact> 0.33933531E+04</totfact>
</mgrwt>
</event>
<event>
 7    0  0.4737014E-002  0.4473659E+03  0.7546771E-02  0.1028510E+00
         21   -1    0    0  502  501  0.00000000000E+00  0.00000000000E+00  0.76275631395E+03  0.76275631395E+03  0.00000000000E+00 0. -1.
         21   -1    0    0  501  502 -0.00000000000E+00 -0.00000000000E+00 -0.65596395300E+02  0.65596395300E+02  0.00000000000E+00 0. -1.
      99926    2    1    2    0    0  0.00000000000E+00  0.00000000000E+00  0.69715991865E+03  0.82835270925E+03  0.44736591147E+03 0.  0.
      99925    2    3    3    0    0  0.66659337857E+02 -0.55888870378E+02  0.55450378974E+03  0.61962965740E+03  0.26248700224E+03 0.  0.
         25    1    4    4    0    0  0.25488785886E+02 -0.42168704078E+02  0.36046818076E+03  0.38472418075E+03  0.12509000000E+03 0.  0.
         25    1    3    3    0    0 -0.66659337857E+02  0.55888870378E+02  0.14265612891E+03  0.20872305185E+03  0.12509000000E+03 0.  0.
         25    1    4    4    0    0  0.41170551971E+02 -0.13720166300E+02  0.19403560897E+03  0.23490547665E+03  0.12509000000E+03 0.  0.
<mgrwt>
<rscale>  2 0.44736591E+03</rscale>
<asrwt>0</asrwt>
<pdfrwt beam="1">  1       21 0.11217004E+00 0.44736591E+03</pdfrwt>
<pdfrwt beam="2">  1       21 0.96465292E-02 0.44736591E+03</pdfrwt>
<totfact> 0.49311794E+04</totfact>
</mgrwt>
</event>
<event>
 7    0  0.4737014E-002  0.4496585E+03  0.7546771E-02  0.1027824E+00
         21   -1    0    0  502  501  0.00000000000E+00  0.00000000000E+00  0.22359635453E+03  0.22359635453E+03  0.00000000000E+00 0. -1.
         21   -1    0    0  501  502 -0.00000000000E+00 -0.00000000000E+00 -0.22606890241E+03  0.22606890241E+03  0.00000000000E+00 0. -1.
      99926    2    1    2    0    0 -0.71054273576E-14 -0.35527136788E-14 -0.24725478872E+01  0.44966525694E+03  0.44965845906E+03 0.  0.
      99925    2    3    3    0    0 -0.41047053428E+02 -0.23126361717E+02  0.95763663935E+02  0.28378110877E+03  0.26294742661E+03 0.  0.
         25    1    4    4    0    0 -0.38899699046E+02  0.14387566926E+02  0.74689779240E+02  0.15148022937E+03  0.12509000000E+03 0.  0.
         25    1    3    3    0    0  0.41047053428E+02  0.23126361717E+02 -0.98236211822E+02  0.16588414817E+03  0.12509000000E+03 0.  0.
         25    1    4    4    0    0 -0.21473543820E+01 -0.37513928643E+02  0.21073884695E+02  0.13230087940E+03  0.12509000000E+03 0.  0.
<mgrwt>
<rscale>  2 0.44965846E+03</rscale>
<asrwt>0</asrwt>
<pdfrwt beam="1">  1       21 0.32881817E-01 0.44965846E+03</pdfrwt>
<pdfrwt beam="2">  1       21 0.33245427E-01 0.44965846E+03</pdfrwt>
<totfact> 0.71956621E+04</totfact>
</mgrwt>
</event>
<event>
 7    0  0.4737014E-002  0.4694594E+03  0.7546771E-02  0.1022073E+00
         21   -1    0    0  502  501  0.00000000000E+00  0.00000000000E+00  0.16145991771E+03  0.16145991771E+03  0.00000000000E+00 0.  1.
         21   -1    0    0  501  502 -0.00000000000E+00 -0.00000000000E+00 -0.34124897967E+03  0.34124897967E+03  0.00000000000E+00 0.  1.
      99926    2    1    2    0    0  0.00000000000E+00  0.00000000000E+00 -0.17978906195E+03  0.50270889738E+03  0.46945940049E+03 0.  0.
      99925    2    3    3    0    0 -0.92622080548E+01 -0.12242132023E+03 -0.14359681458E+03  0.32373919320E+03  0.26289589558E+03 0.  0.
         25    1    4    4    0    0 -0.43641336572E+02 -0.72296505028E+02 -0.79895790310E+02  0.17076942439E+03  0.12509000000E+03 0.  0.
         25    1    4    4    0    0  0.34379128518E+02 -0.50124815204E+02 -0.63701024268E+02  0.15296976881E+03  0.12509000000E+03 0.  0.
         25    1    3    3    0    0  0.92622080548E+01  0.12242132023E+03 -0.36192247377E+02  0.17896970418E+03  0.12509000000E+03 0.  0.
<mgrwt>
<rscale>  2 0.46945940E+03</rscale>
<asrwt>0</asrwt>
<pdfrwt beam="1">  1       21 0.23744106E-01 0.46945940E+03</pdfrwt>
<pdfrwt beam="2">  1       21 0.50183672E-01 0.46945940E+03</pdfrwt>
<totfact> 0.58117710E+04</totfact>
</mgrwt>
</event>
<event>
 7    0  0.4737014E-002  0.4663847E+03  0.7546771E-02  0.1022946E+00
         21   -1    0    0  502  501  0.00000000000E+00  0.00000000000E+00  0.56058482256E+03  0.56058482256E+03  0.00000000000E+00 0. -1.
         21   -1    0    0  501  502 -0.00000000000E+00 -0.00000000000E+00 -0.97003458402E+02  0.97003458402E+02  0.00000000000E+00 0. -1.
      99926    2    1    2    0    0  0.00000000000E+00  0.00000000000E+00  0.46358136416E+03  0.65758828097E+03  0.46638467606E+03 0.  0.
      99925    2    3    3    0    0 -0.10752303273E+02 -0.10463417071E+03  0.19749047303E+03  0.34531309440E+03  0.26301088288E+03 0.  0.
         25    1    4    4    0    0 -0.10836743140E+02 -0.21119502355E+02  0.12470741888E+03  0.17822153856E+03  0.12509000000E+03 0.  0.
         25    1    3    3    0    0  0.10752303273E+02  0.10463417071E+03  0.26609089113E+03  0.31227518657E+03  0.12509000000E+03 0.  0.
         25    1    4    4    0    0  0.84439866201E-01 -0.83514668357E+02  0.72783054155E+02  0.16709155584E+03  0.12509000000E+03 0.  0.
<mgrwt>
<rscale>  2 0.46638468E+03</rscale>
<asrwt>0</asrwt>
<pdfrwt beam="1">  1       21 0.82438943E-01 0.46638468E+03</pdfrwt>
<pdfrwt beam="2">  1       21 0.14265215E-01 0.46638468E+03</pdfrwt>
<totfact> 0.50569951E+04</totfact>
</mgrwt>
</event>
<event>
 7    0  0.4737014E-002  0.4609985E+03  0.7546771E-02  0.1024492E+00
         21   -1    0    0  502  501  0.00000000000E+00  0.00000000000E+00  0.22799644088E+03  0.22799644088E+03  0.00000000000E+00 0. -1.
         21   -1    0    0  501  502 -0.00000000000E+00 -0.00000000000E+00 -0.23302950564E+03  0.23302950564E+03  0.00000000000E+00 0. -1.
      99926    2    1    2    0    0  0.00000000000E+00  0.00000000000E+00 -0.50330647540E+01  0.46102594652E+03  0.46099847248E+03 0.  0.
      99925    2    3    3    0    0 -0.31343634433E+02  0.11393345675E+03 -0.58575147208E+01  0.28894618652E+03  0.26361398339E+03 0.  0.
         25    1    4    4    0    0 -0.27726283658E+02  0.14975537136E+02 -0.96676777124E+01  0.12935990728E+03  0.12509000000E+03 0.  0.
         25    1    4    4    0    0 -0.36173507748E+01  0.98957919611E+02  0.38101629916E+01  0.15958627924E+03  0.12509000000E+03 0.  0.
         25    1    3    3    0    0  0.31343634433E+02 -0.11393345675E+03  0.82444996679E+00  0.17207976001E+03  0.12509000000E+03 0.  0.
<mgrwt>
<rscale>  2 0.46099847E+03</rscale>
<asrwt>0</asrwt>
<pdfrwt beam="1">  1       21 0.33528889E-01 0.46099847E+03</pdfrwt>
<pdfrwt beam="2">  1       21 0.34269045E-01 0.46099847E+03</pdfrwt>
<totfact> 0.64942233E+04</totfact>
</mgrwt>
</event>
<event>
 7    0  0.4737014E-002  0.4578497E+03  0.7546771E-02  0.1025407E+00
         21   -1    0    0  502  501  0.00000000000E+00  0.00000000000E+00  0.19799988749E+03  0.19799988749E+03  0.00000000000E+00 0. -1.
         21   -1    0    0  501  502 -0.00000000000E+00 -0.00000000000E+00 -0.26467991074E+03  0.26467991074E+03  0.00000000000E+00 0. -1.
      99926    2    1    2    0    0  0.00000000000E+00  0.00000000000E+00 -0.66680023249E+02  0.46267979822E+03  0.45784972445E+03 0.  0.
      99925    2    3    3    0    0 -0.94661388309E+02  0.22692653193E+02 -0.10519636000E+03  0.29956403797E+03  0.26305247337E+03 0.  0.
         25    1    3    3    0    0  0.94661388309E+02 -0.22692653193E+02  0.38516336746E+02  0.16311576025E+03  0.12509000000E+03 0.  0.
         25    1    4    4    0    0 -0.18970543967E+02  0.31146077757E+02 -0.73936304430E+02  0.14981336693E+03  0.12509000000E+03 0.  0.
         25    1    4    4    0    0 -0.75690844342E+02 -0.84534245638E+01 -0.31260055565E+02  0.14975067104E+03  0.12509000000E+03 0.  0.
<mgrwt>
<rscale>  2 0.45784972E+03</rscale>
<asrwt>0</asrwt>
<pdfrwt beam="1">  1       21 0.29117631E-01 0.45784972E+03</pdfrwt>
<pdfrwt beam="2">  1       21 0.38923516E-01 0.45784972E+03</pdfrwt>
<totfact> 0.66462421E+04</totfact>
</mgrwt>
</event>
<event>
 7    0  0.4737014E-002  0.4518086E+03  0.7546771E-02  0.1027184E+00
         21   -1    0    0  502  501  0.00000000000E+00  0.00000000000E+00  0.31614289318E+03  0.31614289318E+03  0.00000000000E+00 0. -1.
         21   -1    0    0  501  502 -0.00000000000E+00 -0.00000000000E+00 -0.16142308824E+03  0.16142308824E+03  0.00000000000E+00 0. -1.
      99926    2    1    2    0    0  0.00000000000E+00  0.00000000000E+00  0.15471980493E+03  0.47756598142E+03  0.45180864154E+03 0.  0.
      99925    2    3    3    0    0 -0.19274895267E+02  0.10761177645E+03  0.83402041728E+02  0.29677453398E+03  0.26299697230E+03 0.  0.
         25    1    4    4    0    0  0.10583849890E+02  0.78060109664E+02  0.71708344129E+02  0.16430153169E+03  0.12509000000E+03 0.  0.
         25    1    3    3    0    0  0.19274895267E+02 -0.10761177645E+03  0.71317763205E+02  0.18079144744E+03  0.12509000000E+03 0.  0.
         25    1    4    4    0    0 -0.29858745157E+02  0.29551666784E+02  0.11693697600E+02  0.13247300229E+03  0.12509000000E+03 0.  0.
<mgrwt>
<rscale>  2 0.45180864E+03</rscale>
<asrwt>0</asrwt>
<pdfrwt beam="1">  1       21 0.46491602E-01 0.45180864E+03</pdfrwt>
<pdfrwt beam="2">  1       21 0.23738690E-01 0.45180864E+03</pdfrwt>
<totfact> 0.68598967E+04</totfact>
</mgrwt>
</event>
<event>
 7    0  0.4737014E-002  0.4481780E+03  0.7546771E-02  0.1028267E+00
         21   -1    0    0  502  501  0.00000000000E+00  0.00000000000E+00  0.11378942256E+03  0.11378942256E+03  0.00000000000E+00 0. -1.
         21   -1    0    0  501  502 -0.00000000000E+00 -0.00000000000E+00 -0.44130540100E+03  0.44130540100E+03  0.00000000000E+00 0. -1.
      99926    2    1    2    0    0 -0.17763568394E-14  0.00000000000E+00 -0.32751597844E+03  0.55509482356E+03  0.44817803048E+03 0.  0.
      99925    2    3    3    0    0  0.12851430236E+02  0.92781138903E+02 -0.27104219248E+03  0.38893136309E+03  0.26273605785E+03 0.  0.
         25    1    4    4    0    0 -0.54493637055E+01  0.96096993311E+01 -0.99787226729E+02  0.16039651057E+03  0.12509000000E+03 0.  0.
         25    1    3    3    0    0 -0.12851430236E+02 -0.92781138903E+02 -0.56473785964E+02  0.16616346047E+03  0.12509000000E+03 0.  0.
         25    1    4    4    0    0  0.18300793942E+02  0.83171439572E+02 -0.17125496575E+03  0.22853485251E+03  0.12509000000E+03 0.  0.
<mgrwt>
<rscale>  2 0.44817803E+03</rscale>
<asrwt>0</asrwt>
<pdfrwt beam="1">  1       21 0.16733738E-01 0.44817803E+03</pdfrwt>
<pdfrwt beam="2">  1       21 0.64897854E-01 0.44817803E+03</pdfrwt>
<totfact> 0.64966815E+04</totfact>
</mgrwt>
</event>
<event>
 7    0  0.4737014E-002  0.4986823E+03  0.7546771E-02  0.1014123E+00
         21   -1    0    0  502  501  0.00000000000E+00  0.00000000000E+00  0.10997331090E+03  0.10997331090E+03  0.00000000000E+00 0. -1.
         21   -1    0    0  501  502 -0.00000000000E+00 -0.00000000000E+00 -0.56532811789E+03  0.56532811789E+03  0.00000000000E+00 0. -1.
      99926    2    1    2    0    0  0.00000000000E+00  0.00000000000E+00 -0.45535480699E+03  0.67530142879E+03  0.49868228310E+03 0.  0.
      99925    2    3    3    0    0 -0.10200311172E+03  0.68449100172E+02 -0.15895411608E+03  0.33093129102E+03  0.26298135721E+03 0.  0.
         25    1    4    4    0    0 -0.59498070118E+02  0.72333297546E+02 -0.67608328169E+02  0.17026602838E+03  0.12509000000E+03 0.  0.
         25    1    4    4    0    0 -0.42505041605E+02 -0.38841973743E+01 -0.91345787907E+02  0.16066526264E+03  0.12509000000E+03 0.  0.
         25    1    3    3    0    0  0.10200311172E+03 -0.68449100172E+02 -0.29640069091E+03  0.34437013777E+03  0.12509000000E+03 0.  0.
<mgrwt>
<rscale>  2 0.49868228E+03</rscale>
<asrwt>0</asrwt>
<pdfrwt beam="1">  1       21 0.16172545E-01 0.49868228E+03</pdfrwt>
<pdfrwt beam="2">  1       21 0.83136490E-01 0.49868228E+03</pdfrwt>
<totfact> 0.38996320E+04</totfact>
</mgrwt>
</event>
<event>
 7    0  0.4737014E-002  0.4540224E+03  0.7546771E-02  0.1026529E+00
         21   -1    0    0  502  501  0.00000000000E+00  0.00000000000E+00  0.13853905841E+03  0.13853905841E+03  0.00000000000E+00 0.  1.
         21   -1    0    0  501  502 -0.00000000000E+00 -0.00000000000E+00 -0.37198234291E+03  0.37198234291E+03  0.00000000000E+00 0.  1.
      99926    2    1    2    0    0  0.00000000000E+00  0.71054273576E-14 -0.23344328450E+03  0.51052140133E+03  0.45402239387E+03 0.  0.
      99925    2    3    3    0    0  0.48372673061E+02  0.35807098357E+02 -0.25357117703E+03  0.37025485525E+03  0.26299857836E+03 0.  0.
         25    1    4    4    0    0  0.23136225123E+02  0.58574908837E+02 -0.12611879020E+03  0.18846687295E+03  0.12509000000E+03 0.  0.
         25    1    3    3    0    0 -0.48372673061E+02 -0.35807098357E+02  0.20127892530E+02  0.14026654608E+03  0.12509000000E+03 0.  0.
         25    1    4    4    0    0  0.25236447939E+02 -0.22767810479E+02 -0.12745238683E+03  0.18178798230E+03  0.12509000000E+03 0.  0.
<mgrwt>
<rscale>  2 0.45402239E+03</rscale>
<asrwt>0</asrwt>
<pdfrwt beam="1">  1       21 0.20373391E-01 0.45402239E+03</pdfrwt>
<pdfrwt beam="2">  1       21 0.54703286E-01 0.45402239E+03</pdfrwt>
<totfact> 0.65040786E+04</totfact>
</mgrwt>
</event>
<event>
 7    0  0.4737014E-002  0.4379806E+03  0.7546771E-02  0.1031368E+00
         21   -1    0    0  502  501  0.00000000000E+00  0.00000000000E+00  0.14165850541E+04  0.14165850541E+04  0.00000000000E+00 0. -1.
         21   -1    0    0  501  502 -0.00000000000E+00 -0.00000000000E+00 -0.33853767623E+02  0.33853767623E+02  0.00000000000E+00 0. -1.
      99926    2    1    2    0    0  0.00000000000E+00  0.00000000000E+00  0.13827312864E+04  0.14504388217E+04  0.43798055317E+03 0.  0.
      99925    2    3    3    0    0 -0.60101992034E+02 -0.40538917702E+02  0.67449764486E+03  0.72759855408E+03  0.26305309292E+03 0.  0.
         25    1    3    3    0    0  0.60101992034E+02  0.40538917702E+02  0.70823364159E+03  0.72284026761E+03  0.12509000000E+03 0.  0.
         25    1    4    4    0    0 -0.61173321549E+02  0.53855467892E+01  0.36036902127E+03  0.38637354849E+03  0.12509000000E+03 0.  0.
         25    1    4    4    0    0  0.10713295150E+01 -0.45924464491E+02  0.31412862358E+03  0.34122500559E+03  0.12509000000E+03 0.  0.
<mgrwt>
<rscale>  2 0.43798055E+03</rscale>
<asrwt>0</asrwt>
<pdfrwt beam="1">  1       21 0.20832129E+00 0.43798055E+03</pdfrwt>
<pdfrwt beam="2">  1       21 0.49784962E-02 0.43798055E+03</pdfrwt>
<totfact> 0.28619993E+04</totfact>
</mgrwt>
</event>
<event>
 7    0  0.4737014E-002  0.4367353E+03  0.7546771E-02  0.1031753E+00
         21   -1    0    0  502  501  0.00000000000E+00  0.00000000000E+00  0.91556181692E+03  0.91556181692E+03  0.00000000000E+00 0. -1.
         21   -1    0    0  501  502 -0.00000000000E+00 -0.00000000000E+00 -0.52082153734E+02  0.52082153734E+02  0.00000000000E+00 0. -1.
      99926    2    1    2    0    0  0.00000000000E+00  0.00000000000E+00  0.86347966319E+03  0.96764397066E+03  0.43673530337E+03 0.  0.
      99925    2    3    3    0    0  0.71948374238E+02 -0.32972196544E+02  0.43591753947E+03  0.51518335133E+03  0.26291833328E+03 0.  0.
         25    1    4    4    0    0  0.33046251935E+02 -0.36936795319E+02  0.15537055196E+03  0.20553320445E+03  0.12509000000E+03 0.  0.
         25    1    4    4    0    0  0.38902122303E+02  0.39645987754E+01  0.28054698751E+03  0.30965014688E+03  0.12509000000E+03 0.  0.
         25    1    3    3    0    0 -0.71948374238E+02  0.32972196544E+02  0.42756212372E+03  0.45246061933E+03  0.12509000000E+03 0.  0.
<mgrwt>
<rscale>  2 0.43673530E+03</rscale>
<asrwt>0</asrwt>
<pdfrwt beam="1">  1       21 0.13464143E+00 0.43673530E+03</pdfrwt>
<pdfrwt beam="2">  1       21 0.76591408E-02 0.43673530E+03</pdfrwt>
<totfact> 0.46763411E+04</totfact>
</mgrwt>
</event>
<event>
 7    0  0.4737014E-002  0.4616096E+03  0.7546771E-02  0.1024315E+00
         21   -1    0    0  502  501  0.00000000000E+00  0.00000000000E+00  0.53323930636E+02  0.53323930636E+02  0.00000000000E+00 0. -1.
         21   -1    0    0  501  502 -0.00000000000E+00 -0.00000000000E+00 -0.99900451412E+03  0.99900451412E+03  0.00000000000E+00 0. -1.
      99926    2    1    2    0    0  0.00000000000E+00  0.00000000000E+00 -0.94568058348E+03  0.10523284448E+04  0.46160956410E+03 0.  0.
      99925    2    3    3    0    0 -0.23291392047E+02 -0.11670053701E+03 -0.61854677391E+03  0.68242907770E+03  0.26257918861E+03 0.  0.
         25    1    4    4    0    0 -0.29728427936E+02 -0.77503682340E+02 -0.25491952965E+03  0.29584130019E+03  0.12509000000E+03 0.  0.
         25    1    4    4    0    0  0.64370358886E+01 -0.39196854675E+02 -0.36362724427E+03  0.38658777751E+03  0.12509000000E+03 0.  0.
         25    1    3    3    0    0  0.23291392047E+02  0.11670053701E+03 -0.32713380957E+03  0.36989936705E+03  0.12509000000E+03 0.  0.
<mgrwt>
<rscale>  2 0.46160956E+03</rscale>
<asrwt>0</asrwt>
<pdfrwt beam="1">  1       21 0.78417551E-02 0.46160956E+03</pdfrwt>
<pdfrwt beam="2">  1       21 0.14691242E+00 0.46160956E+03</pdfrwt>
<totfact> 0.35333753E+04</totfact>
</mgrwt>
</event>
<event>
 7    0  0.4737014E-002  0.4479644E+03  0.7546771E-02  0.1028331E+00
         21   -1    0    0  502  501  0.00000000000E+00  0.00000000000E+00  0.12519897763E+03  0.12519897763E+03  0.00000000000E+00 0.  1.
         21   -1    0    0  501  502 -0.00000000000E+00 -0.00000000000E+00 -0.40070629243E+03  0.40070629243E+03  0.00000000000E+00 0.  1.
      99926    2    1    2    0    0  0.00000000000E+00  0.00000000000E+00 -0.27550731480E+03  0.52590527006E+03  0.44796436529E+03 0.  0.
      99925    2    3    3    0    0  0.74000536028E+02  0.54492334902E+02 -0.11189624292E+03  0.30038013879E+03  0.26317667963E+03 0.  0.
         25    1    3    3    0    0 -0.74000536028E+02 -0.54492334902E+02 -0.16361107188E+03  0.22552513128E+03  0.12509000000E+03 0.  0.
         25    1    4    4    0    0  0.76531026105E+02  0.32359807406E+02 -0.76223563969E+02  0.16840930763E+03  0.12509000000E+03 0.  0.
         25    1    4    4    0    0 -0.25304900769E+01  0.22132527496E+02 -0.35672678952E+02  0.13197083116E+03  0.12509000000E+03 0.  0.
<mgrwt>
<rscale>  2 0.44796437E+03</rscale>
<asrwt>0</asrwt>
<pdfrwt beam="1">  1       21 0.18411614E-01 0.44796437E+03</pdfrwt>
<pdfrwt beam="2">  1       21 0.58927396E-01 0.44796437E+03</pdfrwt>
<totfact> 0.67150087E+04</totfact>
</mgrwt>
</event>
<event>
 7    0  0.4737014E-002  0.4574577E+03  0.7546771E-02  0.1025521E+00
         21   -1    0    0  502  501  0.00000000000E+00  0.00000000000E+00  0.13648207803E+03  0.13648207803E+03  0.00000000000E+00 0. -1.
         21   -1    0    0  501  502 -0.00000000000E+00 -0.00000000000E+00 -0.38332414975E+03  0.38332414975E+03  0.00000000000E+00 0. -1.
      99926    2    1    2    0    0  0.00000000000E+00  0.00000000000E+00 -0.24684207172E+03  0.51980622778E+03  0.45745765494E+03 0.  0.
      99925    2    3    3    0    0  0.38009751999E+02 -0.79284354768E+02 -0.24001402104E+03  0.36675433941E+03  0.26300430609E+03 0.  0.
         25    1    4    4    0    0  0.40759077837E+02 -0.44653657825E+02 -0.78659171308E+02  0.15965595797E+03  0.12509000000E+03 0.  0.
         25    1    4    4    0    0 -0.27493258387E+01 -0.34630696943E+02 -0.16135484973E+03  0.20709838144E+03  0.12509000000E+03 0.  0.
         25    1    3    3    0    0 -0.38009751999E+02  0.79284354768E+02 -0.68280506839E+01  0.15305188837E+03  0.12509000000E+03 0.  0.
<mgrwt>
<rscale>  2 0.45745765E+03</rscale>
<asrwt>0</asrwt>
<pdfrwt beam="1">  1       21 0.20070894E-01 0.45745765E+03</pdfrwt>
<pdfrwt beam="2">  1       21 0.56371197E-01 0.45745765E+03</pdfrwt>
<totfact> 0.62669502E+04</totfact>
</mgrwt>
</event>
<event>
 7    0  0.4737014E-002  0.4534449E+03  0.7546771E-02  0.1026700E+00
         21   -1    0    0  502  501  0.00000000000E+00  0.00000000000E+00  0.29269530090E+03  0.29269530090E+03  0.00000000000E+00 0. -1.
         21   -1    0    0  501  502 -0.00000000000E+00 -0.00000000000E+00 -0.17561971020E+03  0.17561971020E+03  0.00000000000E+00 0. -1.
      99926    2    1    2    0    0 -0.35527136788E-14  0.35527136788E-14  0.11707559070E+03  0.46831501110E+03  0.45344487613E+03 0.  0.
      99925    2    3    3    0    0  0.24049790867E+02 -0.16277992980E+02 -0.37656206513E+02  0.26723591556E+03  0.26297087135E+03 0.  0.
         25    1    4    4    0    0 -0.36656653437E+01 -0.16046635614E+01 -0.55754165089E+02  0.13701112025E+03  0.12509000000E+03 0.  0.
         25    1    3    3    0    0 -0.24049790867E+02  0.16277992980E+02  0.15473179721E+03  0.20107909554E+03  0.12509000000E+03 0.  0.
         25    1    4    4    0    0  0.27715456210E+02 -0.14673329418E+02  0.18097958576E+02  0.13022479531E+03  0.12509000000E+03 0.  0.
<mgrwt>
<rscale>  2 0.45344488E+03</rscale>
<asrwt>0</asrwt>
<pdfrwt beam="1">  1       21 0.43043427E-01 0.45344488E+03</pdfrwt>
<pdfrwt beam="2">  1       21 0.25826428E-01 0.45344488E+03</pdfrwt>
<totfact> 0.68401202E+04</totfact>
</mgrwt>
</event>
<event>
 7    0  0.4737014E-002  0.4504534E+03  0.7546771E-02  0.1027587E+00
         21   -1    0    0  502  501  0.00000000000E+00  0.00000000000E+00  0.59545516579E+02  0.59545516579E+02  0.00000000000E+00 0. -1.
         21   -1    0    0  501  502 -0.00000000000E+00 -0.00000000000E+00 -0.85190423234E+03  0.85190423234E+03  0.00000000000E+00 0. -1.
      99926    2    1    2    0    0 -0.14210854715E-13  0.00000000000E+00 -0.79235871576E+03  0.91144974892E+03  0.45045344972E+03 0.  0.
      99925    2    3    3    0    0  0.81129125707E+02 -0.54170204624E+02 -0.59834158720E+03  0.66083749786E+03  0.26301558413E+03 0.  0.
         25    1    3    3    0    0 -0.81129125707E+02  0.54170204624E+02 -0.19401712856E+03  0.25061225106E+03  0.12509000000E+03 0.  0.
         25    1    4    4    0    0 -0.91030209019E+00 -0.19585762859E+02 -0.25365816358E+03  0.28350379681E+03  0.12509000000E+03 0.  0.
         25    1    4    4    0    0  0.82039427797E+02 -0.34584441765E+02 -0.34468342362E+03  0.37733370105E+03  0.12509000000E+03 0.  0.
<mgrwt>
<rscale>  2 0.45045345E+03</rscale>
<asrwt>0</asrwt>
<pdfrwt beam="1">  1       21 0.87566939E-02 0.45045345E+03</pdfrwt>
<pdfrwt beam="2">  1       21 0.12528003E+00 0.45045345E+03</pdfrwt>
<totfact> 0.44297351E+04</totfact>
</mgrwt>
</event>
<event>
 7    0  0.4737014E-002  0.4493962E+03  0.7546771E-02  0.1027902E+00
         21   -1    0    0  502  501  0.00000000000E+00  0.00000000000E+00  0.65743852677E+03  0.65743852677E+03  0.00000000000E+00 0.  1.
         21   -1    0    0  501  502 -0.00000000000E+00 -0.00000000000E+00 -0.76796879164E+02  0.76796879164E+02  0.00000000000E+00 0.  1.
      99926    2    1    2    0    0  0.00000000000E+00  0.00000000000E+00  0.58064164760E+03  0.73423540593E+03  0.44939615974E+03 0.  0.
      99925    2    3    3    0    0 -0.10200354918E+03 -0.18179607016E+02  0.31798358215E+03  0.42541184854E+03  0.26291911342E+03 0.  0.
         25    1    3    3    0    0  0.10200354918E+03  0.18179607016E+02  0.26265806545E+03  0.30882355739E+03  0.12509000000E+03 0.  0.
         25    1    4    4    0    0 -0.83378163285E+02  0.74058940606E+01  0.13985291825E+03  0.20545829802E+03  0.12509000000E+03 0.  0.
         25    1    4    4    0    0 -0.18625385894E+02 -0.25585501077E+02  0.17813066390E+03  0.21995355052E+03  0.12509000000E+03 0.  0.
<mgrwt>
<rscale>  2 0.44939616E+03</rscale>
<asrwt>0</asrwt>
<pdfrwt beam="1">  1       21 0.96682133E-01 0.44939616E+03</pdfrwt>
<pdfrwt beam="2">  1       21 0.11293659E-01 0.44939616E+03</pdfrwt>
<totfact> 0.53397448E+04</totfact>
</mgrwt>
</event>
<event>
 7    0  0.4737014E-002  0.4473956E+03  0.7546771E-02  0.1028502E+00
         21   -1    0    0  502  501  0.00000000000E+00  0.00000000000E+00  0.22585864264E+03  0.22585864264E+03  0.00000000000E+00 0.  1.
         21   -1    0    0  501  502 -0.00000000000E+00 -0.00000000000E+00 -0.22155758503E+03  0.22155758503E+03  0.00000000000E+00 0.  1.
      99926    2    1    2    0    0  0.17763568394E-14  0.00000000000E+00  0.43010576172E+01  0.44741622767E+03  0.44739555394E+03 0.  0.
      99925    2    3    3    0    0 -0.10347485246E+02  0.70568638214E+02  0.80165437555E+02  0.28465899928E+03  0.26366123216E+03 0.  0.
         25    1    3    3    0    0  0.10347485246E+02 -0.70568638214E+02 -0.75864379938E+02  0.16275722839E+03  0.12509000000E+03 0.  0.
         25    1    4    4    0    0  0.34831470365E+02  0.24043142904E+02  0.43950051518E+02  0.13917765330E+03  0.12509000000E+03 0.  0.
         25    1    4    4    0    0 -0.45178955611E+02  0.46525495309E+02  0.36215386037E+02  0.14548134599E+03  0.12509000000E+03 0.  0.
<mgrwt>
<rscale>  2 0.44739555E+03</rscale>
<asrwt>0</asrwt>
<pdfrwt beam="1">  1       21 0.33214506E-01 0.44739555E+03</pdfrwt>
<pdfrwt beam="2">  1       21 0.32581998E-01 0.44739555E+03</pdfrwt>
<totfact> 0.73462175E+04</totfact>
</mgrwt>
</event>
<event>
 7    0  0.4737014E-002  0.4495577E+03  0.7546771E-02  0.1027854E+00
         21   -1    0    0  502  501  0.00000000000E+00  0.00000000000E+00  0.13941751756E+04  0.13941751756E+04  0.00000000000E+00 0. -1.
         21   -1    0    0  501  502 -0.00000000000E+00 -0.00000000000E+00 -0.36240444701E+02  0.36240444701E+02  0.00000000000E+00 0. -1.
      99926    2    1    2    0    0  0.00000000000E+00  0.00000000000E+00  0.13579347309E+04  0.14304156203E+04  0.44955768642E+03 0.  0.
      99925    2    3    3    0    0  0.56711271425E+02 -0.41017265661E+02  0.11199132067E+04  0.11525661314E+04  0.26325750204E+03 0.  0.
         25    1    4    4    0    0  0.35666859155E+02 -0.11543089536E+02  0.72696454190E+03  0.73860024441E+03  0.12509000000E+03 0.  0.
         25    1    4    4    0    0  0.21044412270E+02 -0.29474176125E+02  0.39294866475E+03  0.41396588697E+03  0.12509000000E+03 0.  0.
         25    1    3    3    0    0 -0.56711271425E+02  0.41017265661E+02  0.23802152423E+03  0.27784948891E+03  0.12509000000E+03 0.  0.
<mgrwt>
<rscale>  2 0.44955769E+03</rscale>
<asrwt>0</asrwt>
<pdfrwt beam="1">  1       21 0.20502573E+00 0.44955769E+03</pdfrwt>
<pdfrwt beam="2">  1       21 0.53294781E-02 0.44955769E+03</pdfrwt>
<totfact> 0.26641598E+04</totfact>
</mgrwt>
</event>
<event>
 7    0  0.4737014E-002  0.4622962E+03  0.7546771E-02  0.1024117E+00
         21   -1    0    0  502  501  0.00000000000E+00  0.00000000000E+00  0.11256981210E+04  0.11256981210E+04  0.00000000000E+00 0. -1.
         21   -1    0    0  501  502 -0.00000000000E+00 -0.00000000000E+00 -0.47463379963E+02  0.47463379963E+02  0.00000000000E+00 0. -1.
      99926    2    1    2    0    0 -0.22204460493E-15  0.28421709430E-13  0.10782347410E+04  0.11731615009E+04  0.46229617190E+03 0.  0.
      99925    2    3    3    0    0  0.15429719492E+01 -0.11362985005E+03  0.57340468489E+03  0.64079413036E+03  0.26250725946E+03 0.  0.
         25    1    4    4    0    0 -0.53079927975E+01 -0.67214423923E+02  0.20956535115E+03  0.25320169445E+03  0.12509000000E+03 0.  0.
         25    1    4    4    0    0  0.68509647467E+01 -0.46415426130E+02  0.36383933374E+03  0.38759243591E+03  0.12509000000E+03 0.  0.
         25    1    3    3    0    0 -0.15429719492E+01  0.11362985005E+03  0.50483005611E+03  0.53236737056E+03  0.12509000000E+03 0.  0.
<mgrwt>
<rscale>  2 0.46229617E+03</rscale>
<asrwt>0</asrwt>
<pdfrwt beam="1">  1       21 0.16554383E+00 0.46229617E+03</pdfrwt>
<pdfrwt beam="2">  1       21 0.69799095E-02 0.46229617E+03</pdfrwt>
<totfact> 0.31206174E+04</totfact>
</mgrwt>
</event>
<event>
 6    0  0.4737014E-002  0.4643651E+03  0.7546771E-02  0.1023523E+00
         21   -1    0    0  502  501  0.00000000000E+00  0.00000000000E+00  0.58333062627E+03  0.58333062627E+03  0.00000000000E+00 0. -1.
         21   -1    0    0  501  502 -0.00000000000E+00 -0.00000000000E+00 -0.92415413742E+02  0.92415413742E+02  0.00000000000E+00 0. -1.
      99926    2    1    2    0    0  0.00000000000E+00  0.00000000000E+00  0.49091521253E+03  0.67574604001E+03  0.46436512003E+03 0.  0.
         25    1    3    3    0    0  0.67327090815E+02 -0.11797838597E+02  0.17169177845E+03  0.22315398504E+03  0.12509000000E+03 0.  0.
         25    1    3    3    0    0 -0.10078930694E+03 -0.57401372544E+02  0.20421082768E+03  0.26608827897E+03  0.12509000000E+03 0.  0.
         25    1    3    3    0    0  0.33462216127E+02  0.69199211141E+02  0.11501260640E+03  0.18650377600E+03  0.12509000000E+03 0.  0.
<mgrwt>
<rscale>  2 0.46436512E+03</rscale>
<asrwt>0</asrwt>
<pdfrwt beam="1">  1       21 0.85783914E-01 0.46436512E+03</pdfrwt>
<pdfrwt beam="2">  1       21 0.13590502E-01 0.46436512E+03</pdfrwt>
<totfact> 0.50414295E+04</totfact>
</mgrwt>
</event>
<event>
 7    0  0.4737014E-002  0.4659124E+03  0.7546771E-02  0.1023080E+00
         21   -1    0    0  502  501  0.00000000000E+00  0.00000000000E+00  0.60651960710E+03  0.60651960710E+03  0.00000000000E+00 0.  1.
         21   -1    0    0  501  502 -0.00000000000E+00 -0.00000000000E+00 -0.89475397759E+02  0.89475397759E+02  0.00000000000E+00 0.  1.
      99926    2    1    2    0    0 -0.14210854715E-13  0.00000000000E+00  0.51704420934E+03  0.69599500486E+03  0.46591236555E+03 0.  0.
      99925    2    3    3    0    0 -0.10593445986E+03 -0.56250813840E+02  0.28109188856E+03  0.40323696547E+03  0.26306108922E+03 0.  0.
         25    1    3    3    0    0  0.10593445986E+03  0.56250813840E+02  0.23595232077E+03  0.29275803938E+03  0.12509000000E+03 0.  0.
         25    1    4    4    0    0 -0.50257977784E+02  0.57012242765E+00  0.93126675123E+02  0.16384832953E+03  0.12509000000E+03 0.  0.
         25    1    4    4    0    0 -0.55676482080E+02 -0.56820936268E+02  0.18796521344E+03  0.23938863594E+03  0.12509000000E+03 0.  0.
<mgrwt>
<rscale>  2 0.46591237E+03</rscale>
<asrwt>0</asrwt>
<pdfrwt beam="1">  1       21 0.89194058E-01 0.46591237E+03</pdfrwt>
<pdfrwt beam="2">  1       21 0.13158147E-01 0.46591237E+03</pdfrwt>
<totfact> 0.48791903E+04</totfact>
</mgrwt>
</event>
<event>
 7    0  0.4737014E-002  0.4564837E+03  0.7546771E-02  0.1025806E+00
         21   -1    0    0  502  501  0.00000000000E+00  0.00000000000E+00  0.30101069788E+03  0.30101069788E+03  0.00000000000E+00 0.  1.
         21   -1    0    0  501  502 -0.00000000000E+00 -0.00000000000E+00 -0.17306478378E+03  0.17306478378E+03  0.00000000000E+00 0.  1.
      99926    2    1    2    0    0  0.00000000000E+00  0.00000000000E+00  0.12794591410E+03  0.47407548166E+03  0.45648374054E+03 0.  0.
      99925    2    3    3    0    0 -0.23113936974E+02 -0.89518745138E+02  0.10054355911E+02  0.27889918339E+03  0.26293688332E+03 0.  0.
         25    1    3    3    0    0  0.23113936974E+02  0.89518745138E+02  0.11789155819E+03  0.19517629827E+03  0.12509000000E+03 0.  0.
         25    1    4    4    0    0 -0.17633106080E+02 -0.28473441063E+01  0.78483167695E+01  0.12660228266E+03  0.12509000000E+03 0.  0.
         25    1    4    4    0    0 -0.54808308939E+01 -0.86671401032E+02  0.22060391419E+01  0.15229690073E+03  0.12509000000E+03 0.  0.
<mgrwt>
<rscale>  2 0.45648374E+03</rscale>
<asrwt>0</asrwt>
<pdfrwt beam="1">  1       21 0.44266279E-01 0.45648374E+03</pdfrwt>
<pdfrwt beam="2">  1       21 0.25450704E-01 0.45648374E+03</pdfrwt>
<totfact> 0.66349375E+04</totfact>
</mgrwt>
</event>
<event>
 7    0  0.4737014E-002  0.4604055E+03  0.7546771E-02  0.1024664E+00
         21   -1    0    0  502  501  0.00000000000E+00  0.00000000000E+00  0.76587699502E+02  0.76587699502E+02  0.00000000000E+00 0.  1.
         21   -1    0    0  501  502 -0.00000000000E+00 -0.00000000000E+00 -0.69192976024E+03  0.69192976024E+03  0.00000000000E+00 0.  1.
      99926    2    1    2    0    0  0.00000000000E+00  0.00000000000E+00 -0.61534206073E+03  0.76851745974E+03  0.46040551062E+03 0.  0.
      99925    2    3    3    0    0 -0.11214895387E+02 -0.11363773378E+03 -0.43610514163E+03  0.52191516922E+03  0.26299893705E+03 0.  0.
         25    1    3    3    0    0  0.11214895387E+02  0.11363773378E+03 -0.17923691911E+03  0.24660229052E+03  0.12509000000E+03 0.  0.
         25    1    4    4    0    0 -0.22823269325E+02 -0.46600240351E+02 -0.14842552079E+03  0.20092318767E+03  0.12509000000E+03 0.  0.
         25    1    4    4    0    0  0.11608373938E+02 -0.67037493433E+02 -0.28767962084E+03  0.32099198155E+03  0.12509000000E+03 0.  0.
<mgrwt>
<rscale>  2 0.46040551E+03</rscale>
<asrwt>0</asrwt>
<pdfrwt beam="1">  1       21 0.11262897E-01 0.46040551E+03</pdfrwt>
<pdfrwt beam="2">  1       21 0.10175438E+00 0.46040551E+03</pdfrwt>
<totfact> 0.47286454E+04</totfact>
</mgrwt>
</event>
<event>
 7    0  0.4737014E-002  0.4589363E+03  0.7546771E-02  0.1025090E+00
         21   -1    0    0  502  501  0.00000000000E+00  0.00000000000E+00  0.14436856251E+04  0.14436856251E+04  0.00000000000E+00 0. -1.
         21   -1    0    0  501  502 -0.00000000000E+00 -0.00000000000E+00 -0.36473062409E+02  0.36473062409E+02  0.00000000000E+00 0. -1.
      99926    2    1    2    0    0  0.00000000000E+00  0.00000000000E+00  0.14072125627E+04  0.14801586875E+04  0.45893631760E+03 0.  0.
      99925    2    3    3    0    0 -0.10354522059E+03  0.17205662353E+02  0.10477513119E+04  0.10853453817E+04  0.26300976877E+03 0.  0.
         25    1    4    4    0    0 -0.22841798548E+02  0.20795348199E+02  0.59293880966E+03  0.60677684066E+03  0.12509000000E+03 0.  0.
         25    1    3    3    0    0  0.10354522059E+03 -0.17205662353E+02  0.35946125084E+03  0.39481330586E+03  0.12509000000E+03 0.  0.
         25    1    4    4    0    0 -0.80703422046E+02 -0.35896858453E+01  0.45481250220E+03  0.47856854100E+03  0.12509000000E+03 0.  0.
<mgrwt>
<rscale>  2 0.45893632E+03</rscale>
<asrwt>0</asrwt>
<pdfrwt beam="1">  1       21 0.21230667E+00 0.45893632E+03</pdfrwt>
<pdfrwt beam="2">  1       21 0.53636866E-02 0.45893632E+03</pdfrwt>
<totfact> 0.23541539E+04</totfact>
</mgrwt>
</event>
<event>
 7    0  0.4737014E-002  0.4519872E+03  0.7546771E-02  0.1027131E+00
         21   -1    0    0  502  501  0.00000000000E+00  0.00000000000E+00  0.48746847981E+03  0.48746847981E+03  0.00000000000E+00 0. -1.
         21   -1    0    0  501  502 -0.00000000000E+00 -0.00000000000E+00 -0.10477212612E+03  0.10477212612E+03  0.00000000000E+00 0. -1.
      99926    2    1    2    0    0 -0.35527136788E-14  0.00000000000E+00  0.38269635369E+03  0.59224060594E+03  0.45198720800E+03 0.  0.
      99925    2    3    3    0    0 -0.20866304674E+02 -0.69050542169E+02  0.13255365702E+03  0.30341149238E+03  0.26321983526E+03 0.  0.
         25    1    4    4    0    0 -0.40702466606E+02 -0.63143863651E+02  0.64858758206E+02  0.15968094727E+03  0.12509000000E+03 0.  0.
         25    1    3    3    0    0  0.20866304674E+02  0.69050542169E+02  0.25014269666E+03  0.28882911356E+03  0.12509000000E+03 0.  0.
         25    1    4    4    0    0  0.19836161932E+02 -0.59066785173E+01  0.67694898818E+02  0.14373054511E+03  0.12509000000E+03 0.  0.
<mgrwt>
<rscale>  2 0.45198721E+03</rscale>
<asrwt>0</asrwt>
<pdfrwt beam="1">  1       21 0.71686540E-01 0.45198721E+03</pdfrwt>
<pdfrwt beam="2">  1       21 0.15407666E-01 0.45198721E+03</pdfrwt>
<totfact> 0.60588197E+04</totfact>
</mgrwt>
</event>
<event>
 7    0  0.4737014E-002  0.4946160E+03  0.7546771E-02  0.1015194E+00
         21   -1    0    0  502  501  0.00000000000E+00  0.00000000000E+00  0.29161254315E+03  0.29161254315E+03  0.00000000000E+00 0.  1.
         21   -1    0    0  501  502 -0.00000000000E+00 -0.00000000000E+00 -0.20973461365E+03  0.20973461365E+03  0.00000000000E+00 0.  1.
      99926    2    1    2    0    0  0.00000000000E+00  0.00000000000E+00  0.81877929500E+02  0.50134715680E+03  0.49461598872E+03 0.  0.
      99925    2    3    3    0    0  0.82076992424E+02  0.11972141073E+03  0.25620836164E+02  0.30164183007E+03  0.26317583007E+03 0.  0.
         25    1    4    4    0    0  0.40749341026E+02  0.15802652244E+02  0.17450030275E+02  0.13364970733E+03  0.12509000000E+03 0.  0.
         25    1    3    3    0    0 -0.82076992424E+02 -0.11972141073E+03  0.56257093336E+02  0.19970532673E+03  0.12509000000E+03 0.  0.
         25    1    4    4    0    0  0.41327651398E+02  0.10391875849E+03  0.81708058886E+01  0.16799212275E+03  0.12509000000E+03 0.  0.
<mgrwt>
<rscale>  2 0.49461599E+03</rscale>
<asrwt>0</asrwt>
<pdfrwt beam="1">  1       21 0.42884197E-01 0.49461599E+03</pdfrwt>
<pdfrwt beam="2">  1       21 0.30843326E-01 0.49461599E+03</pdfrwt>
<totfact> 0.48148523E+04</totfact>
</mgrwt>
</event>
<event>
 7    0  0.4737014E-002  0.4470800E+03  0.7546771E-02  0.1028596E+00
         21   -1    0    0  502  501  0.00000000000E+00  0.00000000000E+00  0.24471748579E+03  0.24471748579E+03  0.00000000000E+00 0.  1.
         21   -1    0    0  501  502 -0.00000000000E+00 -0.00000000000E+00 -0.20419515229E+03  0.20419515229E+03  0.00000000000E+00 0.  1.
      99926    2    1    2    0    0  0.00000000000E+00 -0.88817841970E-15  0.40522333495E+02  0.44891263808E+03  0.44707996725E+03 0.  0.
      99925    2    3    3    0    0  0.53590728739E+02  0.41712746095E+01 -0.65511626723E+02  0.27634359521E+03  0.26302973908E+03 0.  0.
         25    1    4    4    0    0  0.15150340241E+02 -0.93991735088E+01  0.61958949733E+01  0.12650602550E+03  0.12509000000E+03 0.  0.
         25    1    3    3    0    0 -0.53590728739E+02 -0.41712746095E+01  0.10603396022E+03  0.17256904287E+03  0.12509000000E+03 0.  0.
         25    1    4    4    0    0  0.38440388498E+02  0.13570448118E+02 -0.71707521696E+02  0.14983756971E+03  0.12509000000E+03 0.  0.
<mgrwt>
<rscale>  2 0.44707997E+03</rscale>
<asrwt>0</asrwt>
<pdfrwt beam="1">  1       21 0.35987866E-01 0.44707997E+03</pdfrwt>
<pdfrwt beam="2">  1       21 0.30028699E-01 0.44707997E+03</pdfrwt>
<totfact> 0.73531937E+04</totfact>
</mgrwt>
</event>
<event>
 7    0  0.4737014E-002  0.4520939E+03  0.7546771E-02  0.1027099E+00
         21   -1    0    0  502  501  0.00000000000E+00  0.00000000000E+00  0.14634191561E+04  0.14634191561E+04  0.00000000000E+00 0.  1.
         21   -1    0    0  501  502 -0.00000000000E+00 -0.00000000000E+00 -0.34916323685E+02  0.34916323685E+02  0.00000000000E+00 0.  1.
      99926    2    1    2    0    0  0.71054273576E-14  0.00000000000E+00  0.14285028324E+04  0.14983354798E+04  0.45209387052E+03 0.  0.
      99925    2    3    3    0    0  0.44319303194E+02 -0.67679003296E+02  0.11504003414E+04  0.11828467293E+04  0.26298439345E+03 0.  0.
         25    1    4    4    0    0 -0.69110654749E+01 -0.66311908673E+01  0.58637815950E+03  0.59964872180E+03  0.12509000000E+03 0.  0.
         25    1    3    3    0    0 -0.44319303194E+02  0.67679003296E+02  0.27810249093E+03  0.31548875049E+03  0.12509000000E+03 0.  0.
         25    1    4    4    0    0  0.51230368669E+02 -0.61047812429E+02  0.56402218195E+03  0.58319800746E+03  0.12509000000E+03 0.  0.
<mgrwt>
<rscale>  2 0.45209387E+03</rscale>
<asrwt>0</asrwt>
<pdfrwt beam="1">  1       21 0.21520866E+00 0.45209387E+03</pdfrwt>
<pdfrwt beam="2">  1       21 0.51347545E-02 0.45209387E+03</pdfrwt>
<totfact> 0.24365328E+04</totfact>
</mgrwt>
</event>
<event>
 7    0  0.4737014E-002  0.4400702E+03  0.7546771E-02  0.1030725E+00
         21   -1    0    0  502  501  0.00000000000E+00  0.00000000000E+00  0.10475024980E+04  0.10475024980E+04  0.00000000000E+00 0. -1.
         21   -1    0    0  501  502 -0.00000000000E+00 -0.00000000000E+00 -0.46219886667E+02  0.46219886667E+02  0.00000000000E+00 0. -1.
      99926    2    1    2    0    0 -0.71054273576E-14  0.71054273576E-14  0.10012826113E+04  0.10937223846E+04  0.44007020685E+03 0.  0.
      99925    2    3    3    0    0  0.57313380670E+02 -0.36159856501E+02  0.81683691352E+03  0.86078444792E+03  0.26293528421E+03 0.  0.
         25    1    4    4    0    0  0.17341701597E+02 -0.56994417536E+02  0.42092359697E+03  0.44314024962E+03  0.12509000000E+03 0.  0.
         25    1    4    4    0    0  0.39971679073E+02  0.20834561035E+02  0.39591331654E+03  0.41764419830E+03  0.12509000000E+03 0.  0.
         25    1    3    3    0    0 -0.57313380670E+02  0.36159856501E+02  0.18444569777E+03  0.23293793669E+03  0.12509000000E+03 0.  0.
<mgrwt>
<rscale>  2 0.44007021E+03</rscale>
<asrwt>0</asrwt>
<pdfrwt beam="1">  1       21 0.15404447E+00 0.44007021E+03</pdfrwt>
<pdfrwt beam="2">  1       21 0.67970428E-02 0.44007021E+03</pdfrwt>
<totfact> 0.40194135E+04</totfact>
</mgrwt>
</event>
<event>
 7    0  0.4737014E-002  0.4517482E+03  0.7546771E-02  0.1027202E+00
         21   -1    0    0  502  501  0.00000000000E+00  0.00000000000E+00  0.67732143626E+03  0.67732143626E+03  0.00000000000E+00 0.  1.
         21   -1    0    0  501  502 -0.00000000000E+00 -0.00000000000E+00 -0.75324808522E+02  0.75324808522E+02  0.00000000000E+00 0.  1.
      99926    2    1    2    0    0  0.00000000000E+00  0.00000000000E+00  0.60199662774E+03  0.75264624478E+03  0.45174819311E+03 0.  0.
      99925    2    3    3    0    0 -0.91238359098E+02  0.55801250123E+02  0.33810463607E+03  0.44164028173E+03  0.26323596986E+03 0.  0.
         25    1    4    4    0    0 -0.53502622093E+02  0.62027740681E+02  0.14411350594E+03  0.20766844218E+03  0.12509000000E+03 0.  0.
         25    1    4    4    0    0 -0.37735737005E+02 -0.62264905584E+01  0.19399113013E+03  0.23397183955E+03  0.12509000000E+03 0.  0.
         25    1    3    3    0    0  0.91238359098E+02 -0.55801250123E+02  0.26389199167E+03  0.31100596305E+03  0.12509000000E+03 0.  0.
<mgrwt>
<rscale>  2 0.45174819E+03</rscale>
<asrwt>0</asrwt>
<pdfrwt beam="1">  1       21 0.99606090E-01 0.45174819E+03</pdfrwt>
<pdfrwt beam="2">  1       21 0.11077178E-01 0.45174819E+03</pdfrwt>
<totfact> 0.51438065E+04</totfact>
</mgrwt>
</event>
<event>
 7    0  0.4737014E-002  0.4514606E+03  0.7546771E-02  0.1027287E+00
         21   -1    0    0  502  501  0.00000000000E+00  0.00000000000E+00  0.40055150185E+02  0.40055150185E+02  0.00000000000E+00 0. -1.
         21   -1    0    0  501  502 -0.00000000000E+00 -0.00000000000E+00 -0.12721003221E+04  0.12721003221E+04  0.00000000000E+00 0. -1.
      99926    2    1    2    0    0  0.00000000000E+00  0.00000000000E+00 -0.12320451719E+04  0.13121554723E+04  0.45146060493E+03 0.  0.
      99925    2    3    3    0    0 -0.30283171069E+02  0.10303144528E+03 -0.84724014176E+03  0.89352082429E+03  0.26273761906E+03 0.  0.
         25    1    4    4    0    0 -0.19482499527E+02  0.89625800952E+01 -0.37175437671E+03  0.39282148660E+03  0.12509000000E+03 0.  0.
         25    1    3    3    0    0  0.30283171069E+02 -0.10303144528E+03 -0.38480503015E+03  0.41863464799E+03  0.12509000000E+03 0.  0.
         25    1    4    4    0    0 -0.10800671541E+02  0.94068865184E+02 -0.47548576504E+03  0.50069933769E+03  0.12509000000E+03 0.  0.
<mgrwt>
<rscale>  2 0.45146060E+03</rscale>
<asrwt>0</asrwt>
<pdfrwt beam="1">  1       21 0.58904639E-02 0.45146060E+03</pdfrwt>
<pdfrwt beam="2">  1       21 0.18707356E+00 0.45146060E+03</pdfrwt>
<totfact> 0.29569225E+04</totfact>
</mgrwt>
</event>
<event>
 7    0  0.4737014E-002  0.4552104E+03  0.7546771E-02  0.1026180E+00
         21   -1    0    0  502  501  0.00000000000E+00  0.00000000000E+00  0.69356084310E+02  0.69356084310E+02  0.00000000000E+00 0. -1.
         21   -1    0    0  501  502 -0.00000000000E+00 -0.00000000000E+00 -0.74692984553E+03  0.74692984553E+03  0.00000000000E+00 0. -1.
      99926    2    1    2    0    0 -0.71054273576E-14  0.00000000000E+00 -0.67757376122E+03  0.81628592984E+03  0.45521040999E+03 0.  0.
      99925    2    3    3    0    0  0.42242211874E+02  0.10347238248E+03 -0.39440669924E+03  0.48716280472E+03  0.26321097145E+03 0.  0.
         25    1    3    3    0    0 -0.42242211874E+02 -0.10347238248E+03 -0.28316706198E+03  0.32912312512E+03  0.12509000000E+03 0.  0.
         25    1    4    4    0    0  0.25597348094E+02  0.76330549752E+02 -0.26788530784E+03  0.30641740047E+03  0.12509000000E+03 0.  0.
         25    1    4    4    0    0  0.16644863780E+02  0.27141832729E+02 -0.12652139140E+03  0.18074540424E+03  0.12509000000E+03 0.  0.
<mgrwt>
<rscale>  2 0.45521041E+03</rscale>
<asrwt>0</asrwt>
<pdfrwt beam="1">  1       21 0.10199424E-01 0.45521041E+03</pdfrwt>
<pdfrwt beam="2">  1       21 0.10984262E+00 0.45521041E+03</pdfrwt>
<totfact> 0.46909653E+04</totfact>
</mgrwt>
</event>
<event>
 7    0  0.4737014E-002  0.4092756E+03  0.7546771E-02  0.1040614E+00
         21   -1    0    0  502  501  0.00000000000E+00  0.00000000000E+00  0.47120717481E+03  0.47120717481E+03  0.00000000000E+00 0.  1.
         21   -1    0    0  501  502 -0.00000000000E+00 -0.00000000000E+00 -0.88870971120E+02  0.88870971120E+02  0.00000000000E+00 0.  1.
      99926    2    1    2    0    0  0.00000000000E+00  0.00000000000E+00  0.38233620369E+03  0.56007814593E+03  0.40927564904E+03 0.  0.
      99925    2    3    3    0    0  0.51607319668E+02  0.20226951800E+02  0.28777463302E+03  0.39375964495E+03  0.26298283890E+03 0.  0.
         25    1    4    4    0    0  0.18158481667E+02  0.15508888524E+02  0.84956930650E+02  0.15308639471E+03  0.12509000000E+03 0.  0.
         25    1    3    3    0    0 -0.51607319668E+02 -0.20226951800E+02  0.94561570671E+02  0.16631850099E+03  0.12509000000E+03 0.  0.
         25    1    4    4    0    0  0.33448838001E+02  0.47180632761E+01  0.20281770237E+03  0.24067325024E+03  0.12509000000E+03 0.  0.
<mgrwt>
<rscale>  2 0.40927565E+03</rscale>
<asrwt>0</asrwt>
<pdfrwt beam="1">  1       21 0.69295172E-01 0.40927565E+03</pdfrwt>
<pdfrwt beam="2">  1       21 0.13069261E-01 0.40927565E+03</pdfrwt>
<totfact> 0.89414380E+04</totfact>
</mgrwt>
</event>
<event>
 7    0  0.4737014E-002  0.4476303E+03  0.7546771E-02  0.1028431E+00
         21   -1    0    0  502  501  0.00000000000E+00  0.00000000000E+00  0.14479788147E+04  0.14479788147E+04  0.00000000000E+00 0. -1.
         21   -1    0    0  501  502 -0.00000000000E+00 -0.00000000000E+00 -0.34595268843E+02  0.34595268843E+02  0.00000000000E+00 0. -1.
      99926    2    1    2    0    0 -0.71054273576E-14  0.00000000000E+00  0.14133835459E+04  0.14825740836E+04  0.44763027768E+03 0.  0.
      99925    2    3    3    0    0 -0.57643657694E+02  0.33098545940E+02  0.11701596115E+04  0.12011070422E+04  0.26261436642E+03 0.  0.
         25    1    4    4    0    0 -0.59768774145E+02 -0.79938457860E+01  0.57022261630E+03  0.58688802013E+03  0.12509000000E+03 0.  0.
         25    1    3    3    0    0  0.57643657694E+02 -0.33098545940E+02  0.24322393443E+03  0.28146704140E+03  0.12509000000E+03 0.  0.
         25    1    4    4    0    0  0.21251164510E+01  0.41092391726E+02  0.59993699516E+03  0.61421902205E+03  0.12509000000E+03 0.  0.
<mgrwt>
<rscale>  2 0.44763028E+03</rscale>
<asrwt>0</asrwt>
<pdfrwt beam="1">  1       21 0.21293802E+00 0.44763028E+03</pdfrwt>
<pdfrwt beam="2">  1       21 0.50875405E-02 0.44763028E+03</pdfrwt>
<totfact> 0.25646534E+04</totfact>
</mgrwt>
</event>
<event>
 7    0  0.4737014E-002  0.4599644E+03  0.7546771E-02  0.1024792E+00
         21   -1    0    0  502  501  0.00000000000E+00  0.00000000000E+00  0.12304070358E+03  0.12304070358E+03  0.00000000000E+00 0. -1.
         21   -1    0    0  501  502 -0.00000000000E+00 -0.00000000000E+00 -0.42987248317E+03  0.42987248317E+03  0.00000000000E+00 0. -1.
      99926    2    1    2    0    0  0.35527136788E-14  0.00000000000E+00 -0.30683177960E+03  0.55291318675E+03  0.45996440200E+03 0.  0.
      99925    2    3    3    0    0 -0.19319566384E+02 -0.89760012305E+02 -0.28088515949E+03  0.39558918779E+03  0.26299092612E+03 0.  0.
         25    1    4    4    0    0 -0.41136153524E+02 -0.72689625244E+02 -0.14898347539E+03  0.21170627951E+03  0.12509000000E+03 0.  0.
         25    1    4    4    0    0  0.21816587139E+02 -0.17070387061E+02 -0.13190168410E+03  0.18388290828E+03  0.12509000000E+03 0.  0.
         25    1    3    3    0    0  0.19319566384E+02  0.89760012305E+02 -0.25946620109E+02  0.15732399896E+03  0.12509000000E+03 0.  0.
<mgrwt>
<rscale>  2 0.45996440E+03</rscale>
<asrwt>0</asrwt>
<pdfrwt beam="1">  1       21 0.18094221E-01 0.45996440E+03</pdfrwt>
<pdfrwt beam="2">  1       21 0.63216542E-01 0.45996440E+03</pdfrwt>
<totfact> 0.59310421E+04</totfact>
</mgrwt>
</event>
<event>
 7    0  0.4737014E-002  0.4535292E+03  0.7546771E-02  0.1026675E+00
         21   -1    0    0  502  501  0.00000000000E+00  0.00000000000E+00  0.15361770436E+03  0.15361770436E+03  0.00000000000E+00 0. -1.
         21   -1    0    0  501  502 -0.00000000000E+00 -0.00000000000E+00 -0.33474120491E+03  0.33474120491E+03  0.00000000000E+00 0. -1.
      99926    2    1    2    0    0  0.00000000000E+00  0.00000000000E+00 -0.18112350055E+03  0.48835890928E+03  0.45352916314E+03 0.  0.
      99925    2    3    3    0    0 -0.87640319882E+02 -0.65929088433E+02 -0.13271576495E+03  0.31510104557E+03  0.26390855288E+03 0.  0.
         25    1    3    3    0    0  0.87640319882E+02  0.65929088433E+02 -0.48407735601E+02  0.17325786371E+03  0.12509000000E+03 0.  0.
         25    1    4    4    0    0 -0.43378074790E+02 -0.76022884892E+02 -0.73653208160E+02  0.16950940851E+03  0.12509000000E+03 0.  0.
         25    1    4    4    0    0 -0.44262245093E+02  0.10093796460E+02 -0.59062556791E+02  0.14559163706E+03  0.12509000000E+03 0.  0.
<mgrwt>
<rscale>  2 0.45352916E+03</rscale>
<asrwt>0</asrwt>
<pdfrwt beam="1">  1       21 0.22590839E-01 0.45352916E+03</pdfrwt>
<pdfrwt beam="2">  1       21 0.49226647E-01 0.45352916E+03</pdfrwt>
<totfact> 0.66873930E+04</totfact>
</mgrwt>
</event>
<event>
 7    0  0.4737014E-002  0.4698955E+03  0.7546771E-02  0.1021950E+00
         21   -1    0    0  502  501  0.00000000000E+00  0.00000000000E+00  0.74667704139E+02  0.74667704139E+02  0.00000000000E+00 0.  1.
         21   -1    0    0  501  502 -0.00000000000E+00 -0.00000000000E+00 -0.73928139195E+03  0.73928139195E+03  0.00000000000E+00 0.  1.
      99926    2    1    2    0    0  0.00000000000E+00 -0.14210854715E-13 -0.66461368782E+03  0.81394909609E+03  0.46989549583E+03 0.  0.
      99925    2    3    3    0    0 -0.85845862576E+02  0.92408207277E+02 -0.42777132207E+03  0.51789065050E+03  0.26327482409E+03 0.  0.
         25    1    4    4    0    0 -0.40623300788E+02  0.27618998124E+02 -0.13853378199E+03  0.19300823422E+03  0.12509000000E+03 0.  0.
         25    1    4    4    0    0 -0.45222561787E+02  0.64789209154E+02 -0.28923754008E+03  0.32488241629E+03  0.12509000000E+03 0.  0.
         25    1    3    3    0    0  0.85845862576E+02 -0.92408207277E+02 -0.23684236574E+03  0.29605844559E+03  0.12509000000E+03 0.  0.
<mgrwt>
<rscale>  2 0.46989550E+03</rscale>
<asrwt>0</asrwt>
<pdfrwt beam="1">  1       21 0.10980545E-01 0.46989550E+03</pdfrwt>
<pdfrwt beam="2">  1       21 0.10871785E+00 0.46989550E+03</pdfrwt>
<totfact> 0.41972259E+04</totfact>
</mgrwt>
</event>
<event>
 7    0  0.4737014E-002  0.4536095E+03  0.7546771E-02  0.1026651E+00
         21   -1    0    0  502  501  0.00000000000E+00  0.00000000000E+00  0.73507975926E+03  0.73507975926E+03  0.00000000000E+00 0. -1.
         21   -1    0    0  501  502 -0.00000000000E+00 -0.00000000000E+00 -0.69979332456E+02  0.69979332456E+02  0.00000000000E+00 0. -1.
      99926    2    1    2    0    0 -0.35527136788E-14  0.00000000000E+00  0.66510042680E+03  0.80505909171E+03  0.45360948339E+03 0.  0.
      99925    2    3    3    0    0 -0.24228455986E+02  0.60854776863E+02  0.25816934750E+03  0.37432630523E+03  0.26301796299E+03 0.  0.
         25    1    4    4    0    0  0.28408382165E+02  0.26955761527E+02  0.12004011877E+03  0.17773797419E+03  0.12509000000E+03 0.  0.
         25    1    3    3    0    0  0.24228455986E+02 -0.60854776863E+02  0.40693107930E+03  0.43073278648E+03  0.12509000000E+03 0.  0.
         25    1    4    4    0    0 -0.52636838151E+02  0.33899015336E+02  0.13812922873E+03  0.19658833104E+03  0.12509000000E+03 0.  0.
<mgrwt>
<rscale>  2 0.45360948E+03</rscale>
<asrwt>0</asrwt>
<pdfrwt beam="1">  1       21 0.10809996E+00 0.45360948E+03</pdfrwt>
<pdfrwt beam="2">  1       21 0.10291079E-01 0.45360948E+03</pdfrwt>
<totfact> 0.48043189E+04</totfact>
</mgrwt>
</event>
<event>
 7    0  0.4737014E-002  0.4564752E+03  0.7546771E-02  0.1025808E+00
         21   -1    0    0  502  501  0.00000000000E+00  0.00000000000E+00  0.27799076041E+03  0.27799076041E+03  0.00000000000E+00 0.  1.
         21   -1    0    0  501  502 -0.00000000000E+00 -0.00000000000E+00 -0.18738897668E+03  0.18738897668E+03  0.00000000000E+00 0.  1.
      99926    2    1    2    0    0  0.00000000000E+00  0.00000000000E+00  0.90601783734E+02  0.46537973709E+03  0.45647520905E+03 0.  0.
      99925    2    3    3    0    0  0.48132400214E+02  0.47988383253E+02  0.15049025122E+03  0.31093314595E+03  0.26346250712E+03 0.  0.
         25    1    3    3    0    0 -0.48132400214E+02 -0.47988383253E+02 -0.59888467490E+02  0.15444659114E+03  0.12509000000E+03 0.  0.
         25    1    4    4    0    0 -0.83826468187E+01  0.31411411959E+02  0.44400865491E+02  0.13665976191E+03  0.12509000000E+03 0.  0.
         25    1    4    4    0    0  0.56515047033E+02  0.16576971294E+02  0.10608938573E+03  0.17427338404E+03  0.12509000000E+03 0.  0.
<mgrwt>
<rscale>  2 0.45647521E+03</rscale>
<asrwt>0</asrwt>
<pdfrwt beam="1">  1       21 0.40880994E-01 0.45647521E+03</pdfrwt>
<pdfrwt beam="2">  1       21 0.27557202E-01 0.45647521E+03</pdfrwt>
<totfact> 0.66992984E+04</totfact>
</mgrwt>
</event>
<event>
 7    0  0.4737014E-002  0.4553349E+03  0.7546771E-02  0.1026143E+00
         21   -1    0    0  502  501  0.00000000000E+00  0.00000000000E+00  0.15556597141E+03  0.15556597141E+03  0.00000000000E+00 0. -1.
         21   -1    0    0  501  502 -0.00000000000E+00 -0.00000000000E+00 -0.33318644365E+03  0.33318644365E+03  0.00000000000E+00 0. -1.
      99926    2    1    2    0    0  0.00000000000E+00  0.00000000000E+00 -0.17762047224E+03  0.48875241506E+03  0.45533492187E+03 0.  0.
      99925    2    3    3    0    0 -0.73452411218E+02 -0.14013158993E+02 -0.20329242990E+03  0.34077206891E+03  0.26307064746E+03 0.  0.
         25    1    4    4    0    0 -0.58330217770E+02 -0.17109255248E+01 -0.14873733353E+03  0.20291782587E+03  0.12509000000E+03 0.  0.
         25    1    4    4    0    0 -0.15122193448E+02 -0.12302233468E+02 -0.54555096366E+02  0.13785424303E+03  0.12509000000E+03 0.  0.
         25    1    3    3    0    0  0.73452411218E+02  0.14013158993E+02  0.25671957660E+02  0.14798034616E+03  0.12509000000E+03 0.  0.
<mgrwt>
<rscale>  2 0.45533492E+03</rscale>
<asrwt>0</asrwt>
<pdfrwt beam="1">  1       21 0.22877349E-01 0.45533492E+03</pdfrwt>
<pdfrwt beam="2">  1       21 0.48998006E-01 0.45533492E+03</pdfrwt>
<totfact> 0.65892924E+04</totfact>
</mgrwt>
</event>
<event>
 7    0  0.4737014E-002  0.4519481E+03  0.7546771E-02  0.1027143E+00
         21   -1    0    0  502  501  0.00000000000E+00  0.00000000000E+00  0.31387641893E+03  0.31387641893E+03  0.00000000000E+00 0. -1.
         21   -1    0    0  501  502 -0.00000000000E+00 -0.00000000000E+00 -0.16268906841E+03  0.16268906841E+03  0.00000000000E+00 0. -1.
      99926    2    1    2    0    0  0.14210854715E-13  0.00000000000E+00  0.15118735051E+03  0.47656548734E+03  0.45194805981E+03 0.  0.
      99925    2    3    3    0    0  0.97547280895E+02  0.19239482048E+02  0.14576801685E+03  0.31668269603E+03  0.26297145387E+03 0.  0.
         25    1    4    4    0    0  0.57312474550E+02  0.43187754938E+02  0.10000374111E+03  0.17549404050E+03  0.12509000000E+03 0.  0.
         25    1    3    3    0    0 -0.97547280895E+02 -0.19239482048E+02  0.54193336588E+01  0.15988279131E+03  0.12509000000E+03 0.  0.
         25    1    4    4    0    0  0.40234806345E+02 -0.23948272890E+02  0.45764275744E+02  0.14118865553E+03  0.12509000000E+03 0.  0.
<mgrwt>
<rscale>  2 0.45194806E+03</rscale>
<asrwt>0</asrwt>
<pdfrwt beam="1">  1       21 0.46158297E-01 0.45194806E+03</pdfrwt>
<pdfrwt beam="2">  1       21 0.23924863E-01 0.45194806E+03</pdfrwt>
<totfact> 0.68597618E+04</totfact>
</mgrwt>
</event>
<event>
 7    0  0.4737014E-002  0.4805354E+03  0.7546771E-02  0.1018988E+00
         21   -1    0    0  502  501  0.00000000000E+00  0.00000000000E+00  0.38317770205E+03  0.38317770205E+03  0.00000000000E+00 0. -1.
         21   -1    0    0  501  502 -0.00000000000E+00 -0.00000000000E+00 -0.15065744324E+03  0.15065744324E+03  0.00000000000E+00 0. -1.
      99926    2    1    2    0    0  0.00000000000E+00  0.00000000000E+00  0.23252025881E+03  0.53383514529E+03  0.48053542178E+03 0.  0.
      99925    2    3    3    0    0  0.83701808064E+02  0.41806330317E+02  0.25242405172E+03  0.37636314460E+03  0.26301625957E+03 0.  0.
         25    1    4    4    0    0  0.10459242162E+02 -0.49818076023E+01  0.13167070698E+03  0.18198598114E+03  0.12509000000E+03 0.  0.
         25    1    4    4    0    0  0.73242565902E+02  0.46788137919E+02  0.12075334474E+03  0.19437716346E+03  0.12509000000E+03 0.  0.
         25    1    3    3    0    0 -0.83701808064E+02 -0.41806330317E+02 -0.19903792908E+02  0.15747200069E+03  0.12509000000E+03 0.  0.
<mgrwt>
<rscale>  2 0.48053542E+03</rscale>
<asrwt>0</asrwt>
<pdfrwt beam="1">  1       21 0.56349662E-01 0.48053542E+03</pdfrwt>
<pdfrwt beam="2">  1       21 0.22155506E-01 0.48053542E+03</pdfrwt>
<totfact> 0.51665915E+04</totfact>
</mgrwt>
</event>
<event>
 7    0  0.4737014E-002  0.4512668E+03  0.7546771E-02  0.1027345E+00
         21   -1    0    0  502  501  0.00000000000E+00  0.00000000000E+00  0.13895292652E+03  0.13895292652E+03  0.00000000000E+00 0.  1.
         21   -1    0    0  501  502 -0.00000000000E+00 -0.00000000000E+00 -0.36638614346E+03  0.36638614346E+03  0.00000000000E+00 0.  1.
      99926    2    1    2    0    0  0.00000000000E+00  0.00000000000E+00 -0.22743321694E+03  0.50533906997E+03  0.45126678082E+03 0.  0.
      99925    2    3    3    0    0  0.58101576606E+02  0.24845580631E+02 -0.43312182761E+02  0.27394944314E+03  0.26301949764E+03 0.  0.
         25    1    3    3    0    0 -0.58101576606E+02 -0.24845580631E+02 -0.18412103418E+03  0.23138962684E+03  0.12509000000E+03 0.  0.
         25    1    4    4    0    0 -0.10855245406E+02  0.28763347625E+01 -0.27512573196E+02  0.12857122321E+03  0.12509000000E+03 0.  0.
         25    1    4    4    0    0  0.68956822012E+02  0.21969245868E+02 -0.15799609565E+02  0.14537821992E+03  0.12509000000E+03 0.  0.
<mgrwt>
<rscale>  2 0.45126678E+03</rscale>
<asrwt>0</asrwt>
<pdfrwt beam="1">  1       21 0.20434254E-01 0.45126678E+03</pdfrwt>
<pdfrwt beam="2">  1       21 0.53880314E-01 0.45126678E+03</pdfrwt>
<totfact> 0.66856271E+04</totfact>
</mgrwt>
</event>
<event>
 7    0  0.4737014E-002  0.4534591E+03  0.7546771E-02  0.1026696E+00
         21   -1    0    0  502  501  0.00000000000E+00  0.00000000000E+00  0.87368394961E+02  0.87368394961E+02  0.00000000000E+00 0.  1.
         21   -1    0    0  501  502 -0.00000000000E+00 -0.00000000000E+00 -0.58838535188E+03  0.58838535188E+03  0.00000000000E+00 0.  1.
      99926    2    1    2    0    0 -0.88817841970E-15  0.35527136788E-14 -0.50101695692E+03  0.67575374684E+03  0.45345907781E+03 0.  0.
      99925    2    3    3    0    0 -0.29632700499E+01  0.16780226732E+02 -0.15125634020E+03  0.30390652810E+03  0.26304056796E+03 0.  0.
         25    1    4    4    0    0  0.40522992246E+01 -0.24154773733E+02 -0.10180480669E+03  0.16313062554E+03  0.12509000000E+03 0.  0.
         25    1    4    4    0    0 -0.70155692745E+01  0.40935000465E+02 -0.49451533509E+02  0.14077590256E+03  0.12509000000E+03 0.  0.
         25    1    3    3    0    0  0.29632700499E+01 -0.16780226732E+02 -0.34976061672E+03  0.37184721874E+03  0.12509000000E+03 0.  0.
<mgrwt>
<rscale>  2 0.45345908E+03</rscale>
<asrwt>0</asrwt>
<pdfrwt beam="1">  1       21 0.12848294E-01 0.45345908E+03</pdfrwt>
<pdfrwt beam="2">  1       21 0.86527256E-01 0.45345908E+03</pdfrwt>
<totfact> 0.54903109E+04</totfact>
</mgrwt>
</event>
<event>
 7    0  0.4737014E-002  0.4558636E+03  0.7546771E-02  0.1025988E+00
         21   -1    0    0  502  501  0.00000000000E+00  0.00000000000E+00  0.29438222977E+02  0.29438222977E+02  0.00000000000E+00 0.  1.
         21   -1    0    0  501  502 -0.00000000000E+00 -0.00000000000E+00 -0.17648112146E+04  0.17648112146E+04  0.00000000000E+00 0.  1.
      99926    2    1    2    0    0  0.00000000000E+00 -0.35527136788E-14 -0.17353729916E+04  0.17942494376E+04  0.45586360262E+03 0.  0.
      99925    2    3    3    0    0  0.74388260428E+02  0.23094961230E+02 -0.14186957847E+04  0.14449659538E+04  0.26298647822E+03 0.  0.
         25    1    3    3    0    0 -0.74388260428E+02 -0.23094961230E+02 -0.31667720695E+03  0.34928348376E+03  0.12509000000E+03 0.  0.
         25    1    4    4    0    0  0.78828478423E+02  0.17187929240E+02 -0.79140657231E+03  0.80528331953E+03  0.12509000000E+03 0.  0.
         25    1    4    4    0    0 -0.44402179950E+01  0.59070319898E+01 -0.62728921235E+03  0.63968263427E+03  0.12509000000E+03 0.  0.
<mgrwt>
<rscale>  2 0.45586360E+03</rscale>
<asrwt>0</asrwt>
<pdfrwt beam="1">  1       21 0.43291503E-02 0.45586360E+03</pdfrwt>
<pdfrwt beam="2">  1       21 0.25953107E+00 0.45586360E+03</pdfrwt>
<totfact> 0.17254227E+04</totfact>
</mgrwt>
</event>
<event>
 7    0  0.4737014E-002  0.4814419E+03  0.7546771E-02  0.1018740E+00
         21   -1    0    0  502  501  0.00000000000E+00  0.00000000000E+00  0.16445421833E+03  0.16445421833E+03  0.00000000000E+00 0.  1.
         21   -1    0    0  501  502 -0.00000000000E+00 -0.00000000000E+00 -0.35235687365E+03  0.35235687365E+03  0.00000000000E+00 0.  1.
      99926    2    1    2    0    0 -0.17763568394E-14  0.00000000000E+00 -0.18790265532E+03  0.51681109198E+03  0.48144189361E+03 0.  0.
      99925    2    3    3    0    0  0.10173337912E+02 -0.13552050987E+03 -0.12905440649E+03  0.32295565644E+03  0.26301332817E+03 0.  0.
         25    1    4    4    0    0  0.11016561073E+02 -0.10284140170E+03 -0.43908904698E+02  0.16814641992E+03  0.12509000000E+03 0.  0.
         25    1    3    3    0    0 -0.10173337912E+02  0.13552050987E+03 -0.58848248830E+02  0.19385543554E+03  0.12509000000E+03 0.  0.
         25    1    4    4    0    0 -0.84322316099E+00 -0.32679108168E+02 -0.85145501792E+02  0.15480923652E+03  0.12509000000E+03 0.  0.
<mgrwt>
<rscale>  2 0.48144189E+03</rscale>
<asrwt>0</asrwt>
<pdfrwt beam="1">  1       21 0.24184444E-01 0.48144189E+03</pdfrwt>
<pdfrwt beam="2">  1       21 0.51817187E-01 0.48144189E+03</pdfrwt>
<totfact> 0.52247494E+04</totfact>
</mgrwt>
</event>
<event>
 7    0  0.4737014E-002  0.4490104E+03  0.7546771E-02  0.1028018E+00
         21   -1    0    0  502  501  0.00000000000E+00  0.00000000000E+00  0.12498093562E+04  0.12498093562E+04  0.00000000000E+00 0. -1.
         21   -1    0    0  501  502 -0.00000000000E+00 -0.00000000000E+00 -0.40328221703E+02  0.40328221703E+02  0.00000000000E+00 0. -1.
      99926    2    1    2    0    0 -0.14210854715E-13  0.00000000000E+00  0.12094811345E+04  0.12901375779E+04  0.44901041771E+03 0.  0.
      99925    2    3    3    0    0 -0.90543995966E+02 -0.57614135513E+02  0.78962493213E+03  0.83908952881E+03  0.26276624614E+03 0.  0.
         25    1    3    3    0    0  0.90543995966E+02  0.57614135513E+02  0.41985620234E+03  0.45104804906E+03  0.12509000000E+03 0.  0.
         25    1    4    4    0    0 -0.83769699317E+02 -0.33890871775E+02  0.38208763636E+03  0.41207332318E+03  0.12509000000E+03 0.  0.
         25    1    4    4    0    0 -0.67742966486E+01 -0.23723263738E+02  0.40753729576E+03  0.42701620564E+03  0.12509000000E+03 0.  0.
<mgrwt>
<rscale>  2 0.44901042E+03</rscale>
<asrwt>0</asrwt>
<pdfrwt beam="1">  1       21 0.18379547E+00 0.44901042E+03</pdfrwt>
<pdfrwt beam="2">  1       21 0.59306217E-02 0.44901042E+03</pdfrwt>
<totfact> 0.30813121E+04</totfact>
</mgrwt>
</event>
<event>
 6    0  0.4737014E-002  0.4604826E+03  0.7546771E-02  0.1024641E+00
         21   -1    0    0  502  501  0.00000000000E+00  0.00000000000E+00  0.61247441967E+03  0.61247441967E+03  0.00000000000E+00 0.  1.
         21   -1    0    0  501  502 -0.00000000000E+00 -0.00000000000E+00 -0.86552271435E+02  0.86552271435E+02  0.00000000000E+00 0.  1.
      99926    2    1    2    0    0  0.00000000000E+00 -0.35527136788E-14  0.52592214823E+03  0.69902669110E+03  0.46048258259E+03 0.  0.
         25    1    3    3    0    0 -0.54140063706E+02 -0.66366213939E+01  0.29000239342E+03  0.32050598673E+03  0.12509000000E+03 0.  0.
         25    1    3    3    0    0  0.96415781593E+02 -0.25396081527E+02  0.12113036754E+03  0.20065153360E+03  0.12509000000E+03 0.  0.
         25    1    3    3    0    0 -0.42275717887E+02  0.32032702921E+02  0.11478938727E+03  0.17786917077E+03  0.12509000000E+03 0.  0.
<mgrwt>
<rscale>  2 0.46048258E+03</rscale>
<asrwt>0</asrwt>
<pdfrwt beam="1">  1       21 0.90069766E-01 0.46048258E+03</pdfrwt>
<pdfrwt beam="2">  1       21 0.12728275E-01 0.46048258E+03</pdfrwt>
<totfact> 0.50731154E+04</totfact>
</mgrwt>
</event>
<event>
 7    0  0.4737014E-002  0.4518960E+03  0.7546771E-02  0.1027158E+00
         21   -1    0    0  502  501  0.00000000000E+00  0.00000000000E+00  0.10244024140E+04  0.10244024140E+04  0.00000000000E+00 0.  1.
         21   -1    0    0  501  502 -0.00000000000E+00 -0.00000000000E+00 -0.49836362544E+02  0.49836362544E+02  0.00000000000E+00 0.  1.
      99926    2    1    2    0    0  0.00000000000E+00  0.11102230246E-14  0.97456605144E+03  0.10742387765E+04  0.45189596190E+03 0.  0.
      99925    2    3    3    0    0  0.67359870980E+02 -0.13881647667E+01  0.40783105639E+03  0.48996543131E+03  0.26306021003E+03 0.  0.
         25    1    4    4    0    0  0.64897490871E+02 -0.15226517299E+02  0.25711932362E+03  0.29360072519E+03  0.12509000000E+03 0.  0.
         25    1    4    4    0    0  0.24623801084E+01  0.13838352533E+02  0.15071173277E+03  0.19636470612E+03  0.12509000000E+03 0.  0.
         25    1    3    3    0    0 -0.67359870980E+02  0.13881647667E+01  0.56673499504E+03  0.58427334521E+03  0.12509000000E+03 0.  0.
<mgrwt>
<rscale>  2 0.45189596E+03</rscale>
<asrwt>0</asrwt>
<pdfrwt beam="1">  1       21 0.15064740E+00 0.45189596E+03</pdfrwt>
<pdfrwt beam="2">  1       21 0.73288775E-02 0.45189596E+03</pdfrwt>
<totfact> 0.37295580E+04</totfact>
</mgrwt>
</event>
<event>
 7    0  0.4737014E-002  0.4413286E+03  0.7546771E-02  0.1030340E+00
         21   -1    0    0  502  501  0.00000000000E+00  0.00000000000E+00  0.75529670661E+02  0.75529670661E+02  0.00000000000E+00 0. -1.
         21   -1    0    0  501  502 -0.00000000000E+00 -0.00000000000E+00 -0.64468338825E+03  0.64468338825E+03  0.00000000000E+00 0. -1.
      99926    2    1    2    0    0  0.00000000000E+00  0.00000000000E+00 -0.56915371759E+03  0.72021305891E+03  0.44132855786E+03 0.  0.
      99925    2    3    3    0    0  0.88580712215E+02  0.27490913209E+02 -0.30271299457E+03  0.41160252787E+03  0.26301937378E+03 0.  0.
         25    1    4    4    0    0  0.81395165237E+01  0.28147426934E+02 -0.11784693762E+03  0.17433857341E+03  0.12509000000E+03 0.  0.
         25    1    3    3    0    0 -0.88580712215E+02 -0.27490913209E+02 -0.26644072302E+03  0.30861053104E+03  0.12509000000E+03 0.  0.
         25    1    4    4    0    0  0.80441195691E+02 -0.65651372425E+00 -0.18486605695E+03  0.23726395446E+03  0.12509000000E+03 0.  0.
<mgrwt>
<rscale>  2 0.44132856E+03</rscale>
<asrwt>0</asrwt>
<pdfrwt beam="1">  1       21 0.11107304E-01 0.44132856E+03</pdfrwt>
<pdfrwt beam="2">  1       21 0.94806381E-01 0.44132856E+03</pdfrwt>
<totfact> 0.57786979E+04</totfact>
</mgrwt>
</event>
<event>
 7    0  0.4737014E-002  0.4476592E+03  0.7546771E-02  0.1028422E+00
         21   -1    0    0  502  501  0.00000000000E+00  0.00000000000E+00  0.12755252758E+04  0.12755252758E+04  0.00000000000E+00 0. -1.
         21   -1    0    0  501  502 -0.00000000000E+00 -0.00000000000E+00 -0.39277688765E+02  0.39277688765E+02  0.00000000000E+00 0. -1.
      99926    2    1    2    0    0 -0.44408920985E-14  0.14210854715E-13  0.12362475871E+04  0.13148029646E+04  0.44765917748E+03 0.  0.
      99925    2    3    3    0    0  0.70043901096E+01  0.95894102234E+02  0.91542601906E+03  0.95728551478E+03  0.26295630837E+03 0.  0.
         25    1    3    3    0    0 -0.70043901096E+01 -0.95894102234E+02  0.32082156801E+03  0.35751744981E+03  0.12509000000E+03 0.  0.
         25    1    4    4    0    0 -0.28952123310E+02  0.23911313707E+02  0.46054162092E+03  0.47870248491E+03  0.12509000000E+03 0.  0.
         25    1    4    4    0    0  0.35956513419E+02  0.71982788528E+02  0.45488439814E+03  0.47858302986E+03  0.12509000000E+03 0.  0.
<mgrwt>
<rscale>  2 0.44765918E+03</rscale>
<asrwt>0</asrwt>
<pdfrwt beam="1">  1       21 0.18757722E+00 0.44765918E+03</pdfrwt>
<pdfrwt beam="2">  1       21 0.57761315E-02 0.44765918E+03</pdfrwt>
<totfact> 0.30385680E+04</totfact>
</mgrwt>
</event>
<event>
 7    0  0.4737014E-002  0.4577394E+03  0.7546771E-02  0.1025439E+00
         21   -1    0    0  502  501  0.00000000000E+00  0.00000000000E+00  0.47831642471E+03  0.47831642471E+03  0.00000000000E+00 0.  1.
         21   -1    0    0  501  502 -0.00000000000E+00 -0.00000000000E+00 -0.10951188902E+03  0.10951188902E+03  0.00000000000E+00 0.  1.
      99926    2    1    2    0    0  0.00000000000E+00  0.71054273576E-14  0.36880453568E+03  0.58782831373E+03  0.45773938096E+03 0.  0.
      99925    2    3    3    0    0  0.54592931873E+02 -0.43781525161E+02  0.34986895610E+03  0.44324866637E+03  0.26299027290E+03 0.  0.
         25    1    3    3    0    0 -0.54592931873E+02  0.43781525161E+02  0.18935579581E+02  0.14457964736E+03  0.12509000000E+03 0.  0.
         25    1    4    4    0    0  0.18621626158E+02 -0.54089140373E+02  0.21732096499E+03  0.25719313753E+03  0.12509000000E+03 0.  0.
         25    1    4    4    0    0  0.35971305715E+02  0.10307615211E+02  0.13254799111E+03  0.18605552884E+03  0.12509000000E+03 0.  0.
<mgrwt>
<rscale>  2 0.45773938E+03</rscale>
<asrwt>0</asrwt>
<pdfrwt beam="1">  1       21 0.70340650E-01 0.45773938E+03</pdfrwt>
<pdfrwt beam="2">  1       21 0.16104690E-01 0.45773938E+03</pdfrwt>
<totfact> 0.58164135E+04</totfact>
</mgrwt>
</event>
<event>
 7    0  0.4737014E-002  0.4523408E+03  0.7546771E-02  0.1027026E+00
         21   -1    0    0  502  501  0.00000000000E+00  0.00000000000E+00  0.22473722647E+03  0.22473722647E+03  0.00000000000E+00 0.  1.
         21   -1    0    0  501  502 -0.00000000000E+00 -0.00000000000E+00 -0.22761269804E+03  0.22761269804E+03  0.00000000000E+00 0.  1.
      99926    2    1    2    0    0  0.00000000000E+00  0.00000000000E+00 -0.28754715691E+01  0.45234992452E+03  0.45234078511E+03 0.  0.
      99925    2    3    3    0    0 -0.36714236810E+02 -0.10036766115E+03 -0.30446353702E+02  0.28552887000E+03  0.26301739973E+03 0.  0.
         25    1    4    4    0    0 -0.18823027845E+01 -0.35056701173E+02  0.20457762788E+02  0.13152392755E+03  0.12509000000E+03 0.  0.
         25    1    3    3    0    0  0.36714236810E+02  0.10036766115E+03  0.27570882133E+02  0.16682105452E+03  0.12509000000E+03 0.  0.
         25    1    4    4    0    0 -0.34831934026E+02 -0.65310959977E+02 -0.50904116490E+02  0.15400494244E+03  0.12509000000E+03 0.  0.
<mgrwt>
<rscale>  2 0.45234079E+03</rscale>
<asrwt>0</asrwt>
<pdfrwt beam="1">  1       21 0.33049592E-01 0.45234079E+03</pdfrwt>
<pdfrwt beam="2">  1       21 0.33472456E-01 0.45234079E+03</pdfrwt>
<totfact> 0.70218464E+04</totfact>
</mgrwt>
</event>
<event>
 7    0  0.4737014E-002  0.4316909E+03  0.7546771E-02  0.1033327E+00
         21   -1    0    0  502  501  0.00000000000E+00  0.00000000000E+00  0.39481961489E+02  0.39481961489E+02  0.00000000000E+00 0.  1.
         21   -1    0    0  501  502 -0.00000000000E+00 -0.00000000000E+00 -0.11800139126E+04  0.11800139126E+04  0.00000000000E+00 0.  1.
      99926    2    1    2    0    0  0.00000000000E+00  0.00000000000E+00 -0.11405319511E+04  0.12194958741E+04  0.43169092579E+03 0.  0.
      99925    2    3    3    0    0  0.36248684493E+02  0.52410748520E+02 -0.91187253307E+03  0.95117984540E+03  0.26300328524E+03 0.  0.
         25    1    3    3    0    0 -0.36248684493E+02 -0.52410748520E+02 -0.22865941801E+03  0.26831602865E+03  0.12509000000E+03 0.  0.
         25    1    4    4    0    0  0.29058526219E+01  0.37127668160E+02 -0.32974262662E+03  0.35463307183E+03  0.12509000000E+03 0.  0.
         25    1    4    4    0    0  0.33342831872E+02  0.15283080360E+02 -0.58212990644E+03  0.59654677357E+03  0.12509000000E+03 0.  0.
<mgrwt>
<rscale>  2 0.43169093E+03</rscale>
<asrwt>0</asrwt>
<pdfrwt beam="1">  1       21 0.58061697E-02 0.43169093E+03</pdfrwt>
<pdfrwt beam="2">  1       21 0.17353149E+00 0.43169093E+03</pdfrwt>
<totfact> 0.37983476E+04</totfact>
</mgrwt>
</event>
<event>
 7    0  0.4737014E-002  0.4945770E+03  0.7546771E-02  0.1015204E+00
         21   -1    0    0  502  501  0.00000000000E+00  0.00000000000E+00  0.18512730871E+03  0.18512730871E+03  0.00000000000E+00 0. -1.
         21   -1    0    0  501  502 -0.00000000000E+00 -0.00000000000E+00 -0.33032183345E+03  0.33032183345E+03  0.00000000000E+00 0. -1.
      99926    2    1    2    0    0  0.00000000000E+00  0.00000000000E+00 -0.14519452474E+03  0.51544914216E+03  0.49457695877E+03 0.  0.
      99925    2    3    3    0    0 -0.41482487069E+02  0.65144981572E+02  0.42278159843E+02  0.27720938704E+03  0.26285535206E+03 0.  0.
         25    1    4    4    0    0  0.12688268780E+02  0.52825435273E+02  0.31121508440E+02  0.13988414908E+03  0.12509000000E+03 0.  0.
         25    1    4    4    0    0 -0.54170755849E+02  0.12319546299E+02  0.11156651402E+02  0.13732523796E+03  0.12509000000E+03 0.  0.
         25    1    3    3    0    0  0.41482487069E+02 -0.65144981572E+02 -0.18747268458E+03  0.23823975512E+03  0.12509000000E+03 0.  0.
<mgrwt>
<rscale>  2 0.49457696E+03</rscale>
<asrwt>0</asrwt>
<pdfrwt beam="1">  1       21 0.27224605E-01 0.49457696E+03</pdfrwt>
<pdfrwt beam="2">  1       21 0.48576739E-01 0.49457696E+03</pdfrwt>
<totfact> 0.47446864E+04</totfact>
</mgrwt>
</event>
<event>
 7    0  0.4737014E-002  0.4786046E+03  0.7546771E-02  0.1019519E+00
         21   -1    0    0  502  501  0.00000000000E+00  0.00000000000E+00  0.92235813672E+03  0.92235813672E+03  0.00000000000E+00 0.  1.
         21   -1    0    0  501  502 -0.00000000000E+00 -0.00000000000E+00 -0.62086065357E+02  0.62086065357E+02  0.00000000000E+00 0.  1.
      99926    2    1    2    0    0  0.00000000000E+00  0.00000000000E+00  0.86027207137E+03  0.98444420208E+03  0.47860458652E+03 0.  0.
      99925    2    3    3    0    0 -0.97668567906E+02  0.56754191802E+02  0.38233524505E+03  0.47765893642E+03  0.26309244095E+03 0.  0.
         25    1    4    4    0    0 -0.76690642596E+02  0.27034730502E+02  0.15169231450E+03  0.21276841329E+03  0.12509000000E+03 0.  0.
         25    1    3    3    0    0  0.97668567906E+02 -0.56754191802E+02  0.47793682632E+03  0.50678526567E+03  0.12509000000E+03 0.  0.
         25    1    4    4    0    0 -0.20977925310E+02  0.29719461300E+02  0.23064293055E+03  0.26489052313E+03  0.12509000000E+03 0.  0.
<mgrwt>
<rscale>  2 0.47860459E+03</rscale>
<asrwt>0</asrwt>
<pdfrwt beam="1">  1       21 0.13564089E+00 0.47860459E+03</pdfrwt>
<pdfrwt beam="2">  1       21 0.91303043E-02 0.47860459E+03</pdfrwt>
<totfact> 0.33210536E+04</totfact>
</mgrwt>
</event>
<event>
 7    0  0.4737014E-002  0.4368170E+03  0.7546771E-02  0.1031728E+00
         21   -1    0    0  502  501  0.00000000000E+00  0.00000000000E+00  0.43760563312E+03  0.43760563312E+03  0.00000000000E+00 0. -1.
         21   -1    0    0  501  502 -0.00000000000E+00 -0.00000000000E+00 -0.10900746231E+03  0.10900746231E+03  0.00000000000E+00 0. -1.
      99926    2    1    2    0    0 -0.71054273576E-14  0.00000000000E+00  0.32859817081E+03  0.54661309543E+03  0.43681703061E+03 0.  0.
      99925    2    3    3    0    0 -0.42946995630E+02 -0.82859915452E+02  0.18778321357E+03  0.33640707671E+03  0.26305318082E+03 0.  0.
         25    1    4    4    0    0 -0.57604278979E+01 -0.48583070997E+02  0.13803883801E+03  0.19260250833E+03  0.12509000000E+03 0.  0.
         25    1    3    3    0    0  0.42946995630E+02  0.82859915452E+02  0.14081495725E+03  0.21020601872E+03  0.12509000000E+03 0.  0.
         25    1    4    4    0    0 -0.37186567732E+02 -0.34276844455E+02  0.49744375561E+02  0.14380456837E+03  0.12509000000E+03 0.  0.
<mgrwt>
<rscale>  2 0.43681703E+03</rscale>
<asrwt>0</asrwt>
<pdfrwt beam="1">  1       21 0.64353769E-01 0.43681703E+03</pdfrwt>
<pdfrwt beam="2">  1       21 0.16030509E-01 0.43681703E+03</pdfrwt>
<totfact> 0.71888692E+04</totfact>
</mgrwt>
</event>
<event>
 7    0  0.4737014E-002  0.4554416E+03  0.7546771E-02  0.1026112E+00
         21   -1    0    0  502  501  0.00000000000E+00  0.00000000000E+00  0.65372754232E+02  0.65372754232E+02  0.00000000000E+00 0. -1.
         21   -1    0    0  501  502 -0.00000000000E+00 -0.00000000000E+00 -0.79324741731E+03  0.79324741731E+03  0.00000000000E+00 0. -1.
      99926    2    1    2    0    0  0.00000000000E+00 -0.35527136788E-14 -0.72787466308E+03  0.85862017154E+03  0.45544162505E+03 0.  0.
      99925    2    3    3    0    0 -0.78276858776E+02 -0.30448143434E+02 -0.60201969046E+03  0.66230069138E+03  0.26298315924E+03 0.  0.
         25    1    4    4    0    0 -0.81299891984E+00 -0.27830366841E+02 -0.30487751483E+03  0.33071588627E+03  0.12509000000E+03 0.  0.
         25    1    3    3    0    0  0.78276858776E+02  0.30448143434E+02 -0.12585497262E+03  0.19631948016E+03  0.12509000000E+03 0.  0.
         25    1    4    4    0    0 -0.77463859856E+02 -0.26177765938E+01 -0.29714217563E+03  0.33158480510E+03  0.12509000000E+03 0.  0.
<mgrwt>
<rscale>  2 0.45544163E+03</rscale>
<asrwt>0</asrwt>
<pdfrwt beam="1">  1       21 0.96136412E-02 0.45544163E+03</pdfrwt>
<pdfrwt beam="2">  1       21 0.11665402E+00 0.45544163E+03</pdfrwt>
<totfact> 0.44900440E+04</totfact>
</mgrwt>
</event>
<event>
 7    0  0.4737014E-002  0.4547497E+03  0.7546771E-02  0.1026315E+00
         21   -1    0    0  502  501  0.00000000000E+00  0.00000000000E+00  0.14036246144E+03  0.14036246144E+03  0.00000000000E+00 0. -1.
         21   -1    0    0  501  502 -0.00000000000E+00 -0.00000000000E+00 -0.36832720776E+03  0.36832720776E+03  0.00000000000E+00 0. -1.
      99926    2    1    2    0    0  0.00000000000E+00  0.17763568394E-14 -0.22796474632E+03  0.50868966919E+03  0.45474966078E+03 0.  0.
      99925    2    3    3    0    0 -0.15098878652E+02 -0.88941758789E+01 -0.26819671157E+03  0.37612571622E+03  0.26312353715E+03 0.  0.
         25    1    4    4    0    0 -0.16666131120E+02 -0.21755469082E+02 -0.18624239109E+03  0.22601946088E+03  0.12509000000E+03 0.  0.
         25    1    3    3    0    0  0.15098878652E+02  0.88941758789E+01  0.40231965252E+02  0.13256395298E+03  0.12509000000E+03 0.  0.
         25    1    4    4    0    0  0.15672524683E+01  0.12861293203E+02 -0.81954320486E+02  0.15010625533E+03  0.12509000000E+03 0.  0.
<mgrwt>
<rscale>  2 0.45474966E+03</rscale>
<asrwt>0</asrwt>
<pdfrwt beam="1">  1       21 0.20641539E-01 0.45474966E+03</pdfrwt>
<pdfrwt beam="2">  1       21 0.54165765E-01 0.45474966E+03</pdfrwt>
<totfact> 0.64793033E+04</totfact>
</mgrwt>
</event>
<event>
 7    0  0.4737014E-002  0.4514532E+03  0.7546771E-02  0.1027290E+00
         21   -1    0    0  502  501  0.00000000000E+00  0.00000000000E+00  0.97868896390E+02  0.97868896390E+02  0.00000000000E+00 0. -1.
         21   -1    0    0  501  502 -0.00000000000E+00 -0.00000000000E+00 -0.52062002629E+03  0.52062002629E+03  0.00000000000E+00 0. -1.
      99926    2    1    2    0    0 -0.35527136788E-14  0.00000000000E+00 -0.42275112990E+03  0.61848892268E+03  0.45145324193E+03 0.  0.
      99925    2    3    3    0    0 -0.10157039942E+02  0.70992883156E+02 -0.38089532700E+03  0.46834708555E+03  0.26291555202E+03 0.  0.
         25    1    3    3    0    0  0.10157039942E+02 -0.70992883156E+02 -0.41855802898E+02  0.15014183713E+03  0.12509000000E+03 0.  0.
         25    1    4    4    0    0  0.31958607879E+02  0.41977046334E+02 -0.21636766045E+03  0.25543276537E+03  0.12509000000E+03 0.  0.
         25    1    4    4    0    0 -0.42115647820E+02  0.29015836821E+02 -0.16452766655E+03  0.21291432018E+03  0.12509000000E+03 0.  0.
<mgrwt>
<rscale>  2 0.45145324E+03</rscale>
<asrwt>0</asrwt>
<pdfrwt beam="1">  1       21 0.14392485E-01 0.45145324E+03</pdfrwt>
<pdfrwt beam="2">  1       21 0.76561769E-01 0.45145324E+03</pdfrwt>
<totfact> 0.59194998E+04</totfact>
</mgrwt>
</event>
<event>
 7    0  0.4737014E-002  0.4580357E+03  0.7546771E-02  0.1025352E+00
         21   -1    0    0  502  501  0.00000000000E+00  0.00000000000E+00  0.13284592549E+04  0.13284592549E+04  0.00000000000E+00 0.  1.
         21   -1    0    0  501  502 -0.00000000000E+00 -0.00000000000E+00 -0.39481208600E+02  0.39481208600E+02  0.00000000000E+00 0.  1.
      99926    2    1    2    0    0  0.00000000000E+00  0.00000000000E+00  0.12889780463E+04  0.13679404635E+04  0.45803570586E+03 0.  0.
      99925    2    3    3    0    0 -0.63592498188E+01 -0.11575134440E+03  0.80421219532E+03  0.85404917912E+03  0.26306640125E+03 0.  0.
         25    1    4    4    0    0  0.32562977567E+01 -0.33548259930E+02  0.47368418325E+03  0.49108074976E+03  0.12509000000E+03 0.  0.
         25    1    3    3    0    0  0.63592498188E+01  0.11575134440E+03  0.48476585103E+03  0.51389128443E+03  0.12509000000E+03 0.  0.
         25    1    4    4    0    0 -0.96155475755E+01 -0.82203084470E+02  0.33052801207E+03  0.36296842936E+03  0.12509000000E+03 0.  0.
<mgrwt>
<rscale>  2 0.45803571E+03</rscale>
<asrwt>0</asrwt>
<pdfrwt beam="1">  1       21 0.19536163E+00 0.45803571E+03</pdfrwt>
<pdfrwt beam="2">  1       21 0.58060610E-02 0.45803571E+03</pdfrwt>
<totfact> 0.26566628E+04</totfact>
</mgrwt>
</event>
<event>
 7    0  0.4737014E-002  0.4554222E+03  0.7546771E-02  0.1026117E+00
         21   -1    0    0  502  501  0.00000000000E+00  0.00000000000E+00  0.60472602361E+02  0.60472602361E+02  0.00000000000E+00 0.  1.
         21   -1    0    0  501  502 -0.00000000000E+00 -0.00000000000E+00 -0.85745183408E+03  0.85745183408E+03  0.00000000000E+00 0.  1.
      99926    2    1    2    0    0  0.00000000000E+00 -0.35527136788E-14 -0.79697923172E+03  0.91792443644E+03  0.45542219448E+03 0.  0.
      99925    2    3    3    0    0 -0.69059031015E+02  0.25469110028E+02 -0.67559113802E+03  0.72871449293E+03  0.26302775730E+03 0.  0.
         25    1    3    3    0    0  0.69059031015E+02 -0.25469110028E+02 -0.12138809370E+03  0.18920994351E+03  0.12509000000E+03 0.  0.
         25    1    4    4    0    0 -0.60983524390E+02  0.37744118519E+02 -0.41376558635E+03  0.43817014650E+03  0.12509000000E+03 0.  0.
         25    1    4    4    0    0 -0.80755066247E+01 -0.12275008491E+02 -0.26182555167E+03  0.29054434644E+03  0.12509000000E+03 0.  0.
<mgrwt>
<rscale>  2 0.45542219E+03</rscale>
<asrwt>0</asrwt>
<pdfrwt beam="1">  1       21 0.88930300E-02 0.45542219E+03</pdfrwt>
<pdfrwt beam="2">  1       21 0.12609585E+00 0.45542219E+03</pdfrwt>
<totfact> 0.42327801E+04</totfact>
</mgrwt>
</event>
<event>
 7    0  0.4737014E-002  0.4547090E+03  0.7546771E-02  0.1026327E+00
         21   -1    0    0  502  501  0.00000000000E+00  0.00000000000E+00  0.46031402281E+03  0.46031402281E+03  0.00000000000E+00 0.  1.
         21   -1    0    0  501  502 -0.00000000000E+00 -0.00000000000E+00 -0.11229306047E+03  0.11229306047E+03  0.00000000000E+00 0.  1.
      99926    2    1    2    0    0  0.00000000000E+00  0.00000000000E+00  0.34802096234E+03  0.57260708329E+03  0.45470900761E+03 0.  0.
      99925    2    3    3    0    0 -0.43530814872E+02 -0.54963212474E+02  0.10771263364E+03  0.29276518593E+03  0.26304668042E+03 0.  0.
         25    1    4    4    0    0 -0.62063886486E+01 -0.59546581325E+02  0.34018485880E+02  0.14279033612E+03  0.12509000000E+03 0.  0.
         25    1    4    4    0    0 -0.37324426224E+02  0.45833688515E+01  0.73694147757E+02  0.14997484981E+03  0.12509000000E+03 0.  0.
         25    1    3    3    0    0  0.43530814872E+02  0.54963212474E+02  0.24030832871E+03  0.27984189735E+03  0.12509000000E+03 0.  0.
<mgrwt>
<rscale>  2 0.45470901E+03</rscale>
<asrwt>0</asrwt>
<pdfrwt beam="1">  1       21 0.67693238E-01 0.45470901E+03</pdfrwt>
<pdfrwt beam="2">  1       21 0.16513686E-01 0.45470901E+03</pdfrwt>
<totfact> 0.60536042E+04</totfact>
</mgrwt>
</event>
<event>
 7    0  0.4737014E-002  0.4523976E+03  0.7546771E-02  0.1027009E+00
         21   -1    0    0  502  501  0.00000000000E+00  0.00000000000E+00  0.91912623450E+02  0.91912623450E+02  0.00000000000E+00 0.  1.
         21   -1    0    0  501  502 -0.00000000000E+00 -0.00000000000E+00 -0.55667978940E+03  0.55667978940E+03  0.00000000000E+00 0.  1.
      99926    2    1    2    0    0  0.00000000000E+00 -0.14210854715E-13 -0.46476716595E+03  0.64859241285E+03  0.45239761213E+03 0.  0.
      99925    2    3    3    0    0 -0.57652221053E+02 -0.67566263888E+02 -0.19857995384E+03  0.34135940909E+03  0.26306514307E+03 0.  0.
         25    1    4    4    0    0 -0.35078852488E+02  0.61329114158E+01 -0.81496051546E+02  0.15348372230E+03  0.12509000000E+03 0.  0.
         25    1    3    3    0    0  0.57652221053E+02  0.67566263888E+02 -0.26618721211E+03  0.30723300376E+03  0.12509000000E+03 0.  0.
         25    1    4    4    0    0 -0.22573368565E+02 -0.73699175304E+02 -0.11708390229E+03  0.18787568678E+03  0.12509000000E+03 0.  0.
<mgrwt>
<rscale>  2 0.45239761E+03</rscale>
<asrwt>0</asrwt>
<pdfrwt beam="1">  1       21 0.13516562E-01 0.45239761E+03</pdfrwt>
<pdfrwt beam="2">  1       21 0.81864677E-01 0.45239761E+03</pdfrwt>
<totfact> 0.56942749E+04</totfact>
</mgrwt>
</event>
<event>
 7    0  0.4737014E-002  0.4360546E+03  0.7546771E-02  0.1031964E+00
         21   -1    0    0  502  501  0.00000000000E+00  0.00000000000E+00  0.10463526984E+03  0.10463526984E+03  0.00000000000E+00 0.  1.
         21   -1    0    0  501  502 -0.00000000000E+00 -0.00000000000E+00 -0.45430100575E+03  0.45430100575E+03  0.00000000000E+00 0.  1.
      99926    2    1    2    0    0 -0.14210854715E-13  0.00000000000E+00 -0.34966573590E+03  0.55893627559E+03  0.43605462193E+03 0.  0.
      99925    2    3    3    0    0 -0.78594700606E+02 -0.51612896825E+02 -0.21670721078E+03  0.35359145441E+03  0.26310432027E+03 0.  0.
         25    1    4    4    0    0 -0.15232556234E+02 -0.29657457028E+01 -0.66868382992E+02  0.14268747374E+03  0.12509000000E+03 0.  0.
         25    1    3    3    0    0  0.78594700606E+02  0.51612896825E+02 -0.13295852512E+03  0.20534482118E+03  0.12509000000E+03 0.  0.
         25    1    4    4    0    0 -0.63362144373E+02 -0.48647151122E+02 -0.14983882779E+03  0.21090398068E+03  0.12509000000E+03 0.  0.
<mgrwt>
<rscale>  2 0.43605462E+03</rscale>
<asrwt>0</asrwt>
<pdfrwt beam="1">  1       21 0.15387540E-01 0.43605462E+03</pdfrwt>
<pdfrwt beam="2">  1       21 0.66808971E-01 0.43605462E+03</pdfrwt>
<totfact> 0.71391751E+04</totfact>
</mgrwt>
</event>
<event>
 7    0  0.4737014E-002  0.4560408E+03  0.7546771E-02  0.1025936E+00
         21   -1    0    0  502  501  0.00000000000E+00  0.00000000000E+00  0.43826207929E+03  0.43826207929E+03  0.00000000000E+00 0.  1.
         21   -1    0    0  501  502 -0.00000000000E+00 -0.00000000000E+00 -0.11863516940E+03  0.11863516940E+03  0.00000000000E+00 0.  1.
      99926    2    1    2    0    0 -0.71054273576E-14  0.00000000000E+00  0.31962690989E+03  0.55689724869E+03  0.45604077019E+03 0.  0.
      99925    2    3    3    0    0 -0.53003106894E+02  0.99885025075E+02  0.19020247592E+03  0.34433069492E+03  0.26381868403E+03 0.  0.
         25    1    4    4    0    0 -0.44684743797E+02  0.65487263788E+02  0.14344552950E+03  0.20617816587E+03  0.12509000000E+03 0.  0.
         25    1    3    3    0    0  0.53003106894E+02 -0.99885025075E+02  0.12942443396E+03  0.21256655377E+03  0.12509000000E+03 0.  0.
         25    1    4    4    0    0 -0.83183630968E+01  0.34397761288E+02  0.46756946424E+02  0.13815252906E+03  0.12509000000E+03 0.  0.
<mgrwt>
<rscale>  2 0.45604077E+03</rscale>
<asrwt>0</asrwt>
<pdfrwt beam="1">  1       21 0.64450305E-01 0.45604077E+03</pdfrwt>
<pdfrwt beam="2">  1       21 0.17446349E-01 0.45604077E+03</pdfrwt>
<totfact> 0.60909999E+04</totfact>
</mgrwt>
</event>
<event>
 7    0  0.4737014E-002  0.4505649E+03  0.7546771E-02  0.1027554E+00
         21   -1    0    0  502  501  0.00000000000E+00  0.00000000000E+00  0.41245872859E+03  0.41245872859E+03  0.00000000000E+00 0.  1.
         21   -1    0    0  501  502 -0.00000000000E+00 -0.00000000000E+00 -0.12304790332E+03  0.12304790332E+03  0.00000000000E+00 0.  1.
      99926    2    1    2    0    0  0.71054273576E-14  0.71054273576E-14  0.28941082527E+03  0.53550663191E+03  0.45056489770E+03 0.  0.
      99925    2    3    3    0    0 -0.27039408637E+02 -0.51182643232E+02  0.29261922875E+03  0.39763497224E+03  0.26293871059E+03 0.  0.
         25    1    3    3    0    0  0.27039408637E+02  0.51182643232E+02 -0.32084034821E+01  0.13787165967E+03  0.12509000000E+03 0.  0.
         25    1    4    4    0    0 -0.51084415935E+02 -0.32992493697E+02  0.17270144103E+03  0.22174629202E+03  0.12509000000E+03 0.  0.
         25    1    4    4    0    0  0.24045007298E+02 -0.18190149536E+02  0.11991778772E+03  0.17588868021E+03  0.12509000000E+03 0.  0.
<mgrwt>
<rscale>  2 0.45056490E+03</rscale>
<asrwt>0</asrwt>
<pdfrwt beam="1">  1       21 0.60655695E-01 0.45056490E+03</pdfrwt>
<pdfrwt beam="2">  1       21 0.18095280E-01 0.45056490E+03</pdfrwt>
<totfact> 0.65089431E+04</totfact>
</mgrwt>
</event>
<event>
 7    0  0.4737014E-002  0.4536118E+03  0.7546771E-02  0.1026650E+00
         21   -1    0    0  502  501  0.00000000000E+00  0.00000000000E+00  0.16690311358E+03  0.16690311358E+03  0.00000000000E+00 0.  1.
         21   -1    0    0  501  502 -0.00000000000E+00 -0.00000000000E+00 -0.30820825640E+03  0.30820825640E+03  0.00000000000E+00 0.  1.
      99926    2    1    2    0    0 -0.14210854715E-13  0.00000000000E+00 -0.14130514282E+03  0.47511136998E+03  0.45361180595E+03 0.  0.
      99925    2    3    3    0    0 -0.83270643481E+02 -0.45484427921E+02 -0.15096681577E+03  0.31781010084E+03  0.26307688512E+03 0.  0.
         25    1    3    3    0    0  0.83270643481E+02  0.45484427921E+02  0.96616729447E+01  0.15730126914E+03  0.12509000000E+03 0.  0.
         25    1    4    4    0    0 -0.48212734986E+02 -0.63800684703E+02 -0.79447992912E+02  0.16838790592E+03  0.12509000000E+03 0.  0.
         25    1    4    4    0    0 -0.35057908495E+02  0.18316256782E+02 -0.71518822856E+02  0.14942219492E+03  0.12509000000E+03 0.  0.
<mgrwt>
<rscale>  2 0.45361181E+03</rscale>
<asrwt>0</asrwt>
<pdfrwt beam="1">  1       21 0.24544576E-01 0.45361181E+03</pdfrwt>
<pdfrwt beam="2">  1       21 0.45324743E-01 0.45361181E+03</pdfrwt>
<totfact> 0.67801608E+04</totfact>
</mgrwt>
</event>
<event>
 7    0  0.4737014E-002  0.4556459E+03  0.7546771E-02  0.1026052E+00
         21   -1    0    0  502  501  0.00000000000E+00  0.00000000000E+00  0.16197170337E+03  0.16197170337E+03  0.00000000000E+00 0. -1.
         21   -1    0    0  501  502 -0.00000000000E+00 -0.00000000000E+00 -0.32044670190E+03  0.32044670190E+03  0.00000000000E+00 0. -1.
      99926    2    1    2    0    0  0.00000000000E+00  0.00000000000E+00 -0.15847499853E+03  0.48241840526E+03  0.45564590701E+03 0.  0.
      99925    2    3    3    0    0  0.37462565551E+02  0.28978601895E+02  0.99810176144E+01  0.26731810154E+03  0.26289949318E+03 0.  0.
         25    1    3    3    0    0 -0.37462565551E+02 -0.28978601895E+02 -0.16845601615E+03  0.21510030372E+03  0.12509000000E+03 0.  0.
         25    1    4    4    0    0  0.23644836741E+02  0.93910009467E+01  0.44790292806E+02  0.13528099509E+03  0.12509000000E+03 0.  0.
         25    1    4    4    0    0  0.13817728811E+02  0.19587600948E+02 -0.34809275191E+02  0.13203710645E+03  0.12509000000E+03 0.  0.
<mgrwt>
<rscale>  2 0.45564591E+03</rscale>
<asrwt>0</asrwt>
<pdfrwt beam="1">  1       21 0.23819368E-01 0.45564591E+03</pdfrwt>
<pdfrwt beam="2">  1       21 0.47124514E-01 0.45564591E+03</pdfrwt>
<totfact> 0.66184488E+04</totfact>
</mgrwt>
</event>
<event>
 7    0  0.4737014E-002  0.4598065E+03  0.7546771E-02  0.1024837E+00
         21   -1    0    0  502  501  0.00000000000E+00  0.00000000000E+00  0.10602515111E+03  0.10602515111E+03  0.00000000000E+00 0.  1.
         21   -1    0    0  501  502 -0.00000000000E+00 -0.00000000000E+00 -0.49851858568E+03  0.49851858568E+03  0.00000000000E+00 0.  1.
      99926    2    1    2    0    0  0.71054273576E-14 -0.99920072216E-15 -0.39249343457E+03  0.60454373679E+03  0.45980651748E+03 0.  0.
      99925    2    3    3    0    0 -0.55412167342E+02  0.21397288157E+00 -0.38225849126E+03  0.46734746775E+03  0.26309988104E+03 0.  0.
         25    1    3    3    0    0  0.55412167342E+02 -0.21397288157E+00 -0.10234943314E+02  0.13719626904E+03  0.12509000000E+03 0.  0.
         25    1    4    4    0    0 -0.80001153931E+01  0.33168870395E+02 -0.16126109829E+03  0.20692226978E+03  0.12509000000E+03 0.  0.
         25    1    4    4    0    0 -0.47412051949E+02 -0.32954897514E+02 -0.22099739296E+03  0.26042519797E+03  0.12509000000E+03 0.  0.
<mgrwt>
<rscale>  2 0.45980652E+03</rscale>
<asrwt>0</asrwt>
<pdfrwt beam="1">  1       21 0.15591934E-01 0.45980652E+03</pdfrwt>
<pdfrwt beam="2">  1       21 0.73311555E-01 0.45980652E+03</pdfrwt>
<totfact> 0.56233464E+04</totfact>
</mgrwt>
</event>
<event>
 7    0  0.4737014E-002  0.4589800E+03  0.7546771E-02  0.1025077E+00
         21   -1    0    0  502  501  0.00000000000E+00  0.00000000000E+00  0.19988441884E+03  0.19988441884E+03  0.00000000000E+00 0. -1.
         21   -1    0    0  501  502 -0.00000000000E+00 -0.00000000000E+00 -0.26348060987E+03  0.26348060987E+03  0.00000000000E+00 0. -1.
      99926    2    1    2    0    0 -0.71054273576E-14  0.00000000000E+00 -0.63596191034E+02  0.46336502870E+03  0.45898003694E+03 0.  0.
      99925    2    3    3    0    0  0.36911900454E+02  0.11569737598E+02  0.71183568605E+02  0.27545696892E+03  0.26327380057E+03 0.  0.
         25    1    3    3    0    0 -0.36911900454E+02 -0.11569737598E+02 -0.13477975964E+03  0.18790805978E+03  0.12509000000E+03 0.  0.
         25    1    4    4    0    0 -0.18766427682E+02 -0.61699741601E+01  0.48137501476E+02  0.13548053195E+03  0.12509000000E+03 0.  0.
         25    1    4    4    0    0  0.55678328135E+02  0.17739711758E+02  0.23046067128E+02  0.13997643697E+03  0.12509000000E+03 0.  0.
<mgrwt>
<rscale>  2 0.45898004E+03</rscale>
<asrwt>0</asrwt>
<pdfrwt beam="1">  1       21 0.29394768E-01 0.45898004E+03</pdfrwt>
<pdfrwt beam="2">  1       21 0.38747148E-01 0.45898004E+03</pdfrwt>
<totfact> 0.65821909E+04</totfact>
</mgrwt>
</event>
<event>
 7    0  0.4737014E-002  0.4415822E+03  0.7546771E-02  0.1030262E+00
         21   -1    0    0  502  501  0.00000000000E+00  0.00000000000E+00  0.14403550205E+03  0.14403550205E+03  0.00000000000E+00 0.  1.
         21   -1    0    0  501  502 -0.00000000000E+00 -0.00000000000E+00 -0.33844924767E+03  0.33844924767E+03  0.00000000000E+00 0.  1.
      99926    2    1    2    0    0 -0.35527136788E-14  0.00000000000E+00 -0.19441374562E+03  0.48248474972E+03  0.44158218852E+03 0.  0.
      99925    2    3    3    0    0 -0.30186333598E+02  0.94550843936E+02 -0.13557539244E+03  0.31230679365E+03  0.26325609110E+03 0.  0.
         25    1    4    4    0    0 -0.51819560708E+02  0.50719133459E+02 -0.90824673349E+02  0.17074638140E+03  0.12509000000E+03 0.  0.
         25    1    3    3    0    0  0.30186333598E+02 -0.94550843936E+02 -0.58838353187E+02  0.17017795607E+03  0.12509000000E+03 0.  0.
         25    1    4    4    0    0  0.21633227110E+02  0.43831710477E+02 -0.44750719089E+02  0.14156041225E+03  0.12509000000E+03 0.  0.
<mgrwt>
<rscale>  2 0.44158219E+03</rscale>
<asrwt>0</asrwt>
<pdfrwt beam="1">  1       21 0.21181692E-01 0.44158219E+03</pdfrwt>
<pdfrwt beam="2">  1       21 0.49771947E-01 0.44158219E+03</pdfrwt>
<totfact> 0.74104106E+04</totfact>
</mgrwt>
</event>
<event>
 7    0  0.4737014E-002  0.4516987E+03  0.7546771E-02  0.1027217E+00
         21   -1    0    0  502  501  0.00000000000E+00  0.00000000000E+00  0.66139562642E+02  0.66139562642E+02  0.00000000000E+00 0.  1.
         21   -1    0    0  501  502 -0.00000000000E+00 -0.00000000000E+00 -0.77121672534E+03  0.77121672534E+03  0.00000000000E+00 0.  1.
      99926    2    1    2    0    0  0.35527136788E-14  0.00000000000E+00 -0.70507716270E+03  0.83735628798E+03  0.45169873551E+03 0.  0.
      99925    2    3    3    0    0  0.30151961556E+02  0.93264478330E+02 -0.53796583812E+03  0.60674599635E+03  0.26291834740E+03 0.  0.
         25    1    3    3    0    0 -0.30151961556E+02 -0.93264478330E+02 -0.16711132458E+03  0.23061029163E+03  0.12509000000E+03 0.  0.
         25    1    4    4    0    0  0.12704717130E+02  0.48185479197E+02 -0.35667943005E+03  0.38124922841E+03  0.12509000000E+03 0.  0.
         25    1    4    4    0    0  0.17447244426E+02  0.45078999133E+02 -0.18128640807E+03  0.22549676794E+03  0.12509000000E+03 0.  0.
<mgrwt>
<rscale>  2 0.45169874E+03</rscale>
<asrwt>0</asrwt>
<pdfrwt beam="1">  1       21 0.97264066E-02 0.45169874E+03</pdfrwt>
<pdfrwt beam="2">  1       21 0.11341422E+00 0.45169874E+03</pdfrwt>
<totfact> 0.47221598E+04</totfact>
</mgrwt>
</event>
<event>
 7    0  0.4737014E-002  0.4551915E+03  0.7546771E-02  0.1026185E+00
         21   -1    0    0  502  501  0.00000000000E+00  0.00000000000E+00  0.23653632482E+03  0.23653632482E+03  0.00000000000E+00 0.  1.
         21   -1    0    0  501  502 -0.00000000000E+00 -0.00000000000E+00 -0.21899309900E+03  0.21899309900E+03  0.00000000000E+00 0.  1.
      99926    2    1    2    0    0  0.00000000000E+00 -0.88817841970E-15  0.17543225827E+02  0.45552942382E+03  0.45519148849E+03 0.  0.
      99925    2    3    3    0    0 -0.88296497626E+02  0.74296129484E+01 -0.59690219667E+02  0.28387866255E+03  0.26300703809E+03 0.  0.
         25    1    4    4    0    0 -0.75441903726E+02  0.66045610550E+01 -0.60177280543E+02  0.15812626049E+03  0.12509000000E+03 0.  0.
         25    1    4    4    0    0 -0.12854593901E+02  0.82505189347E+00  0.48706087611E+00  0.12575240206E+03  0.12509000000E+03 0.  0.
         25    1    3    3    0    0  0.88296497626E+02 -0.74296129484E+01  0.77233445494E+02  0.17165076127E+03  0.12509000000E+03 0.  0.
<mgrwt>
<rscale>  2 0.45519149E+03</rscale>
<asrwt>0</asrwt>
<pdfrwt beam="1">  1       21 0.34784754E-01 0.45519149E+03</pdfrwt>
<pdfrwt beam="2">  1       21 0.32204867E-01 0.45519149E+03</pdfrwt>
<totfact> 0.68402473E+04</totfact>
</mgrwt>
</event>
<event>
 7    0  0.4737014E-002  0.4437170E+03  0.7546771E-02  0.1029612E+00
         21   -1    0    0  502  501  0.00000000000E+00  0.00000000000E+00  0.88897269258E+03  0.88897269258E+03  0.00000000000E+00 0. -1.
         21   -1    0    0  501  502 -0.00000000000E+00 -0.00000000000E+00 -0.55368613614E+02  0.55368613614E+02  0.00000000000E+00 0. -1.
      99926    2    1    2    0    0  0.00000000000E+00  0.00000000000E+00  0.83360407897E+03  0.94434130620E+03  0.44371696172E+03 0.  0.
      99925    2    3    3    0    0 -0.58672984102E+02 -0.11682494570E+02  0.35397763422E+03  0.44507380841E+03  0.26308084244E+03 0.  0.
         25    1    4    4    0    0 -0.26320439453E+02 -0.36531109983E+02  0.22166906291E+03  0.25848011352E+03  0.12509000000E+03 0.  0.
         25    1    4    4    0    0 -0.32352544649E+02  0.24848615413E+02  0.13230857130E+03  0.18659369489E+03  0.12509000000E+03 0.  0.
         25    1    3    3    0    0  0.58672984102E+02  0.11682494570E+02  0.47962644475E+03  0.49926749779E+03  0.12509000000E+03 0.  0.
<mgrwt>
<rscale>  2 0.44371696E+03</rscale>
<asrwt>0</asrwt>
<pdfrwt beam="1">  1       21 0.13073127E+00 0.44371696E+03</pdfrwt>
<pdfrwt beam="2">  1       21 0.81424437E-02 0.44371696E+03</pdfrwt>
<totfact> 0.45231882E+04</totfact>
</mgrwt>
</event>
<event>
 7    0  0.4737014E-002  0.4564351E+03  0.7546771E-02  0.1025820E+00
         21   -1    0    0  502  501  0.00000000000E+00  0.00000000000E+00  0.10320842785E+03  0.10320842785E+03  0.00000000000E+00 0. -1.
         21   -1    0    0  501  502 -0.00000000000E+00 -0.00000000000E+00 -0.50464142945E+03  0.50464142945E+03  0.00000000000E+00 0. -1.
      99926    2    1    2    0    0  0.00000000000E+00  0.00000000000E+00 -0.40143300160E+03  0.60784985730E+03  0.45643509314E+03 0.  0.
      99925    2    3    3    0    0  0.39788668888E+02 -0.29617307386E+02 -0.38971569421E+03  0.47277533542E+03  0.26301686714E+03 0.  0.
         25    1    3    3    0    0 -0.39788668888E+02  0.29617307386E+02 -0.11717307382E+02  0.13507452188E+03  0.12509000000E+03 0.  0.
         25    1    4    4    0    0 -0.15096913583E+02 -0.25158197993E+02 -0.22113212905E+03  0.25574944443E+03  0.12509000000E+03 0.  0.
         25    1    4    4    0    0  0.54885582471E+02 -0.44591093929E+01 -0.16858356516E+03  0.21702589100E+03  0.12509000000E+03 0.  0.
<mgrwt>
<rscale>  2 0.45643509E+03</rscale>
<asrwt>0</asrwt>
<pdfrwt beam="1">  1       21 0.15177710E-01 0.45643509E+03</pdfrwt>
<pdfrwt beam="2">  1       21 0.74211974E-01 0.45643509E+03</pdfrwt>
<totfact> 0.57542562E+04</totfact>
</mgrwt>
</event>
<event>
 7    0  0.4737014E-002  0.4446930E+03  0.7546771E-02  0.1029317E+00
         21   -1    0    0  502  501  0.00000000000E+00  0.00000000000E+00  0.40572542508E+02  0.40572542508E+02  0.00000000000E+00 0. -1.
         21   -1    0    0  501  502 -0.00000000000E+00 -0.00000000000E+00 -0.12185077709E+04  0.12185077709E+04  0.00000000000E+00 0. -1.
      99926    2    1    2    0    0  0.00000000000E+00  0.00000000000E+00 -0.11779352284E+04  0.12590803134E+04  0.44469296523E+03 0.  0.
      99925    2    3    3    0    0  0.41170790579E+02 -0.29827539586E+02 -0.49409777142E+03  0.56203950272E+03  0.26300395201E+03 0.  0.
         25    1    4    4    0    0 -0.73281039238E+01 -0.43838362199E+01 -0.17818471024E+03  0.21787661231E+03  0.12509000000E+03 0.  0.
         25    1    3    3    0    0 -0.41170790579E+02  0.29827539586E+02 -0.68383745696E+03  0.69704081068E+03  0.12509000000E+03 0.  0.
         25    1    4    4    0    0  0.48498894503E+02 -0.25443703366E+02 -0.31591306118E+03  0.34416289041E+03  0.12509000000E+03 0.  0.
<mgrwt>
<rscale>  2 0.44469297E+03</rscale>
<asrwt>0</asrwt>
<pdfrwt beam="1">  1       21 0.59665504E-02 0.44469297E+03</pdfrwt>
<pdfrwt beam="2">  1       21 0.17919232E+00 0.44469297E+03</pdfrwt>
<totfact> 0.32886045E+04</totfact>
</mgrwt>
</event>
<event>
 7    0  0.4737014E-002  0.4479001E+03  0.7546771E-02  0.1028350E+00
         21   -1    0    0  502  501  0.00000000000E+00  0.00000000000E+00  0.14637331840E+04  0.14637331840E+04  0.00000000000E+00 0. -1.
         21   -1    0    0  501  502 -0.00000000000E+00 -0.00000000000E+00 -0.34264181146E+02  0.34264181146E+02  0.00000000000E+00 0. -1.
      99926    2    1    2    0    0  0.00000000000E+00  0.00000000000E+00  0.14294690028E+04  0.14979973651E+04  0.44790007352E+03 0.  0.
      99925    2    3    3    0    0  0.24059412762E+02 -0.10300356704E+03  0.94288962260E+03  0.98458175227E+03  0.26300531614E+03 0.  0.
         25    1    3    3    0    0 -0.24059412762E+02  0.10300356704E+03  0.48657938022E+03  0.51341561285E+03  0.12509000000E+03 0.  0.
         25    1    4    4    0    0  0.12857043346E+02 -0.90617060020E+02  0.45694224879E+03  0.48251474792E+03  0.12509000000E+03 0.  0.
         25    1    4    4    0    0  0.11202369416E+02 -0.12386507015E+02  0.48594737382E+03  0.50206700435E+03  0.12509000000E+03 0.  0.
<mgrwt>
<rscale>  2 0.44790007E+03</rscale>
<asrwt>0</asrwt>
<pdfrwt beam="1">  1       21 0.21525484E+00 0.44790007E+03</pdfrwt>
<pdfrwt beam="2">  1       21 0.50388511E-02 0.44790007E+03</pdfrwt>
<totfact> 0.25189017E+04</totfact>
</mgrwt>
</event>
<event>
 7    0  0.4737014E-002  0.4448759E+03  0.7546771E-02  0.1029261E+00
         21   -1    0    0  502  501  0.00000000000E+00  0.00000000000E+00  0.10075120337E+04  0.10075120337E+04  0.00000000000E+00 0. -1.
         21   -1    0    0  501  502 -0.00000000000E+00 -0.00000000000E+00 -0.49109736047E+02  0.49109736047E+02  0.00000000000E+00 0. -1.
      99926    2    1    2    0    0  0.14210854715E-13  0.00000000000E+00  0.95840229768E+03  0.10566217698E+04  0.44487593795E+03 0.  0.
      99925    2    3    3    0    0  0.76739208670E+02  0.68600077639E+02  0.58475361181E+03  0.64936788661E+03  0.26295815036E+03 0.  0.
         25    1    4    4    0    0  0.37868504651E+02  0.75300614230E+02  0.29575094848E+03  0.33199448456E+03  0.12509000000E+03 0.  0.
         25    1    3    3    0    0 -0.76739208670E+02 -0.68600077639E+02  0.37364868587E+03  0.40725388316E+03  0.12509000000E+03 0.  0.
         25    1    4    4    0    0  0.38870704019E+02 -0.67005365906E+01  0.28900266333E+03  0.31737340206E+03  0.12509000000E+03 0.  0.
<mgrwt>
<rscale>  2 0.44487594E+03</rscale>
<asrwt>0</asrwt>
<pdfrwt beam="1">  1       21 0.14816352E+00 0.44487594E+03</pdfrwt>
<pdfrwt beam="2">  1       21 0.72220207E-02 0.44487594E+03</pdfrwt>
<totfact> 0.40112312E+04</totfact>
</mgrwt>
</event>
<event>
 6    0  0.4737014E-002  0.4542266E+03  0.7546771E-02  0.1026469E+00
         21   -1    0    0  502  501  0.00000000000E+00  0.00000000000E+00  0.26599649053E+03  0.26599649053E+03  0.00000000000E+00 0.  1.
         21   -1    0    0  501  502 -0.00000000000E+00 -0.00000000000E+00 -0.19391406899E+03  0.19391406899E+03  0.00000000000E+00 0.  1.
      99926    2    1    2    0    0  0.71054273576E-14  0.00000000000E+00  0.72082421549E+02  0.45991055952E+03  0.45422664746E+03 0.  0.
         25    1    3    3    0    0 -0.65497744449E+02 -0.46241987607E+02  0.77139059700E+02  0.16741032996E+03  0.12509000000E+03 0.  0.
         25    1    3    3    0    0  0.61177971545E+02  0.82452784842E+02 -0.97050508124E+01  0.16212002357E+03  0.12509000000E+03 0.  0.
         25    1    3    3    0    0  0.43197729042E+01 -0.36210797235E+02  0.46484126615E+01  0.13038020599E+03  0.12509000000E+03 0.  0.
<mgrwt>
<rscale>  2 0.45422665E+03</rscale>
<asrwt>0</asrwt>
<pdfrwt beam="1">  1       21 0.39117131E-01 0.45422665E+03</pdfrwt>
<pdfrwt beam="2">  1       21 0.28516775E-01 0.45422665E+03</pdfrwt>
<totfact> 0.68609204E+04</totfact>
</mgrwt>
</event>
<event>
 7    0  0.4737014E-002  0.4421458E+03  0.7546771E-02  0.1030090E+00
         21   -1    0    0  502  501  0.00000000000E+00  0.00000000000E+00  0.90490213734E+02  0.90490213734E+02  0.00000000000E+00 0. -1.
         21   -1    0    0  501  502 -0.00000000000E+00 -0.00000000000E+00 -0.54009415479E+03  0.54009415479E+03  0.00000000000E+00 0. -1.
      99926    2    1    2    0    0  0.00000000000E+00 -0.71054273576E-14 -0.44960394105E+03  0.63058436852E+03  0.44214583794E+03 0.  0.
      99925    2    3    3    0    0  0.83199833343E+02  0.50267868129E+02 -0.24849813457E+03  0.37457631330E+03  0.26288214235E+03 0.  0.
         25    1    4    4    0    0  0.60820342615E+02  0.13092327570E+02 -0.82519524348E+02  0.16225752098E+03  0.12509000000E+03 0.  0.
         25    1    3    3    0    0 -0.83199833343E+02 -0.50267868129E+02 -0.20110580648E+03  0.25600805522E+03  0.12509000000E+03 0.  0.
         25    1    4    4    0    0  0.22379490728E+02  0.37175540559E+02 -0.16597861022E+03  0.21231879232E+03  0.12509000000E+03 0.  0.
<mgrwt>
<rscale>  2 0.44214584E+03</rscale>
<asrwt>0</asrwt>
<pdfrwt beam="1">  1       21 0.13307384E-01 0.44214584E+03</pdfrwt>
<pdfrwt beam="2">  1       21 0.79425611E-01 0.44214584E+03</pdfrwt>
<totfact> 0.62985487E+04</totfact>
</mgrwt>
</event>
<event>
 7    0  0.4737014E-002  0.4583174E+03  0.7546771E-02  0.1025270E+00
         21   -1    0    0  502  501  0.00000000000E+00  0.00000000000E+00  0.67843319675E+02  0.67843319675E+02  0.00000000000E+00 0.  1.
         21   -1    0    0  501  502 -0.00000000000E+00 -0.00000000000E+00 -0.77404389615E+03  0.77404389615E+03  0.00000000000E+00 0.  1.
      99926    2    1    2    0    0 -0.71054273576E-14 -0.44408920985E-15 -0.70620057648E+03  0.84188721583E+03  0.45831738998E+03 0.  0.
      99925    2    3    3    0    0 -0.45534633283E+02  0.27003976803E+01 -0.63957485166E+03  0.69300071448E+03  0.26289409354E+03 0.  0.
         25    1    4    4    0    0 -0.63413520386E+01  0.19390192879E+02 -0.39736213779E+03  0.41708556553E+03  0.12509000000E+03 0.  0.
         25    1    4    4    0    0 -0.39193281244E+02 -0.16689795198E+02 -0.24221271387E+03  0.27591514895E+03  0.12509000000E+03 0.  0.
         25    1    3    3    0    0  0.45534633283E+02 -0.27003976803E+01 -0.66625724814E+02  0.14888650135E+03  0.12509000000E+03 0.  0.
<mgrwt>
<rscale>  2 0.45831739E+03</rscale>
<asrwt>0</asrwt>
<pdfrwt beam="1">  1       21 0.99769584E-02 0.45831739E+03</pdfrwt>
<pdfrwt beam="2">  1       21 0.11382999E+00 0.45831739E+03</pdfrwt>
<totfact> 0.44631537E+04</totfact>
</mgrwt>
</event>
<event>
 7    0  0.4737014E-002  0.4302071E+03  0.7546771E-02  0.1033795E+00
         21   -1    0    0  502  501  0.00000000000E+00  0.00000000000E+00  0.15153753908E+03  0.15153753908E+03  0.00000000000E+00 0.  1.
         21   -1    0    0  501  502 -0.00000000000E+00 -0.00000000000E+00 -0.30533378006E+03  0.30533378006E+03  0.00000000000E+00 0.  1.
      99926    2    1    2    0    0 -0.71054273576E-14  0.71054273576E-14 -0.15379624098E+03  0.45687131914E+03  0.43020706470E+03 0.  0.
      99925    2    3    3    0    0 -0.48040346773E+02  0.43522280456E+02 -0.16230127834E+03  0.31572633136E+03  0.26294362048E+03 0.  0.
         25    1    3    3    0    0  0.48040346773E+02 -0.43522280456E+02  0.85050373611E+01  0.14114498778E+03  0.12509000000E+03 0.  0.
         25    1    4    4    0    0 -0.53566447772E+02  0.48880237623E+02 -0.74076780299E+02  0.16246082431E+03  0.12509000000E+03 0.  0.
         25    1    4    4    0    0  0.55261009988E+01 -0.53579571677E+01 -0.88224498040E+02  0.15326550705E+03  0.12509000000E+03 0.  0.
<mgrwt>
<rscale>  2 0.43020706E+03</rscale>
<asrwt>0</asrwt>
<pdfrwt beam="1">  1       21 0.22284932E-01 0.43020706E+03</pdfrwt>
<pdfrwt beam="2">  1       21 0.44902026E-01 0.43020706E+03</pdfrwt>
<totfact> 0.83722070E+04</totfact>
</mgrwt>
</event>
<event>
 7    0  0.4737014E-002  0.4565485E+03  0.7546771E-02  0.1025787E+00
         21   -1    0    0  502  501  0.00000000000E+00  0.00000000000E+00  0.46685363174E+03  0.46685363174E+03  0.00000000000E+00 0.  1.
         21   -1    0    0  501  502 -0.00000000000E+00 -0.00000000000E+00 -0.11161769983E+03  0.11161769983E+03  0.00000000000E+00 0.  1.
      99926    2    1    2    0    0  0.44408920985E-15  0.14210854715E-13  0.35523593192E+03  0.57847133157E+03  0.45654847948E+03 0.  0.
      99925    2    3    3    0    0  0.27797909213E+01  0.81938670741E+02  0.12155567977E+03  0.30102648778E+03  0.26290585779E+03 0.  0.
         25    1    3    3    0    0 -0.27797909213E+01 -0.81938670741E+02  0.23368025215E+03  0.27744484379E+03  0.12509000000E+03 0.  0.
         25    1    4    4    0    0 -0.65875802410E+01  0.11886044992E+02  0.26021968149E+02  0.12848861897E+03  0.12509000000E+03 0.  0.
         25    1    4    4    0    0  0.93673711623E+01  0.70052625748E+02  0.95533711620E+02  0.17253786881E+03  0.12509000000E+03 0.  0.
<mgrwt>
<rscale>  2 0.45654848E+03</rscale>
<asrwt>0</asrwt>
<pdfrwt beam="1">  1       21 0.68654945E-01 0.45654848E+03</pdfrwt>
<pdfrwt beam="2">  1       21 0.16414368E-01 0.45654848E+03</pdfrwt>
<totfact> 0.59294132E+04</totfact>
</mgrwt>
</event>
<event>
 7    0  0.4737014E-002  0.4587228E+03  0.7546771E-02  0.1025152E+00
         21   -1    0    0  502  501  0.00000000000E+00  0.00000000000E+00  0.11862512044E+04  0.11862512044E+04  0.00000000000E+00 0. -1.
         21   -1    0    0  501  502 -0.00000000000E+00 -0.00000000000E+00 -0.44346969124E+02  0.44346969124E+02  0.00000000000E+00 0. -1.
      99926    2    1    2    0    0  0.00000000000E+00  0.00000000000E+00  0.11419042353E+04  0.12305981735E+04  0.45872277264E+03 0.  0.
      99925    2    3    3    0    0 -0.31575539364E+02 -0.64071610434E+02  0.96345643024E+03  0.10012658531E+04  0.26302629098E+03 0.  0.
         25    1    4    4    0    0 -0.40149287205E+02 -0.64384494659E+02  0.47885022170E+03  0.50070187870E+03  0.12509000000E+03 0.  0.
         25    1    4    4    0    0  0.85737478411E+01  0.31288422552E+00  0.48460620855E+03  0.50056397444E+03  0.12509000000E+03 0.  0.
         25    1    3    3    0    0  0.31575539364E+02  0.64071610434E+02  0.17844780503E+03  0.22933232038E+03  0.12509000000E+03 0.  0.
<mgrwt>
<rscale>  2 0.45872277E+03</rscale>
<asrwt>0</asrwt>
<pdfrwt beam="1">  1       21 0.17444869E+00 0.45872277E+03</pdfrwt>
<pdfrwt beam="2">  1       21 0.65216139E-02 0.45872277E+03</pdfrwt>
<totfact> 0.30310627E+04</totfact>
</mgrwt>
</event>
<event>
 7    0  0.4737014E-002  0.4525688E+03  0.7546771E-02  0.1026959E+00
         21   -1    0    0  502  501  0.00000000000E+00  0.00000000000E+00  0.29650508991E+03  0.29650508991E+03  0.00000000000E+00 0.  1.
         21   -1    0    0  501  502 -0.00000000000E+00 -0.00000000000E+00 -0.17269390520E+03  0.17269390520E+03  0.00000000000E+00 0.  1.
      99926    2    1    2    0    0  0.00000000000E+00  0.00000000000E+00  0.12381118471E+03  0.46919899512E+03  0.45256876556E+03 0.  0.
      99925    2    3    3    0    0  0.95733643323E+02 -0.51618399749E+02  0.10066783681E+03  0.30182960631E+03  0.26294050320E+03 0.  0.
         25    1    4    4    0    0  0.77441195624E+02 -0.41139230006E+02  0.82687957256E+02  0.17370774709E+03  0.12509000000E+03 0.  0.
         25    1    3    3    0    0 -0.95733643323E+02  0.51618399749E+02  0.23143347904E+02  0.16736938880E+03  0.12509000000E+03 0.  0.
         25    1    4    4    0    0  0.18292447698E+02 -0.10479169742E+02  0.17979879550E+02  0.12812185922E+03  0.12509000000E+03 0.  0.
<mgrwt>
<rscale>  2 0.45256877E+03</rscale>
<asrwt>0</asrwt>
<pdfrwt beam="1">  1       21 0.43603690E-01 0.45256877E+03</pdfrwt>
<pdfrwt beam="2">  1       21 0.25396162E-01 0.45256877E+03</pdfrwt>
<totfact> 0.68813041E+04</totfact>
</mgrwt>
</event>
<event>
 7    0  0.4737014E-002  0.4552514E+03  0.7546771E-02  0.1026168E+00
         21   -1    0    0  502  501  0.00000000000E+00  0.00000000000E+00  0.48198027763E+02  0.48198027763E+02  0.00000000000E+00 0.  1.
         21   -1    0    0  501  502 -0.00000000000E+00 -0.00000000000E+00 -0.10750118228E+04  0.10750118228E+04  0.00000000000E+00 0.  1.
      99926    2    1    2    0    0  0.00000000000E+00  0.00000000000E+00 -0.10268137950E+04  0.11232098505E+04  0.45525135773E+03 0.  0.
      99925    2    3    3    0    0  0.60809819601E+01  0.94306193743E+02 -0.49281198816E+03  0.56667047696E+03  0.26328907548E+03 0.  0.
         25    1    3    3    0    0 -0.60809819601E+01 -0.94306193743E+02 -0.53400180685E+03  0.55653937357E+03  0.12509000000E+03 0.  0.
         25    1    4    4    0    0 -0.92808475674E+00  0.79831822051E+02 -0.31996614924E+03  0.35270359498E+03  0.12509000000E+03 0.  0.
         25    1    4    4    0    0  0.70090667168E+01  0.14474371693E+02 -0.17284583892E+03  0.21396688198E+03  0.12509000000E+03 0.  0.
<mgrwt>
<rscale>  2 0.45525136E+03</rscale>
<asrwt>0</asrwt>
<pdfrwt beam="1">  1       21 0.70879462E-02 0.45525136E+03</pdfrwt>
<pdfrwt beam="2">  1       21 0.15808995E+00 0.45525136E+03</pdfrwt>
<totfact> 0.34621629E+04</totfact>
</mgrwt>
</event>
<event>
 7    0  0.4737014E-002  0.4557590E+03  0.7546771E-02  0.1026018E+00
         21   -1    0    0  502  501  0.00000000000E+00  0.00000000000E+00  0.15921383477E+03  0.15921383477E+03  0.00000000000E+00 0.  1.
         21   -1    0    0  501  502 -0.00000000000E+00 -0.00000000000E+00 -0.32615923437E+03  0.32615923437E+03  0.00000000000E+00 0.  1.
      99926    2    1    2    0    0  0.00000000000E+00 -0.35527136788E-14 -0.16694539959E+03  0.48537306914E+03  0.45575898214E+03 0.  0.
      99925    2    3    3    0    0  0.97032898481E+02 -0.24058351429E+02 -0.16311236919E+03  0.32519695393E+03  0.26297001009E+03 0.  0.
         25    1    3    3    0    0 -0.97032898481E+02  0.24058351429E+02 -0.38330304059E+01  0.16017611521E+03  0.12509000000E+03 0.  0.
         25    1    4    4    0    0  0.63532026353E+02 -0.39140247812E+02 -0.54532406547E+02  0.15552996121E+03  0.12509000000E+03 0.  0.
         25    1    4    4    0    0  0.33500872128E+02  0.15081896383E+02 -0.10857996264E+03  0.16966699272E+03  0.12509000000E+03 0.  0.
<mgrwt>
<rscale>  2 0.45575898E+03</rscale>
<asrwt>0</asrwt>
<pdfrwt beam="1">  1       21 0.23413799E-01 0.45575898E+03</pdfrwt>
<pdfrwt beam="2">  1       21 0.47964593E-01 0.45575898E+03</pdfrwt>
<totfact> 0.65912989E+04</totfact>
</mgrwt>
</event>
<event>
 7    0  0.4737014E-002  0.4544288E+03  0.7546771E-02  0.1026410E+00
         21   -1    0    0  502  501  0.00000000000E+00  0.00000000000E+00  0.46774577743E+03  0.46774577743E+03  0.00000000000E+00 0. -1.
         21   -1    0    0  501  502 -0.00000000000E+00 -0.00000000000E+00 -0.11037272589E+03  0.11037272589E+03  0.00000000000E+00 0. -1.
      99926    2    1    2    0    0  0.17763568394E-14  0.00000000000E+00  0.35737305154E+03  0.57811850333E+03  0.45442876881E+03 0.  0.
      99925    2    3    3    0    0 -0.14880934119E+02  0.28553760272E+02  0.36244510446E+03  0.44885136424E+03  0.26280093990E+03 0.  0.
         25    1    3    3    0    0  0.14880934119E+02 -0.28553760272E+02 -0.50720529211E+01  0.12926713908E+03  0.12509000000E+03 0.  0.
         25    1    4    4    0    0 -0.62491421100E+01 -0.24535075833E+02  0.19464615822E+03  0.23275664703E+03  0.12509000000E+03 0.  0.
         25    1    4    4    0    0 -0.86317920092E+01  0.53088836105E+02  0.16779894624E+03  0.21609471722E+03  0.12509000000E+03 0.  0.
<mgrwt>
<rscale>  2 0.45442877E+03</rscale>
<asrwt>0</asrwt>
<pdfrwt beam="1">  1       21 0.68786143E-01 0.45442877E+03</pdfrwt>
<pdfrwt beam="2">  1       21 0.16231283E-01 0.45442877E+03</pdfrwt>
<totfact> 0.60317705E+04</totfact>
</mgrwt>
</event>
<event>
 7    0  0.4737014E-002  0.4565880E+03  0.7546771E-02  0.1025775E+00
         21   -1    0    0  502  501  0.00000000000E+00  0.00000000000E+00  0.85871086217E+02  0.85871086217E+02  0.00000000000E+00 0. -1.
         21   -1    0    0  501  502 -0.00000000000E+00 -0.00000000000E+00 -0.60693467392E+03  0.60693467392E+03  0.00000000000E+00 0. -1.
      99926    2    1    2    0    0  0.35527136788E-14  0.00000000000E+00 -0.52106358770E+03  0.69280576013E+03  0.45658795303E+03 0.  0.
      99925    2    3    3    0    0  0.19569546243E+02  0.36700954427E+02 -0.16517727686E+03  0.31328961879E+03  0.26293901433E+03 0.  0.
         25    1    4    4    0    0 -0.12807303376E+01  0.30274716450E+02 -0.39500085695E+02  0.13463269884E+03  0.12509000000E+03 0.  0.
         25    1    3    3    0    0 -0.19569546243E+02 -0.36700954427E+02 -0.35588631085E+03  0.37951614135E+03  0.12509000000E+03 0.  0.
         25    1    4    4    0    0  0.20850276580E+02  0.64262379767E+01 -0.12567719116E+03  0.17865691995E+03  0.12509000000E+03 0.  0.
<mgrwt>
<rscale>  2 0.45658795E+03</rscale>
<asrwt>0</asrwt>
<pdfrwt beam="1">  1       21 0.12628101E-01 0.45658795E+03</pdfrwt>
<pdfrwt beam="2">  1       21 0.89255100E-01 0.45658795E+03</pdfrwt>
<totfact> 0.52634368E+04</totfact>
</mgrwt>
</event>
<event>
 7    0  0.4737014E-002  0.4567530E+03  0.7546771E-02  0.1025727E+00
         21   -1    0    0  502  501  0.00000000000E+00  0.00000000000E+00  0.12937146873E+03  0.12937146873E+03  0.00000000000E+00 0. -1.
         21   -1    0    0  501  502 -0.00000000000E+00 -0.00000000000E+00 -0.40314780395E+03  0.40314780395E+03  0.00000000000E+00 0. -1.
      99926    2    1    2    0    0  0.17763568394E-14  0.00000000000E+00 -0.27377633522E+03  0.53251927268E+03  0.45675299019E+03 0.  0.
      99925    2    3    3    0    0 -0.93209922958E+01 -0.84867084635E+02 -0.82520153938E+02  0.28856079685E+03  0.26299896334E+03 0.  0.
         25    1    4    4    0    0 -0.83014213124E+01 -0.83118626353E+02 -0.32894270122E+02  0.15397129846E+03  0.12509000000E+03 0.  0.
         25    1    3    3    0    0  0.93209922958E+01  0.84867084635E+02 -0.19125618128E+03  0.24395847583E+03  0.12509000000E+03 0.  0.
         25    1    4    4    0    0 -0.10195709834E+01 -0.17484582822E+01 -0.49625883816E+02  0.13458949839E+03  0.12509000000E+03 0.  0.
<mgrwt>
<rscale>  2 0.45675299E+03</rscale>
<asrwt>0</asrwt>
<pdfrwt beam="1">  1       21 0.19025216E-01 0.45675299E+03</pdfrwt>
<pdfrwt beam="2">  1       21 0.59286440E-01 0.45675299E+03</pdfrwt>
<totfact> 0.62168054E+04</totfact>
</mgrwt>
</event>
<event>
 6    0  0.4737014E-002  0.4590971E+03  0.7546771E-02  0.1025043E+00
         21   -1    0    0  502  501  0.00000000000E+00  0.00000000000E+00  0.13629620790E+03  0.13629620790E+03  0.00000000000E+00 0.  1.
         21   -1    0    0  501  502 -0.00000000000E+00 -0.00000000000E+00 -0.38660310469E+03  0.38660310469E+03  0.00000000000E+00 0.  1.
      99926    2    1    2    0    0  0.00000000000E+00  0.00000000000E+00 -0.25030689679E+03  0.52289931259E+03  0.45909710142E+03 0.  0.
         25    1    3    3    0    0 -0.14776172948E+02  0.25984153544E+02 -0.10232185159E+03  0.16434956932E+03  0.12509000000E+03 0.  0.
         25    1    3    3    0    0 -0.53136490874E+02 -0.75836530156E+02 -0.13698802736E+03  0.20733522061E+03  0.12509000000E+03 0.  0.
         25    1    3    3    0    0  0.67912663822E+02  0.49852376612E+02 -0.10997017845E+02  0.15121452266E+03  0.12509000000E+03 0.  0.
<mgrwt>
<rscale>  2 0.45909710E+03</rscale>
<asrwt>0</asrwt>
<pdfrwt beam="1">  1       21 0.20043560E-01 0.45909710E+03</pdfrwt>
<pdfrwt beam="2">  1       21 0.56853397E-01 0.45909710E+03</pdfrwt>
<totfact> 0.61661333E+04</totfact>
</mgrwt>
</event>
<event>
 7    0  0.4737014E-002  0.4708613E+03  0.7546771E-02  0.1021677E+00
         21   -1    0    0  502  501  0.00000000000E+00  0.00000000000E+00  0.32830605433E+03  0.32830605433E+03  0.00000000000E+00 0.  1.
         21   -1    0    0  501  502 -0.00000000000E+00 -0.00000000000E+00 -0.16882901299E+03  0.16882901299E+03  0.00000000000E+00 0.  1.
      99926    2    1    2    0    0  0.14210854715E-13  0.14210854715E-13  0.15947704134E+03  0.49713506732E+03  0.47086128365E+03 0.  0.
      99925    2    3    3    0    0 -0.10259676601E+03 -0.75450529611E+02  0.95477320298E+02  0.30749764694E+03  0.26309695051E+03 0.  0.
         25    1    4    4    0    0 -0.11836393298E+02 -0.48994022002E+02  0.54309211931E+02  0.14538745819E+03  0.12509000000E+03 0.  0.
         25    1    4    4    0    0 -0.90760372712E+02 -0.26456507610E+02  0.41168108367E+02  0.16211018875E+03  0.12509000000E+03 0.  0.
         25    1    3    3    0    0  0.10259676601E+03  0.75450529611E+02  0.63999721044E+02  0.18963742038E+03  0.12509000000E+03 0.  0.
<mgrwt>
<rscale>  2 0.47086128E+03</rscale>
<asrwt>0</asrwt>
<pdfrwt beam="1">  1       21 0.48280302E-01 0.47086128E+03</pdfrwt>
<pdfrwt beam="2">  1       21 0.24827796E-01 0.47086128E+03</pdfrwt>
<totfact> 0.57839314E+04</totfact>
</mgrwt>
</event>
<event>
 7    0  0.4737014E-002  0.4581640E+03  0.7546771E-02  0.1025315E+00
         21   -1    0    0  502  501  0.00000000000E+00  0.00000000000E+00  0.65493453532E+03  0.65493453532E+03  0.00000000000E+00 0.  1.
         21   -1    0    0  501  502 -0.00000000000E+00 -0.00000000000E+00 -0.80127961262E+02  0.80127961262E+02  0.00000000000E+00 0.  1.
      99926    2    1    2    0    0  0.00000000000E+00 -0.14210854715E-13  0.57480657406E+03  0.73506249658E+03  0.45816402772E+03 0.  0.
      99925    2    3    3    0    0  0.48031589387E+02 -0.10362333494E+03  0.39450325918E+03  0.48767287962E+03  0.26295852695E+03 0.  0.
         25    1    4    4    0    0  0.12487502948E+02 -0.91674603323E+02  0.19988626626E+03  0.25330258223E+03  0.12509000000E+03 0.  0.
         25    1    3    3    0    0 -0.48031589387E+02  0.10362333494E+03  0.18030331488E+03  0.24738961696E+03  0.12509000000E+03 0.  0.
         25    1    4    4    0    0  0.35544086439E+02 -0.11948731614E+02  0.19461699291E+03  0.23437029739E+03  0.12509000000E+03 0.  0.
<mgrwt>
<rscale>  2 0.45816403E+03</rscale>
<asrwt>0</asrwt>
<pdfrwt beam="1">  1       21 0.96313899E-01 0.45816403E+03</pdfrwt>
<pdfrwt beam="2">  1       21 0.11783524E-01 0.45816403E+03</pdfrwt>
<totfact> 0.49790061E+04</totfact>
</mgrwt>
</event>
<event>
 7    0  0.4737014E-002  0.4573277E+03  0.7546771E-02  0.1025559E+00
         21   -1    0    0  502  501  0.00000000000E+00  0.00000000000E+00  0.41274575690E+03  0.41274575690E+03  0.00000000000E+00 0.  1.
         21   -1    0    0  501  502 -0.00000000000E+00 -0.00000000000E+00 -0.12668125301E+03  0.12668125301E+03  0.00000000000E+00 0.  1.
      99926    2    1    2    0    0  0.00000000000E+00  0.00000000000E+00  0.28606450389E+03  0.53942700992E+03  0.45732767098E+03 0.  0.
      99925    2    3    3    0    0 -0.40458157495E+02  0.10608052327E+03  0.19064832755E+03  0.34541233333E+03  0.26471296774E+03 0.  0.
         25    1    3    3    0    0  0.40458157495E+02 -0.10608052327E+03  0.95416176342E+02  0.19401467659E+03  0.12509000000E+03 0.  0.
         25    1    4    4    0    0 -0.50565414312E+02  0.25054437202E+02  0.10844150526E+03  0.17490470008E+03  0.12509000000E+03 0.  0.
         25    1    4    4    0    0  0.10107256817E+02  0.81026086066E+02  0.82206822288E+02  0.17050763324E+03  0.12509000000E+03 0.  0.
<mgrwt>
<rscale>  2 0.45732767E+03</rscale>
<asrwt>0</asrwt>
<pdfrwt beam="1">  1       21 0.60697905E-01 0.45732767E+03</pdfrwt>
<pdfrwt beam="2">  1       21 0.18629596E-01 0.45732767E+03</pdfrwt>
<totfact> 0.61431144E+04</totfact>
</mgrwt>
</event>
<event>
 7    0  0.4737014E-002  0.4331941E+03  0.7546771E-02  0.1032856E+00
         21   -1    0    0  502  501  0.00000000000E+00  0.00000000000E+00  0.11327474344E+04  0.11327474344E+04  0.00000000000E+00 0.  1.
         21   -1    0    0  501  502 -0.00000000000E+00 -0.00000000000E+00 -0.41416367741E+02  0.41416367741E+02  0.00000000000E+00 0.  1.
      99926    2    1    2    0    0 -0.71054273576E-14  0.00000000000E+00  0.10913310666E+04  0.11741638021E+04  0.43319411030E+03 0.  0.
      99925    2    3    3    0    0 -0.54300915993E+02  0.35368786465E+02  0.52716459446E+03  0.59267359845E+03  0.26298278292E+03 0.  0.
         25    1    3    3    0    0  0.54300915993E+02 -0.35368786465E+02  0.56416647216E+03  0.58149020365E+03  0.12509000000E+03 0.  0.
         25    1    4    4    0    0 -0.43887716671E+01  0.21882475087E+02  0.32909285680E+03  0.35277148486E+03  0.12509000000E+03 0.  0.
         25    1    4    4    0    0 -0.49912144326E+02  0.13486311377E+02  0.19807173766E+03  0.23990211359E+03  0.12509000000E+03 0.  0.
<mgrwt>
<rscale>  2 0.43319411E+03</rscale>
<asrwt>0</asrwt>
<pdfrwt beam="1">  1       21 0.16658048E+00 0.43319411E+03</pdfrwt>
<pdfrwt beam="2">  1       21 0.60906431E-02 0.43319411E+03</pdfrwt>
<totfact> 0.39240778E+04</totfact>
</mgrwt>
</event>
<event>
 7    0  0.4737014E-002  0.4582089E+03  0.7546771E-02  0.1025302E+00
         21   -1    0    0  502  501  0.00000000000E+00  0.00000000000E+00  0.21799024637E+03  0.21799024637E+03  0.00000000000E+00 0.  1.
         21   -1    0    0  501  502 -0.00000000000E+00 -0.00000000000E+00 -0.24078526204E+03  0.24078526204E+03  0.00000000000E+00 0.  1.
      99926    2    1    2    0    0  0.00000000000E+00  0.00000000000E+00 -0.22795015673E+02  0.45877550842E+03  0.45820885454E+03 0.  0.
      99925    2    3    3    0    0 -0.29414331171E+02  0.80464403035E+02 -0.93597429112E+02  0.29144286700E+03  0.26237138364E+03 0.  0.
         25    1    4    4    0    0 -0.11028396073E+02  0.59710498445E+02 -0.12055672304E+02  0.13957011313E+03  0.12509000000E+03 0.  0.
         25    1    4    4    0    0 -0.18385935098E+02  0.20753904590E+02 -0.81541756808E+02  0.15187275387E+03  0.12509000000E+03 0.  0.
         25    1    3    3    0    0  0.29414331171E+02 -0.80464403035E+02  0.70802413439E+02  0.16733264141E+03  0.12509000000E+03 0.  0.
<mgrwt>
<rscale>  2 0.45820885E+03</rscale>
<asrwt>0</asrwt>
<pdfrwt beam="1">  1       21 0.32057389E-01 0.45820885E+03</pdfrwt>
<pdfrwt beam="2">  1       21 0.35409597E-01 0.45820885E+03</pdfrwt>
<totfact> 0.66549843E+04</totfact>
</mgrwt>
</event>
<event>
 7    0  0.4737014E-002  0.4563945E+03  0.7546771E-02  0.1025832E+00
         21   -1    0    0  502  501  0.00000000000E+00  0.00000000000E+00  0.17874895275E+03  0.17874895275E+03  0.00000000000E+00 0.  1.
         21   -1    0    0  501  502 -0.00000000000E+00 -0.00000000000E+00 -0.29132471527E+03  0.29132471527E+03  0.00000000000E+00 0.  1.
      99926    2    1    2    0    0  0.00000000000E+00  0.00000000000E+00 -0.11257576252E+03  0.47007366803E+03  0.45639451252E+03 0.  0.
      99925    2    3    3    0    0  0.66282885886E+02 -0.34765768889E+02 -0.15993848824E+03  0.31680000579E+03  0.26302061517E+03 0.  0.
         25    1    4    4    0    0  0.51240609228E+02  0.14843218838E+02 -0.60704215894E+02  0.14892424620E+03  0.12509000000E+03 0.  0.
         25    1    4    4    0    0  0.15042276657E+02 -0.49608987728E+02 -0.99234272342E+02  0.16787575959E+03  0.12509000000E+03 0.  0.
         25    1    3    3    0    0 -0.66282885886E+02  0.34765768889E+02  0.47362725712E+02  0.15327366223E+03  0.12509000000E+03 0.  0.
<mgrwt>
<rscale>  2 0.45639451E+03</rscale>
<asrwt>0</asrwt>
<pdfrwt beam="1">  1       21 0.26286611E-01 0.45639451E+03</pdfrwt>
<pdfrwt beam="2">  1       21 0.42841870E-01 0.45639451E+03</pdfrwt>
<totfact> 0.66689484E+04</totfact>
</mgrwt>
</event>
<event>
 7    0  0.4737014E-002  0.4492687E+03  0.7546771E-02  0.1027940E+00
         21   -1    0    0  502  501  0.00000000000E+00  0.00000000000E+00  0.16698667692E+03  0.16698667692E+03  0.00000000000E+00 0.  1.
         21   -1    0    0  501  502 -0.00000000000E+00 -0.00000000000E+00 -0.30218334671E+03  0.30218334671E+03  0.00000000000E+00 0.  1.
      99926    2    1    2    0    0 -0.35527136788E-14  0.00000000000E+00 -0.13519666978E+03  0.46917002363E+03  0.44926870752E+03 0.  0.
      99925    2    3    3    0    0  0.25654651187E+02  0.74532813492E+02 -0.16230621261E+03  0.31885123962E+03  0.26288686718E+03 0.  0.
         25    1    3    3    0    0 -0.25654651187E+02 -0.74532813492E+02  0.27109542830E+02  0.15031878401E+03  0.12509000000E+03 0.  0.
         25    1    4    4    0    0  0.27294748950E+01  0.62614890355E+02 -0.49415094962E+02  0.14838272891E+03  0.12509000000E+03 0.  0.
         25    1    4    4    0    0  0.22925176292E+02  0.11917923137E+02 -0.11289111765E+03  0.17046851071E+03  0.12509000000E+03 0.  0.
<mgrwt>
<rscale>  2 0.44926871E+03</rscale>
<asrwt>0</asrwt>
<pdfrwt beam="1">  1       21 0.24556864E-01 0.44926871E+03</pdfrwt>
<pdfrwt beam="2">  1       21 0.44438727E-01 0.44926871E+03</pdfrwt>
<totfact> 0.70656280E+04</totfact>
</mgrwt>
</event>
<event>
 7    0  0.4737014E-002  0.4519795E+03  0.7546771E-02  0.1027133E+00
         21   -1    0    0  502  501  0.00000000000E+00  0.00000000000E+00  0.92421678803E+03  0.92421678803E+03  0.00000000000E+00 0.  1.
         21   -1    0    0  501  502 -0.00000000000E+00 -0.00000000000E+00 -0.55259069937E+02  0.55259069937E+02  0.00000000000E+00 0.  1.
      99926    2    1    2    0    0  0.00000000000E+00  0.00000000000E+00  0.86895771809E+03  0.97947585797E+03  0.45197946912E+03 0.  0.
      99925    2    3    3    0    0  0.20016784659E+02 -0.96475076975E+02  0.44088283688E+03  0.52274429110E+03  0.26301293862E+03 0.  0.
         25    1    3    3    0    0 -0.20016784659E+02  0.96475076975E+02  0.42807488121E+03  0.45673156686E+03  0.12509000000E+03 0.  0.
         25    1    4    4    0    0 -0.19056656944E+02 -0.27433423259E+02  0.16632286741E+03  0.21077607362E+03  0.12509000000E+03 0.  0.
         25    1    4    4    0    0  0.39073441603E+02 -0.69041653716E+02  0.27455996947E+03  0.31196821749E+03  0.12509000000E+03 0.  0.
<mgrwt>
<rscale>  2 0.45197947E+03</rscale>
<asrwt>0</asrwt>
<pdfrwt beam="1">  1       21 0.13591422E+00 0.45197947E+03</pdfrwt>
<pdfrwt beam="2">  1       21 0.81263344E-02 0.45197947E+03</pdfrwt>
<totfact> 0.40927452E+04</totfact>
</mgrwt>
</event>
<event>
 7    0  0.4737014E-002  0.4761546E+03  0.7546771E-02  0.1020197E+00
         21   -1    0    0  502  501  0.00000000000E+00  0.00000000000E+00  0.18574697658E+04  0.18574697658E+04  0.00000000000E+00 0. -1.
         21   -1    0    0  501  502 -0.00000000000E+00 -0.00000000000E+00 -0.30515054145E+02  0.30515054145E+02  0.00000000000E+00 0. -1.
      99926    2    1    2    0    0 -0.14210854715E-13 -0.14210854715E-13  0.18269547116E+04  0.18879848199E+04  0.47615455674E+03 0.  0.
      99925    2    3    3    0    0 -0.97581073104E+02 -0.85689035120E+02  0.10349265782E+04  0.10756913084E+04  0.26300968080E+03 0.  0.
         25    1    4    4    0    0 -0.83860195651E+02 -0.67733205927E+02  0.62998360672E+03  0.65126582318E+03  0.12509000000E+03 0.  0.
         25    1    4    4    0    0 -0.13720877453E+02 -0.17955829193E+02  0.40494297144E+03  0.42442548521E+03  0.12509000000E+03 0.  0.
         25    1    3    3    0    0  0.97581073104E+02  0.85689035120E+02  0.79202813347E+03  0.81229351153E+03  0.12509000000E+03 0.  0.
<mgrwt>
<rscale>  2 0.47615456E+03</rscale>
<asrwt>0</asrwt>
<pdfrwt beam="1">  1       21 0.27315724E+00 0.47615456E+03</pdfrwt>
<pdfrwt beam="2">  1       21 0.44875092E-02 0.47615456E+03</pdfrwt>
<totfact> 0.13303668E+04</totfact>
</mgrwt>
</event>
<event>
 7    0  0.4737014E-002  0.4555912E+03  0.7546771E-02  0.1026068E+00
         21   -1    0    0  502  501  0.00000000000E+00  0.00000000000E+00  0.48580881273E+03  0.48580881273E+03  0.00000000000E+00 0.  1.
         21   -1    0    0  501  502 -0.00000000000E+00 -0.00000000000E+00 -0.10681326889E+03  0.10681326889E+03  0.00000000000E+00 0.  1.
      99926    2    1    2    0    0  0.00000000000E+00 -0.88817841970E-15  0.37899554384E+03  0.59262208162E+03  0.45559116472E+03 0.  0.
      99925    2    3    3    0    0 -0.85557507908E+02 -0.75567015680E+01  0.14143779510E+03  0.31073844785E+03  0.26301433838E+03 0.  0.
         25    1    3    3    0    0  0.85557507908E+02  0.75567015680E+01  0.23755774874E+03  0.28188363377E+03  0.12509000000E+03 0.  0.
         25    1    4    4    0    0 -0.75670924917E+02  0.21000842393E+02  0.68392791424E+02  0.16276426597E+03  0.12509000000E+03 0.  0.
         25    1    4    4    0    0 -0.98865829908E+01 -0.28557543961E+02  0.73045003677E+02  0.14797418188E+03  0.12509000000E+03 0.  0.
<mgrwt>
<rscale>  2 0.45559116E+03</rscale>
<asrwt>0</asrwt>
<pdfrwt beam="1">  1       21 0.71442471E-01 0.45559116E+03</pdfrwt>
<pdfrwt beam="2">  1       21 0.15707834E-01 0.45559116E+03</pdfrwt>
<totfact> 0.58859240E+04</totfact>
</mgrwt>
</event>
<event>
 7    0  0.4737014E-002  0.4642140E+03  0.7546771E-02  0.1023566E+00
         21   -1    0    0  502  501  0.00000000000E+00  0.00000000000E+00  0.17669820815E+04  0.17669820815E+04  0.00000000000E+00 0.  1.
         21   -1    0    0  501  502 -0.00000000000E+00 -0.00000000000E+00 -0.30489075300E+02  0.30489075300E+02  0.00000000000E+00 0.  1.
      99926    2    1    2    0    0  0.00000000000E+00 -0.11102230246E-14  0.17364930062E+04  0.17974711568E+04  0.46421395816E+03 0.  0.
      99925    2    3    3    0    0  0.97649134877E+02 -0.11223526959E+01  0.80257337062E+03  0.85016444457E+03  0.26290483898E+03 0.  0.
         25    1    4    4    0    0  0.20879610154E+02 -0.14188430879E+02  0.45712509586E+03  0.47460313005E+03  0.12509000000E+03 0.  0.
         25    1    3    3    0    0 -0.97649134877E+02  0.11223526959E+01  0.93391963560E+03  0.94730671226E+03  0.12509000000E+03 0.  0.
         25    1    4    4    0    0  0.76769524723E+02  0.13066078183E+02  0.34544827476E+03  0.37556131451E+03  0.12509000000E+03 0.  0.
<mgrwt>
<rscale>  2 0.46421396E+03</rscale>
<asrwt>0</asrwt>
<pdfrwt beam="1">  1       21 0.25985024E+00 0.46421396E+03</pdfrwt>
<pdfrwt beam="2">  1       21 0.44836888E-02 0.46421396E+03</pdfrwt>
<totfact> 0.16123537E+04</totfact>
</mgrwt>
</event>
<event>
 7    0  0.4737014E-002  0.4555288E+03  0.7546771E-02  0.1026086E+00
         21   -1    0    0  502  501  0.00000000000E+00  0.00000000000E+00  0.24265912593E+03  0.24265912593E+03  0.00000000000E+00 0. -1.
         21   -1    0    0  501  502 -0.00000000000E+00 -0.00000000000E+00 -0.21378392008E+03  0.21378392008E+03  0.00000000000E+00 0. -1.
      99926    2    1    2    0    0  0.00000000000E+00  0.00000000000E+00  0.28875205849E+02  0.45644304601E+03  0.45552878805E+03 0.  0.
      99925    2    3    3    0    0  0.44620698752E+02 -0.89856197212E+02 -0.35350501842E+02  0.28370743138E+03  0.26301160755E+03 0.  0.
         25    1    4    4    0    0  0.60240560677E+01 -0.70328409778E+01 -0.30667568107E+01  0.12546977007E+03  0.12509000000E+03 0.  0.
         25    1    3    3    0    0 -0.44620698752E+02  0.89856197212E+02  0.64225707691E+02  0.17273561463E+03  0.12509000000E+03 0.  0.
         25    1    4    4    0    0  0.38596642684E+02 -0.82823356234E+02 -0.32283745032E+02  0.15823766131E+03  0.12509000000E+03 0.  0.
<mgrwt>
<rscale>  2 0.45552879E+03</rscale>
<asrwt>0</asrwt>
<pdfrwt beam="1">  1       21 0.35685166E-01 0.45552879E+03</pdfrwt>
<pdfrwt beam="2">  1       21 0.31438812E-01 0.45552879E+03</pdfrwt>
<totfact> 0.68152246E+04</totfact>
</mgrwt>
</event>
<event>
 7    0  0.4737014E-002  0.4550041E+03  0.7546771E-02  0.1026240E+00
         21   -1    0    0  502  501  0.00000000000E+00  0.00000000000E+00  0.26425240381E+03  0.26425240381E+03  0.00000000000E+00 0. -1.
         21   -1    0    0  501  502 -0.00000000000E+00 -0.00000000000E+00 -0.19586263860E+03  0.19586263860E+03  0.00000000000E+00 0. -1.
      99926    2    1    2    0    0  0.35527136788E-14  0.00000000000E+00  0.68389765217E+02  0.46011504241E+03  0.45500405742E+03 0.  0.
      99925    2    3    3    0    0 -0.19098735946E+02 -0.45068346419E+02  0.14611695796E+03  0.30492180108E+03  0.26311826582E+03 0.  0.
         25    1    4    4    0    0  0.25555288848E+01  0.15138126839E+02  0.55332384236E+02  0.13764038091E+03  0.12509000000E+03 0.  0.
         25    1    4    4    0    0 -0.21654264831E+02 -0.60206473257E+02  0.90784573721E+02  0.16728142017E+03  0.12509000000E+03 0.  0.
         25    1    3    3    0    0  0.19098735946E+02  0.45068346419E+02 -0.77727192740E+02  0.15519324133E+03  0.12509000000E+03 0.  0.
<mgrwt>
<rscale>  2 0.45500406E+03</rscale>
<asrwt>0</asrwt>
<pdfrwt beam="1">  1       21 0.38860648E-01 0.45500406E+03</pdfrwt>
<pdfrwt beam="2">  1       21 0.28803329E-01 0.45500406E+03</pdfrwt>
<totfact> 0.68169979E+04</totfact>
</mgrwt>
</event>
<event>
 7    0  0.4737014E-002  0.4558719E+03  0.7546771E-02  0.1025985E+00
         21   -1    0    0  502  501  0.00000000000E+00  0.00000000000E+00  0.77721567135E+02  0.77721567135E+02  0.00000000000E+00 0. -1.
         21   -1    0    0  501  502 -0.00000000000E+00 -0.00000000000E+00 -0.66847341653E+03  0.66847341653E+03  0.00000000000E+00 0. -1.
      99926    2    1    2    0    0  0.00000000000E+00  0.00000000000E+00 -0.59075184939E+03  0.74619498366E+03  0.45587191851E+03 0.  0.
      99925    2    3    3    0    0  0.57237393653E+02 -0.68903604630E+02 -0.48679221305E+03  0.56050992758E+03  0.26302261171E+03 0.  0.
         25    1    4    4    0    0  0.88730344319E+01 -0.75825148854E+01 -0.27606679835E+03  0.30330943032E+03  0.12509000000E+03 0.  0.
         25    1    3    3    0    0 -0.57237393653E+02  0.68903604630E+02 -0.10395963635E+03  0.18568505608E+03  0.12509000000E+03 0.  0.
         25    1    4    4    0    0  0.48364359221E+02 -0.61321089745E+02 -0.21072541470E+03  0.25720049726E+03  0.12509000000E+03 0.  0.
<mgrwt>
<rscale>  2 0.45587192E+03</rscale>
<asrwt>0</asrwt>
<pdfrwt beam="1">  1       21 0.11429642E-01 0.45587192E+03</pdfrwt>
<pdfrwt beam="2">  1       21 0.98304914E-01 0.45587192E+03</pdfrwt>
<totfact> 0.50121196E+04</totfact>
</mgrwt>
</event>
<event>
 7    0  0.4737014E-002  0.4222093E+03  0.7546771E-02  0.1036350E+00
         21   -1    0    0  502  501  0.00000000000E+00  0.00000000000E+00  0.53395291398E+02  0.53395291398E+02  0.00000000000E+00 0. -1.
         21   -1    0    0  501  502 -0.00000000000E+00 -0.00000000000E+00 -0.83462737195E+03  0.83462737195E+03  0.00000000000E+00 0. -1.
      99926    2    1    2    0    0 -0.71054273576E-14  0.71054273576E-14 -0.78123208055E+03  0.88802266335E+03  0.42220929281E+03 0.  0.
      99925    2    3    3    0    0  0.57794327075E+02 -0.33280200368E+02 -0.42073435934E+03  0.50065478771E+03  0.26304003374E+03 0.  0.
         25    1    4    4    0    0  0.44029970262E+02 -0.58855183756E+01 -0.14656903167E+03  0.19774545950E+03  0.12509000000E+03 0.  0.
         25    1    4    4    0    0  0.13764356813E+02 -0.27394681993E+02 -0.27416532768E+03  0.30290932822E+03  0.12509000000E+03 0.  0.
         25    1    3    3    0    0 -0.57794327075E+02  0.33280200368E+02 -0.36049772121E+03  0.38736787564E+03  0.12509000000E+03 0.  0.
<mgrwt>
<rscale>  2 0.42220929E+03</rscale>
<asrwt>0</asrwt>
<pdfrwt beam="1">  1       21 0.78522496E-02 0.42220929E+03</pdfrwt>
<pdfrwt beam="2">  1       21 0.12273931E+00 0.42220929E+03</pdfrwt>
<totfact> 0.57048672E+04</totfact>
</mgrwt>
</event>
<event>
 7    0  0.4737014E-002  0.4288830E+03  0.7546771E-02  0.1034213E+00
         21   -1    0    0  502  501  0.00000000000E+00  0.00000000000E+00  0.29257632592E+03  0.29257632592E+03  0.00000000000E+00 0. -1.
         21   -1    0    0  501  502 -0.00000000000E+00 -0.00000000000E+00 -0.15717321953E+03  0.15717321953E+03  0.00000000000E+00 0. -1.
      99926    2    1    2    0    0  0.00000000000E+00 -0.35527136788E-14  0.13540310638E+03  0.44974954545E+03  0.42888302883E+03 0.  0.
      99925    2    3    3    0    0 -0.18192406530E+02 -0.10212350200E+02  0.17528816013E+03  0.31680752288E+03  0.26306997495E+03 0.  0.
         25    1    4    4    0    0  0.75643574827E+01  0.31992253593E+02  0.82807384261E+02  0.15357504609E+03  0.12509000000E+03 0.  0.
         25    1    4    4    0    0 -0.25756764013E+02 -0.42204603793E+02  0.92480775871E+02  0.16323247679E+03  0.12509000000E+03 0.  0.
         25    1    3    3    0    0  0.18192406530E+02  0.10212350200E+02 -0.39885053748E+02  0.13294202257E+03  0.12509000000E+03 0.  0.
<mgrwt>
<rscale>  2 0.42888303E+03</rscale>
<asrwt>0</asrwt>
<pdfrwt beam="1">  1       21 0.43025930E-01 0.42888303E+03</pdfrwt>
<pdfrwt beam="2">  1       21 0.23113709E-01 0.42888303E+03</pdfrwt>
<totfact> 0.85327395E+04</totfact>
</mgrwt>
</event>
<event>
 7    0  0.4737014E-002  0.4483320E+03  0.7546771E-02  0.1028221E+00
         21   -1    0    0  502  501  0.00000000000E+00  0.00000000000E+00  0.16297110396E+04  0.16297110396E+04  0.00000000000E+00 0.  1.
         21   -1    0    0  501  502 -0.00000000000E+00 -0.00000000000E+00 -0.30833924044E+02  0.30833924044E+02  0.00000000000E+00 0.  1.
      99926    2    1    2    0    0  0.00000000000E+00 -0.88817841970E-15  0.15988771155E+04  0.16605449636E+04  0.44833195919E+03 0.  0.
      99925    2    3    3    0    0  0.10093469711E+03 -0.17561475547E+01  0.11423473743E+04  0.11765430939E+04  0.26287873852E+03 0.  0.
         25    1    3    3    0    0 -0.10093469711E+03  0.17561475547E+01  0.45652974121E+03  0.48400186967E+03  0.12509000000E+03 0.  0.
         25    1    4    4    0    0  0.74483430318E+02 -0.13632140758E+02  0.73619801794E+03  0.75057887418E+03  0.12509000000E+03 0.  0.
         25    1    4    4    0    0  0.26451266795E+02  0.11875993204E+02  0.40614935636E+03  0.42596421974E+03  0.12509000000E+03 0.  0.
<mgrwt>
<rscale>  2 0.44833196E+03</rscale>
<asrwt>0</asrwt>
<pdfrwt beam="1">  1       21 0.23966333E+00 0.44833196E+03</pdfrwt>
<pdfrwt beam="2">  1       21 0.45344017E-02 0.44833196E+03</pdfrwt>
<totfact> 0.21170629E+04</totfact>
</mgrwt>
</event>
<event>
 7    0  0.4737014E-002  0.4548582E+03  0.7546771E-02  0.1026283E+00
         21   -1    0    0  502  501  0.00000000000E+00  0.00000000000E+00  0.75385791740E+02  0.75385791740E+02  0.00000000000E+00 0. -1.
         21   -1    0    0  501  502 -0.00000000000E+00 -0.00000000000E+00 -0.68612389913E+03  0.68612389913E+03  0.00000000000E+00 0. -1.
      99926    2    1    2    0    0  0.00000000000E+00  0.71054273576E-14 -0.61073810739E+03  0.76150969087E+03  0.45485819051E+03 0.  0.
      99925    2    3    3    0    0 -0.76902218612E+02  0.55743318002E+02 -0.48687578762E+03  0.56148306492E+03  0.26304739287E+03 0.  0.
         25    1    4    4    0    0 -0.44805802267E+02  0.68280339406E+02 -0.27774884903E+03  0.31537548399E+03  0.12509000000E+03 0.  0.
         25    1    4    4    0    0 -0.32096416345E+02 -0.12537021404E+02 -0.20912693859E+03  0.24610758093E+03  0.12509000000E+03 0.  0.
         25    1    3    3    0    0  0.76902218612E+02 -0.55743318002E+02 -0.12386231977E+03  0.20002662595E+03  0.12509000000E+03 0.  0.
<mgrwt>
<rscale>  2 0.45485819E+03</rscale>
<asrwt>0</asrwt>
<pdfrwt beam="1">  1       21 0.11086145E-01 0.45485819E+03</pdfrwt>
<pdfrwt beam="2">  1       21 0.10090058E+00 0.45485819E+03</pdfrwt>
<totfact> 0.49737872E+04</totfact>
</mgrwt>
</event>
<event>
 7    0  0.4737014E-002  0.4511030E+03  0.7546771E-02  0.1027394E+00
         21   -1    0    0  502  501  0.00000000000E+00  0.00000000000E+00  0.26340335032E+03  0.26340335032E+03  0.00000000000E+00 0. -1.
         21   -1    0    0  501  502 -0.00000000000E+00 -0.00000000000E+00 -0.19313904608E+03  0.19313904608E+03  0.00000000000E+00 0. -1.
      99926    2    1    2    0    0  0.00000000000E+00  0.00000000000E+00  0.70264304241E+02  0.45654239639E+03  0.45110296746E+03 0.  0.
      99925    2    3    3    0    0  0.52592227077E+02  0.41296873679E+02 -0.43668539321E+02  0.27460951023E+03  0.26273954339E+03 0.  0.
         25    1    4    4    0    0  0.26366252764E+02 -0.19948870052E+02 -0.20172559556E+02  0.13094875700E+03  0.12509000000E+03 0.  0.
         25    1    4    4    0    0  0.26225974313E+02  0.61245743730E+02 -0.23495979765E+02  0.14366075323E+03  0.12509000000E+03 0.  0.
         25    1    3    3    0    0 -0.52592227077E+02 -0.41296873679E+02  0.11393284356E+03  0.18193288616E+03  0.12509000000E+03 0.  0.
<mgrwt>
<rscale>  2 0.45110297E+03</rscale>
<asrwt>0</asrwt>
<pdfrwt beam="1">  1       21 0.38735787E-01 0.45110297E+03</pdfrwt>
<pdfrwt beam="2">  1       21 0.28402801E-01 0.45110297E+03</pdfrwt>
<totfact> 0.70602002E+04</totfact>
</mgrwt>
</event>
<event>
 7    0  0.4737014E-002  0.4513610E+03  0.7546771E-02  0.1027317E+00
         21   -1    0    0  502  501  0.00000000000E+00  0.00000000000E+00  0.31977662482E+03  0.31977662482E+03  0.00000000000E+00 0. -1.
         21   -1    0    0  501  502 -0.00000000000E+00 -0.00000000000E+00 -0.15927270918E+03  0.15927270918E+03  0.00000000000E+00 0. -1.
      99926    2    1    2    0    0  0.00000000000E+00  0.00000000000E+00  0.16050391564E+03  0.47904933401E+03  0.45136100571E+03 0.  0.
      99925    2    3    3    0    0 -0.25734872459E+02 -0.93114035751E+02  0.46028790638E+02  0.28389665106E+03  0.26295655840E+03 0.  0.
         25    1    3    3    0    0  0.25734872459E+02  0.93114035751E+02  0.11447512500E+03  0.19515268294E+03  0.12509000000E+03 0.  0.
         25    1    4    4    0    0 -0.30553766309E+02 -0.19692631833E+02 -0.41789594661E+01  0.13033151647E+03  0.12509000000E+03 0.  0.
         25    1    4    4    0    0  0.48188938500E+01 -0.73421403918E+02  0.50207750104E+02  0.15356513459E+03  0.12509000000E+03 0.  0.
<mgrwt>
<rscale>  2 0.45136101E+03</rscale>
<asrwt>0</asrwt>
<pdfrwt beam="1">  1       21 0.47025974E-01 0.45136101E+03</pdfrwt>
<pdfrwt beam="2">  1       21 0.23422457E-01 0.45136101E+03</pdfrwt>
<totfact> 0.68733394E+04</totfact>
</mgrwt>
</event>
<event>
 7    0  0.4737014E-002  0.4495648E+03  0.7546771E-02  0.1027852E+00
         21   -1    0    0  502  501  0.00000000000E+00  0.00000000000E+00  0.20640012305E+03  0.20640012305E+03  0.00000000000E+00 0.  1.
         21   -1    0    0  501  502 -0.00000000000E+00 -0.00000000000E+00 -0.24480186580E+03  0.24480186580E+03  0.00000000000E+00 0.  1.
      99926    2    1    2    0    0  0.00000000000E+00  0.00000000000E+00 -0.38401742748E+02  0.45120198885E+03  0.44956483503E+03 0.  0.
      99925    2    3    3    0    0  0.66438206441E+02  0.79096637327E+02 -0.55900460630E+02  0.28803328309E+03  0.26299809383E+03 0.  0.
         25    1    4    4    0    0  0.14395825068E+02  0.59766753156E+02  0.20954356457E+01  0.13939585185E+03  0.12509000000E+03 0.  0.
         25    1    3    3    0    0 -0.66438206441E+02 -0.79096637327E+02  0.17498717882E+02  0.16316870576E+03  0.12509000000E+03 0.  0.
         25    1    4    4    0    0  0.52042381373E+02  0.19329884172E+02 -0.57995896275E+02  0.14863743124E+03  0.12509000000E+03 0.  0.
<mgrwt>
<rscale>  2 0.44956484E+03</rscale>
<asrwt>0</asrwt>
<pdfrwt beam="1">  1       21 0.30352959E-01 0.44956484E+03</pdfrwt>
<pdfrwt beam="2">  1       21 0.36000274E-01 0.44956484E+03</pdfrwt>
<totfact> 0.71892378E+04</totfact>
</mgrwt>
</event>
<event>
 7    0  0.4737014E-002  0.4603160E+03  0.7546771E-02  0.1024690E+00
         21   -1    0    0  502  501  0.00000000000E+00  0.00000000000E+00  0.54962683169E+02  0.54962683169E+02  0.00000000000E+00 0. -1.
         21   -1    0    0  501  502 -0.00000000000E+00 -0.00000000000E+00 -0.96379414886E+03  0.96379414886E+03  0.00000000000E+00 0. -1.
      99926    2    1    2    0    0  0.00000000000E+00 -0.71054273576E-14 -0.90883146569E+03  0.10187568320E+04  0.46031603250E+03 0.  0.
      99925    2    3    3    0    0  0.21038289823E+02 -0.59175471416E+02 -0.35347707106E+03  0.44603494683E+03  0.26468242852E+03 0.  0.
         25    1    4    4    0    0 -0.24818741870E+02 -0.42780024918E+02 -0.14237052819E+03  0.19586468767E+03  0.12509000000E+03 0.  0.
         25    1    3    3    0    0 -0.21038289823E+02  0.59175471416E+02 -0.55535439462E+03  0.57272188520E+03  0.12509000000E+03 0.  0.
         25    1    4    4    0    0  0.45857031692E+02 -0.16395446498E+02 -0.21110654287E+03  0.25017025916E+03  0.12509000000E+03 0.  0.
<mgrwt>
<rscale>  2 0.46031603E+03</rscale>
<asrwt>0</asrwt>
<pdfrwt beam="1">  1       21 0.80827479E-02 0.46031603E+03</pdfrwt>
<pdfrwt beam="2">  1       21 0.14173443E+00 0.46031603E+03</pdfrwt>
<totfact> 0.36889900E+04</totfact>
</mgrwt>
</event>
<event>
 7    0  0.4737014E-002  0.4536041E+03  0.7546771E-02  0.1026653E+00
         21   -1    0    0  502  501  0.00000000000E+00  0.00000000000E+00  0.20509563219E+03  0.20509563219E+03  0.00000000000E+00 0.  1.
         21   -1    0    0  501  502 -0.00000000000E+00 -0.00000000000E+00 -0.25080576527E+03  0.25080576527E+03  0.00000000000E+00 0.  1.
      99926    2    1    2    0    0  0.00000000000E+00  0.00000000000E+00 -0.45710133083E+02  0.45590139746E+03  0.45360408722E+03 0.  0.
      99925    2    3    3    0    0  0.92332276021E+02  0.51680452195E+02  0.74707227720E+01  0.28364626731E+03  0.26306515338E+03 0.  0.
         25    1    3    3    0    0 -0.92332276021E+02 -0.51680452195E+02 -0.53180855855E+02  0.17225513015E+03  0.12509000000E+03 0.  0.
         25    1    4    4    0    0  0.74347356020E+01  0.34099704019E+02  0.17881404682E+02  0.13109278333E+03  0.12509000000E+03 0.  0.
         25    1    4    4    0    0  0.84897540419E+02  0.17580748177E+02 -0.10410681910E+02  0.15255348398E+03  0.12509000000E+03 0.  0.
<mgrwt>
<rscale>  2 0.45360409E+03</rscale>
<asrwt>0</asrwt>
<pdfrwt beam="1">  1       21 0.30161123E-01 0.45360409E+03</pdfrwt>
<pdfrwt beam="2">  1       21 0.36883201E-01 0.45360409E+03</pdfrwt>
<totfact> 0.69247826E+04</totfact>
</mgrwt>
</event>
<event>
 7    0  0.4737014E-002  0.4206396E+03  0.7546771E-02  0.1036858E+00
         21   -1    0    0  502  501  0.00000000000E+00  0.00000000000E+00  0.41101430540E+03  0.41101430540E+03  0.00000000000E+00 0. -1.
         21   -1    0    0  501  502 -0.00000000000E+00 -0.00000000000E+00 -0.10762257069E+03  0.10762257069E+03  0.00000000000E+00 0. -1.
      99926    2    1    2    0    0  0.00000000000E+00  0.00000000000E+00  0.30339173471E+03  0.51863687609E+03  0.42063958985E+03 0.  0.
      99925    2    3    3    0    0 -0.19629230548E+02 -0.25035738475E+02  0.11135146846E+03  0.28725177101E+03  0.26287323091E+03 0.  0.
         25    1    4    4    0    0 -0.46768120064E+02  0.35334905788E+01  0.53453520726E+02  0.14389068624E+03  0.12509000000E+03 0.  0.
         25    1    4    4    0    0  0.27138889516E+02 -0.28569229054E+02  0.57897947736E+02  0.14336108476E+03  0.12509000000E+03 0.  0.
         25    1    3    3    0    0  0.19629230548E+02  0.25035738475E+02  0.19204026625E+03  0.23138510508E+03  0.12509000000E+03 0.  0.
<mgrwt>
<rscale>  2 0.42063959E+03</rscale>
<asrwt>0</asrwt>
<pdfrwt beam="1">  1       21 0.60443280E-01 0.42063959E+03</pdfrwt>
<pdfrwt beam="2">  1       21 0.15826849E-01 0.42063959E+03</pdfrwt>
<totfact> 0.84813605E+04</totfact>
</mgrwt>
</event>
<event>
 7    0  0.4737014E-002  0.4506330E+03  0.7546771E-02  0.1027533E+00
         21   -1    0    0  502  501  0.00000000000E+00  0.00000000000E+00  0.19878844017E+04  0.19878844017E+04  0.00000000000E+00 0. -1.
         21   -1    0    0  501  502 -0.00000000000E+00 -0.00000000000E+00 -0.25538466601E+02  0.25538466601E+02  0.00000000000E+00 0. -1.
      99926    2    1    2    0    0  0.00000000000E+00  0.00000000000E+00  0.19623459351E+04  0.20134228683E+04  0.45063297438E+03 0.  0.
      99925    2    3    3    0    0  0.73744351948E+02  0.80064368527E+02  0.12809768566E+04  0.13121669508E+04  0.26273916183E+03 0.  0.
         25    1    3    3    0    0 -0.73744351948E+02 -0.80064368527E+02  0.68136907854E+03  0.70125591751E+03  0.12509000000E+03 0.  0.
         25    1    4    4    0    0  0.52057618704E+02  0.61156596654E+02  0.83318308267E+03  0.84634016939E+03  0.12509000000E+03 0.  0.
         25    1    4    4    0    0  0.21686733244E+02  0.18907771873E+02  0.44779377392E+03  0.46582678143E+03  0.12509000000E+03 0.  0.
<mgrwt>
<rscale>  2 0.45063297E+03</rscale>
<asrwt>0</asrwt>
<pdfrwt beam="1">  1       21 0.29233584E+00 0.45063297E+03</pdfrwt>
<pdfrwt beam="2">  1       21 0.37556582E-02 0.45063297E+03</pdfrwt>
<totfact> 0.13958965E+04</totfact>
</mgrwt>
</event>
<event>
 7    0  0.4737014E-002  0.4539899E+03  0.7546771E-02  0.1026539E+00
         21   -1    0    0  502  501  0.00000000000E+00  0.00000000000E+00  0.95067525472E+02  0.95067525472E+02  0.00000000000E+00 0. -1.
         21   -1    0    0  501  502 -0.00000000000E+00 -0.00000000000E+00 -0.54200104812E+03  0.54200104812E+03  0.00000000000E+00 0. -1.
      99926    2    1    2    0    0  0.71054273576E-14 -0.14210854715E-13 -0.44693352265E+03  0.63706857360E+03  0.45398986089E+03 0.  0.
      99925    2    3    3    0    0  0.56587360274E+02 -0.90221899591E+02 -0.33124657810E+03  0.43613799417E+03  0.26296375025E+03 0.  0.
         25    1    3    3    0    0 -0.56587360274E+02  0.90221899591E+02 -0.11568694455E+03  0.20093057943E+03  0.12509000000E+03 0.  0.
         25    1    4    4    0    0  0.17876649141E+02 -0.28396077925E+02 -0.10142137916E+03  0.16449837713E+03  0.12509000000E+03 0.  0.
         25    1    4    4    0    0  0.38710711133E+02 -0.61825821666E+02 -0.22982519894E+03  0.27163961704E+03  0.12509000000E+03 0.  0.
<mgrwt>
<rscale>  2 0.45398986E+03</rscale>
<asrwt>0</asrwt>
<pdfrwt beam="1">  1       21 0.13980518E-01 0.45398986E+03</pdfrwt>
<pdfrwt beam="2">  1       21 0.79706036E-01 0.45398986E+03</pdfrwt>
<totfact> 0.56904990E+04</totfact>
</mgrwt>
</event>
<event>
 7    0  0.4737014E-002  0.4455243E+03  0.7546771E-02  0.1029065E+00
         21   -1    0    0  502  501  0.00000000000E+00  0.00000000000E+00  0.60667724009E+03  0.60667724009E+03  0.00000000000E+00 0. -1.
         21   -1    0    0  501  502 -0.00000000000E+00 -0.00000000000E+00 -0.81794695650E+02  0.81794695650E+02  0.00000000000E+00 0. -1.
      99926    2    1    2    0    0  0.00000000000E+00  0.14210854715E-13  0.52488254444E+03  0.68847193574E+03  0.44552432127E+03 0.  0.
      99925    2    3    3    0    0 -0.60862619692E+02 -0.74926793689E+02  0.39285827344E+03  0.48256856248E+03  0.26309031071E+03 0.  0.
         25    1    3    3    0    0  0.60862619692E+02  0.74926793689E+02  0.13202427099E+03  0.20590337326E+03  0.12509000000E+03 0.  0.
         25    1    4    4    0    0 -0.38845538521E+02 -0.76778736620E+02  0.23761041947E+03  0.28197547730E+03  0.12509000000E+03 0.  0.
         25    1    4    4    0    0 -0.22017081171E+02  0.18519429312E+01  0.15524785397E+03  0.20059308517E+03  0.12509000000E+03 0.  0.
<mgrwt>
<rscale>  2 0.44552432E+03</rscale>
<asrwt>0</asrwt>
<pdfrwt beam="1">  1       21 0.89217239E-01 0.44552432E+03</pdfrwt>
<pdfrwt beam="2">  1       21 0.12028632E-01 0.44552432E+03</pdfrwt>
<totfact> 0.57720014E+04</totfact>
</mgrwt>
</event>
<event>
 7    0  0.4737014E-002  0.4539513E+03  0.7546771E-02  0.1026550E+00
         21   -1    0    0  502  501  0.00000000000E+00  0.00000000000E+00  0.26466685481E+03  0.26466685481E+03  0.00000000000E+00 0.  1.
         21   -1    0    0  501  502 -0.00000000000E+00 -0.00000000000E+00 -0.19465201475E+03  0.19465201475E+03  0.00000000000E+00 0.  1.
      99926    2    1    2    0    0 -0.71054273576E-14  0.00000000000E+00  0.70014840061E+02  0.45931886956E+03  0.45395125962E+03 0.  0.
      99925    2    3    3    0    0 -0.42528943638E+02  0.70527262478E+02 -0.32962542524E+02  0.27756448798E+03  0.26300705310E+03 0.  0.
         25    1    4    4    0    0 -0.42445690626E+02  0.36834951018E+02 -0.51924731182E+02  0.14663606677E+03  0.12509000000E+03 0.  0.
         25    1    3    3    0    0  0.42528943638E+02 -0.70527262478E+02  0.10297738259E+03  0.18175438158E+03  0.12509000000E+03 0.  0.
         25    1    4    4    0    0 -0.83253012791E-01  0.33692311460E+02  0.18962188658E+02  0.13092842121E+03  0.12509000000E+03 0.  0.
<mgrwt>
<rscale>  2 0.45395126E+03</rscale>
<asrwt>0</asrwt>
<pdfrwt beam="1">  1       21 0.38921596E-01 0.45395126E+03</pdfrwt>
<pdfrwt beam="2">  1       21 0.28625296E-01 0.45395126E+03</pdfrwt>
<totfact> 0.68803853E+04</totfact>
</mgrwt>
</event>
<event>
 7    0  0.4737014E-002  0.4497207E+03  0.7546771E-02  0.1027805E+00
         21   -1    0    0  502  501  0.00000000000E+00  0.00000000000E+00  0.32896474101E+03  0.32896474101E+03  0.00000000000E+00 0.  1.
         21   -1    0    0  501  502 -0.00000000000E+00 -0.00000000000E+00 -0.15370092988E+03  0.15370092988E+03  0.00000000000E+00 0.  1.
      99926    2    1    2    0    0  0.14210854715E-13 -0.14210854715E-13  0.17526381113E+03  0.48266567088E+03  0.44972074264E+03 0.  0.
      99925    2    3    3    0    0  0.80181070878E+02 -0.67716210932E+02  0.82859523565E+02  0.29504757524E+03  0.26300737948E+03 0.  0.
         25    1    4    4    0    0  0.39761111787E+02 -0.62086137426E+02  0.12239822665E+02  0.14571532462E+03  0.12509000000E+03 0.  0.
         25    1    3    3    0    0 -0.80181070878E+02  0.67716210932E+02  0.92404287568E+02  0.18761809564E+03  0.12509000000E+03 0.  0.
         25    1    4    4    0    0  0.40419959091E+02 -0.56300735056E+01  0.70619700900E+02  0.14933225062E+03  0.12509000000E+03 0.  0.
<mgrwt>
<rscale>  2 0.44972074E+03</rscale>
<asrwt>0</asrwt>
<pdfrwt beam="1">  1       21 0.48377168E-01 0.44972074E+03</pdfrwt>
<pdfrwt beam="2">  1       21 0.22603078E-01 0.44972074E+03</pdfrwt>
<totfact> 0.69368464E+04</totfact>
</mgrwt>
</event>
<event>
 7    0  0.4737014E-002  0.4529929E+03  0.7546771E-02  0.1026833E+00
         21   -1    0    0  502  501  0.00000000000E+00  0.00000000000E+00  0.85790569585E+03  0.85790569585E+03  0.00000000000E+00 0.  1.
         21   -1    0    0  501  502 -0.00000000000E+00 -0.00000000000E+00 -0.59797522544E+02  0.59797522544E+02  0.00000000000E+00 0.  1.
      99926    2    1    2    0    0  0.00000000000E+00  0.00000000000E+00  0.79810817330E+03  0.91770321839E+03  0.45299287053E+03 0.  0.
      99925    2    3    3    0    0 -0.61535283776E+02  0.46799965195E+02  0.34121851434E+03  0.43773186876E+03  0.26306327474E+03 0.  0.
         25    1    3    3    0    0  0.61535283776E+02 -0.46799965195E+02  0.45688965897E+03  0.47997134963E+03  0.12509000000E+03 0.  0.
         25    1    4    4    0    0 -0.11104919683E+02  0.17860028237E+02  0.22071001808E+03  0.25456378382E+03  0.12509000000E+03 0.  0.
         25    1    4    4    0    0 -0.50430364093E+02  0.28939936958E+02  0.12050849625E+03  0.18316808495E+03  0.12509000000E+03 0.  0.
<mgrwt>
<rscale>  2 0.45299287E+03</rscale>
<asrwt>0</asrwt>
<pdfrwt beam="1">  1       21 0.12616259E+00 0.45299287E+03</pdfrwt>
<pdfrwt beam="2">  1       21 0.87937539E-02 0.45299287E+03</pdfrwt>
<totfact> 0.43150651E+04</totfact>
</mgrwt>
</event>
<event>
 7    0  0.4737014E-002  0.4545931E+03  0.7546771E-02  0.1026361E+00
         21   -1    0    0  502  501  0.00000000000E+00  0.00000000000E+00  0.16656718015E+03  0.16656718015E+03  0.00000000000E+00 0. -1.
         21   -1    0    0  501  502 -0.00000000000E+00 -0.00000000000E+00 -0.31016749000E+03  0.31016749000E+03  0.00000000000E+00 0. -1.
      99926    2    1    2    0    0  0.00000000000E+00  0.00000000000E+00 -0.14360030985E+03  0.47673467015E+03  0.45459311118E+03 0.  0.
      99925    2    3    3    0    0  0.26054116547E+02 -0.10289256130E+03 -0.50705360765E+02  0.28820701747E+03  0.26310939769E+03 0.  0.
         25    1    4    4    0    0  0.17010448342E+02 -0.33894531130E+02  0.13335968200E+02  0.13139083203E+03  0.12509000000E+03 0.  0.
         25    1    4    4    0    0  0.90436682051E+01 -0.68998030166E+02 -0.64041328965E+02  0.15681618544E+03  0.12509000000E+03 0.  0.
         25    1    3    3    0    0 -0.26054116547E+02  0.10289256130E+03 -0.92894949083E+02  0.18852765268E+03  0.12509000000E+03 0.  0.
<mgrwt>
<rscale>  2 0.45459311E+03</rscale>
<asrwt>0</asrwt>
<pdfrwt beam="1">  1       21 0.24495174E-01 0.45459311E+03</pdfrwt>
<pdfrwt beam="2">  1       21 0.45612866E-01 0.45459311E+03</pdfrwt>
<totfact> 0.67155168E+04</totfact>
</mgrwt>
</event>
<event>
 7    0  0.4737014E-002  0.4422229E+03  0.7546771E-02  0.1030067E+00
         21   -1    0    0  502  501  0.00000000000E+00  0.00000000000E+00  0.12055552177E+03  0.12055552177E+03  0.00000000000E+00 0. -1.
         21   -1    0    0  501  502 -0.00000000000E+00 -0.00000000000E+00 -0.40554156418E+03  0.40554156418E+03  0.00000000000E+00 0. -1.
      99926    2    1    2    0    0  0.00000000000E+00  0.71054273576E-14 -0.28498604240E+03  0.52609708595E+03  0.44222290701E+03 0.  0.
      99925    2    3    3    0    0 -0.20996770406E+02  0.57375134280E+02 -0.27671725176E+03  0.38663866419E+03  0.26302898856E+03 0.  0.
         25    1    4    4    0    0 -0.13875344769E+02  0.49804111397E+02 -0.93341231558E+02  0.16441736013E+03  0.12509000000E+03 0.  0.
         25    1    3    3    0    0  0.20996770406E+02 -0.57375134280E+02 -0.82687906387E+01  0.13945842176E+03  0.12509000000E+03 0.  0.
         25    1    4    4    0    0 -0.71214256372E+01  0.75710228836E+01 -0.18337602021E+03  0.22222130406E+03  0.12509000000E+03 0.  0.
<mgrwt>
<rscale>  2 0.44222291E+03</rscale>
<asrwt>0</asrwt>
<pdfrwt beam="1">  1       21 0.17728753E-01 0.44222291E+03</pdfrwt>
<pdfrwt beam="2">  1       21 0.59638465E-01 0.44222291E+03</pdfrwt>
<totfact> 0.70321950E+04</totfact>
</mgrwt>
</event>
<event>
 7    0  0.4737014E-002  0.4558660E+03  0.7546771E-02  0.1025987E+00
         21   -1    0    0  502  501  0.00000000000E+00  0.00000000000E+00  0.22208785573E+04  0.22208785573E+04  0.00000000000E+00 0. -1.
         21   -1    0    0  501  502 -0.00000000000E+00 -0.00000000000E+00 -0.23393196974E+02  0.23393196974E+02  0.00000000000E+00 0. -1.
      99926    2    1    2    0    0 -0.14210854715E-13  0.00000000000E+00  0.21974853603E+04  0.22442717542E+04  0.45586598709E+03 0.  0.
      99925    2    3    3    0    0 -0.68839753289E+02 -0.87967084114E+02  0.12700010544E+04  0.13017476085E+04  0.26299627097E+03 0.  0.
         25    1    4    4    0    0  0.42159820676E+01 -0.33506538994E+02  0.64353496000E+03  0.65644894356E+03  0.12509000000E+03 0.  0.
         25    1    4    4    0    0 -0.73055735357E+02 -0.54460545120E+02  0.62646609436E+03  0.64529866491E+03  0.12509000000E+03 0.  0.
         25    1    3    3    0    0  0.68839753289E+02  0.87967084114E+02  0.92748430592E+03  0.94252414577E+03  0.12509000000E+03 0.  0.
<mgrwt>
<rscale>  2 0.45586599E+03</rscale>
<asrwt>0</asrwt>
<pdfrwt beam="1">  1       21 0.32659964E+00 0.45586599E+03</pdfrwt>
<pdfrwt beam="2">  1       21 0.34401776E-02 0.45586599E+03</pdfrwt>
<totfact> 0.10048086E+04</totfact>
</mgrwt>
</event>
<event>
 7    0  0.4737014E-002  0.4512171E+03  0.7546771E-02  0.1027360E+00
         21   -1    0    0  502  501  0.00000000000E+00  0.00000000000E+00  0.48335508483E+03  0.48335508483E+03  0.00000000000E+00 0.  1.
         21   -1    0    0  501  502 -0.00000000000E+00 -0.00000000000E+00 -0.10530397456E+03  0.10530397456E+03  0.00000000000E+00 0.  1.
      99926    2    1    2    0    0  0.88817841970E-15  0.00000000000E+00  0.37805111027E+03  0.58865905939E+03  0.45121707218E+03 0.  0.
      99925    2    3    3    0    0 -0.50701668875E+01 -0.10655751404E+03  0.20616340290E+03  0.35080805049E+03  0.26302609985E+03 0.  0.
         25    1    4    4    0    0  0.20583379491E+02 -0.71866528978E+02  0.14305456551E+03  0.20420722395E+03  0.12509000000E+03 0.  0.
         25    1    4    4    0    0 -0.25653546379E+02 -0.34690985063E+02  0.63108837388E+02  0.14660082654E+03  0.12509000000E+03 0.  0.
         25    1    3    3    0    0  0.50701668875E+01  0.10655751404E+03  0.17188770736E+03  0.23785100890E+03  0.12509000000E+03 0.  0.
<mgrwt>
<rscale>  2 0.45121707E+03</rscale>
<asrwt>0</asrwt>
<pdfrwt beam="1">  1       21 0.71081629E-01 0.45121707E+03</pdfrwt>
<pdfrwt beam="2">  1       21 0.15485879E-01 0.45121707E+03</pdfrwt>
<totfact> 0.61190952E+04</totfact>
</mgrwt>
</event>
<event>
 6    0  0.4737014E-002  0.4560656E+03  0.7546771E-02  0.1025929E+00
         21   -1    0    0  502  501  0.00000000000E+00  0.00000000000E+00  0.19949907943E+03  0.19949907943E+03  0.00000000000E+00 0.  1.
         21   -1    0    0  501  502 -0.00000000000E+00 -0.00000000000E+00 -0.26064756072E+03  0.26064756072E+03  0.00000000000E+00 0.  1.
      99926    2    1    2    0    0  0.00000000000E+00  0.00000000000E+00 -0.61148481285E+02  0.46014664015E+03  0.45606555853E+03 0.  0.
         25    1    3    3    0    0  0.26023750121E+02  0.22469720321E+01 -0.16042699602E+02  0.12879115173E+03  0.12509000000E+03 0.  0.
         25    1    3    3    0    0 -0.71228453898E+02  0.47874629273E+02  0.50695054744E+02  0.15994677067E+03  0.12509000000E+03 0.  0.
         25    1    3    3    0    0  0.45204703777E+02 -0.50121601305E+02 -0.95800836428E+02  0.17140871775E+03  0.12509000000E+03 0.  0.
<mgrwt>
<rscale>  2 0.45606556E+03</rscale>
<asrwt>0</asrwt>
<pdfrwt beam="1">  1       21 0.29338100E-01 0.45606556E+03</pdfrwt>
<pdfrwt beam="2">  1       21 0.38330524E-01 0.45606556E+03</pdfrwt>
<totfact> 0.67593665E+04</totfact>
</mgrwt>
</event>
<event>
 7    0  0.4737014E-002  0.4553419E+03  0.7546771E-02  0.1026141E+00
         21   -1    0    0  502  501  0.00000000000E+00  0.00000000000E+00  0.24588693596E+03  0.24588693596E+03  0.00000000000E+00 0. -1.
         21   -1    0    0  501  502 -0.00000000000E+00 -0.00000000000E+00 -0.21080443861E+03  0.21080443861E+03  0.00000000000E+00 0. -1.
      99926    2    1    2    0    0  0.00000000000E+00  0.71054273576E-14  0.35082497347E+02  0.45669137457E+03  0.45534188253E+03 0.  0.
      99925    2    3    3    0    0  0.74258550184E+02  0.61506203092E+02  0.81892381817E+02  0.29196123562E+03  0.26313049160E+03 0.  0.
         25    1    4    4    0    0  0.37036075776E+02  0.31848787566E+02 -0.14473131665E+01  0.13429675720E+03  0.12509000000E+03 0.  0.
         25    1    4    4    0    0  0.37222474408E+02  0.29657415526E+02  0.83339694984E+02  0.15766447842E+03  0.12509000000E+03 0.  0.
         25    1    3    3    0    0 -0.74258550184E+02 -0.61506203092E+02 -0.46809884470E+02  0.16473013895E+03  0.12509000000E+03 0.  0.
<mgrwt>
<rscale>  2 0.45534188E+03</rscale>
<asrwt>0</asrwt>
<pdfrwt beam="1">  1       21 0.36159844E-01 0.45534188E+03</pdfrwt>
<pdfrwt beam="2">  1       21 0.31000652E-01 0.45534188E+03</pdfrwt>
<totfact> 0.68235773E+04</totfact>
</mgrwt>
</event>
<event>
 7    0  0.4737014E-002  0.4508141E+03  0.7546771E-02  0.1027480E+00
         21   -1    0    0  502  501  0.00000000000E+00  0.00000000000E+00  0.17725798101E+03  0.17725798101E+03  0.00000000000E+00 0.  1.
         21   -1    0    0  501  502 -0.00000000000E+00 -0.00000000000E+00 -0.28663496156E+03  0.28663496156E+03  0.00000000000E+00 0.  1.
      99926    2    1    2    0    0  0.17763568394E-14  0.00000000000E+00 -0.10937698056E+03  0.46389294257E+03  0.45081408395E+03 0.  0.
      99925    2    3    3    0    0 -0.13758051479E+02 -0.95817159410E+02 -0.12122527962E+03  0.30527988413E+03  0.26292589682E+03 0.  0.
         25    1    4    4    0    0 -0.26962507171E+02 -0.46970125618E+02 -0.22668253687E+02  0.13818294873E+03  0.12509000000E+03 0.  0.
         25    1    4    4    0    0  0.13204455693E+02 -0.48847033792E+02 -0.98557025931E+02  0.16709693540E+03  0.12509000000E+03 0.  0.
         25    1    3    3    0    0  0.13758051479E+02  0.95817159410E+02  0.11848299062E+02  0.15861305844E+03  0.12509000000E+03 0.  0.
<mgrwt>
<rscale>  2 0.45081408E+03</rscale>
<asrwt>0</asrwt>
<pdfrwt beam="1">  1       21 0.26067350E-01 0.45081408E+03</pdfrwt>
<pdfrwt beam="2">  1       21 0.42152200E-01 0.45081408E+03</pdfrwt>
<totfact> 0.70194726E+04</totfact>
</mgrwt>
</event>
<event>
 7    0  0.4737014E-002  0.4545387E+03  0.7546771E-02  0.1026377E+00
         21   -1    0    0  502  501  0.00000000000E+00  0.00000000000E+00  0.17436216133E+03  0.17436216133E+03  0.00000000000E+00 0.  1.
         21   -1    0    0  501  502 -0.00000000000E+00 -0.00000000000E+00 -0.29623026844E+03  0.29623026844E+03  0.00000000000E+00 0.  1.
      99926    2    1    2    0    0  0.00000000000E+00  0.00000000000E+00 -0.12186810711E+03  0.47059242977E+03  0.45453866659E+03 0.  0.
      99925    2    3    3    0    0  0.10705630124E+03 -0.19831333594E+02 -0.46344838752E+02  0.28836837649E+03  0.26297175334E+03 0.  0.
         25    1    4    4    0    0  0.28648780339E+02 -0.42408310011E+02 -0.17889445561E+02  0.13633325983E+03  0.12509000000E+03 0.  0.
         25    1    4    4    0    0  0.78407520901E+02  0.22576976417E+02 -0.28455393191E+02  0.15203511667E+03  0.12509000000E+03 0.  0.
         25    1    3    3    0    0 -0.10705630124E+03  0.19831333594E+02 -0.75523268360E+02  0.18222405327E+03  0.12509000000E+03 0.  0.
<mgrwt>
<rscale>  2 0.45453867E+03</rscale>
<asrwt>0</asrwt>
<pdfrwt beam="1">  1       21 0.25641495E-01 0.45453867E+03</pdfrwt>
<pdfrwt beam="2">  1       21 0.43563274E-01 0.45453867E+03</pdfrwt>
<totfact> 0.67638889E+04</totfact>
</mgrwt>
</event>
<event>
 7    0  0.4737014E-002  0.4445010E+03  0.7546771E-02  0.1029375E+00
         21   -1    0    0  502  501  0.00000000000E+00  0.00000000000E+00  0.29255019245E+03  0.29255019245E+03  0.00000000000E+00 0.  1.
         21   -1    0    0  501  502 -0.00000000000E+00 -0.00000000000E+00 -0.16884379429E+03  0.16884379429E+03  0.00000000000E+00 0.  1.
      99926    2    1    2    0    0 -0.35527136788E-14  0.00000000000E+00  0.12370639815E+03  0.46139398674E+03  0.44450099894E+03 0.  0.
      99925    2    3    3    0    0 -0.20969723093E+02 -0.84893823208E+02  0.13501449372E+03  0.30835127495E+03  0.26306825112E+03 0.  0.
         25    1    4    4    0    0 -0.93993116845E+01 -0.70759188898E+02  0.37866096769E+02  0.14891796150E+03  0.12509000000E+03 0.  0.
         25    1    4    4    0    0 -0.11570411408E+02 -0.14134634310E+02  0.97148396954E+02  0.15943331345E+03  0.12509000000E+03 0.  0.
         25    1    3    3    0    0  0.20969723093E+02  0.84893823208E+02 -0.11308095573E+02  0.15304271179E+03  0.12509000000E+03 0.  0.
<mgrwt>
<rscale>  2 0.44450100E+03</rscale>
<asrwt>0</asrwt>
<pdfrwt beam="1">  1       21 0.43022087E-01 0.44450100E+03</pdfrwt>
<pdfrwt beam="2">  1       21 0.24829970E-01 0.44450100E+03</pdfrwt>
<totfact> 0.74059876E+04</totfact>
</mgrwt>
</event>
<event>
 7    0  0.4737014E-002  0.4548500E+03  0.7546771E-02  0.1026286E+00
         21   -1    0    0  502  501  0.00000000000E+00  0.00000000000E+00  0.98008665750E+02  0.98008665750E+02  0.00000000000E+00 0. -1.
         21   -1    0    0  501  502 -0.00000000000E+00 -0.00000000000E+00 -0.52773017214E+03  0.52773017214E+03  0.00000000000E+00 0. -1.
      99926    2    1    2    0    0  0.00000000000E+00  0.00000000000E+00 -0.42972150639E+03  0.62573883789E+03  0.45484999746E+03 0.  0.
      99925    2    3    3    0    0  0.42546068210E+02  0.45887445445E+02 -0.40010147825E+03  0.48276793268E+03  0.26280764517E+03 0.  0.
         25    1    3    3    0    0 -0.42546068210E+02 -0.45887445445E+02 -0.29620028143E+02  0.14297090521E+03  0.12509000000E+03 0.  0.
         25    1    4    4    0    0 -0.21439306113E+01 -0.66175493662E+01 -0.21668310553E+03  0.25029475568E+03  0.12509000000E+03 0.  0.
         25    1    4    4    0    0  0.44689998822E+02  0.52504994811E+02 -0.18341837272E+03  0.23247317700E+03  0.12509000000E+03 0.  0.
<mgrwt>
<rscale>  2 0.45485000E+03</rscale>
<asrwt>0</asrwt>
<pdfrwt beam="1">  1       21 0.14413039E-01 0.45485000E+03</pdfrwt>
<pdfrwt beam="2">  1       21 0.77607378E-01 0.45485000E+03</pdfrwt>
<totfact> 0.57188996E+04</totfact>
</mgrwt>
</event>
<event>
 7    0  0.4737014E-002  0.4547104E+03  0.7546771E-02  0.1026327E+00
         21   -1    0    0  502  501  0.00000000000E+00  0.00000000000E+00  0.32916602812E+03  0.32916602812E+03  0.00000000000E+00 0.  1.
         21   -1    0    0  501  502 -0.00000000000E+00 -0.00000000000E+00 -0.15703441512E+03  0.15703441512E+03  0.00000000000E+00 0.  1.
      99926    2    1    2    0    0  0.00000000000E+00  0.00000000000E+00  0.17213161299E+03  0.48620044324E+03  0.45471043403E+03 0.  0.
      99925    2    3    3    0    0 -0.68787447610E+02  0.69947922078E+02  0.49323271323E+02  0.28531783664E+03  0.26334209322E+03 0.  0.
         25    1    4    4    0    0 -0.52745773197E+02  0.59734211378E+02 -0.31281443851E+01  0.14834953989E+03  0.12509000000E+03 0.  0.
         25    1    4    4    0    0 -0.16041674413E+02  0.10213710699E+02  0.52451415708E+02  0.13696829675E+03  0.12509000000E+03 0.  0.
         25    1    3    3    0    0  0.68787447610E+02 -0.69947922078E+02  0.12280834167E+03  0.20088260660E+03  0.12509000000E+03 0.  0.
<mgrwt>
<rscale>  2 0.45471043E+03</rscale>
<asrwt>0</asrwt>
<pdfrwt beam="1">  1       21 0.48406769E-01 0.45471043E+03</pdfrwt>
<pdfrwt beam="2">  1       21 0.23093296E-01 0.45471043E+03</pdfrwt>
<totfact> 0.66403964E+04</totfact>
</mgrwt>
</event>
<event>
 7    0  0.4737014E-002  0.4577822E+03  0.7546771E-02  0.1025426E+00
         21   -1    0    0  502  501  0.00000000000E+00  0.00000000000E+00  0.24792064023E+03  0.24792064023E+03  0.00000000000E+00 0. -1.
         21   -1    0    0  501  502 -0.00000000000E+00 -0.00000000000E+00 -0.21132217859E+03  0.21132217859E+03  0.00000000000E+00 0. -1.
      99926    2    1    2    0    0 -0.14210854715E-13  0.00000000000E+00  0.36598461641E+02  0.45924281882E+03  0.45778217445E+03 0.  0.
      99925    2    3    3    0    0  0.10588889954E+03 -0.44384932389E+02  0.39448017680E+02  0.28942494774E+03  0.26273213166E+03 0.  0.
         25    1    4    4    0    0  0.19138122718E+02 -0.41926619612E+02  0.31438186297E+02  0.13696706477E+03  0.12509000000E+03 0.  0.
         25    1    4    4    0    0  0.86750776822E+02 -0.24583127763E+01  0.80098313830E+01  0.15245788297E+03  0.12509000000E+03 0.  0.
         25    1    3    3    0    0 -0.10588889954E+03  0.44384932389E+02 -0.28495560390E+01  0.16981787108E+03  0.12509000000E+03 0.  0.
<mgrwt>
<rscale>  2 0.45778217E+03</rscale>
<asrwt>0</asrwt>
<pdfrwt beam="1">  1       21 0.36458918E-01 0.45778217E+03</pdfrwt>
<pdfrwt beam="2">  1       21 0.31076791E-01 0.45778217E+03</pdfrwt>
<totfact> 0.66742207E+04</totfact>
</mgrwt>
</event>
<event>
 7    0  0.4737014E-002  0.4594704E+03  0.7546771E-02  0.1024935E+00
         21   -1    0    0  502  501  0.00000000000E+00  0.00000000000E+00  0.39199639105E+02  0.39199639105E+02  0.00000000000E+00 0. -1.
         21   -1    0    0  501  502 -0.00000000000E+00 -0.00000000000E+00 -0.13463963459E+04  0.13463963459E+04  0.00000000000E+00 0. -1.
      99926    2    1    2    0    0  0.35527136788E-14  0.14210854715E-13 -0.13071967067E+04  0.13855959850E+04  0.45947035095E+03 0.  0.
      99925    2    3    3    0    0 -0.25881862155E+02 -0.10847801611E+03 -0.70868789935E+03  0.76406750500E+03  0.26291303266E+03 0.  0.
         25    1    3    3    0    0  0.25881862155E+02  0.10847801611E+03 -0.59850880739E+03  0.62152847995E+03  0.12509000000E+03 0.  0.
         25    1    4    4    0    0  0.21724026647E+02 -0.35794402201E+02 -0.36646709218E+03  0.38948531463E+03  0.12509000000E+03 0.  0.
         25    1    4    4    0    0 -0.47605888802E+02 -0.72683613911E+02 -0.34222080717E+03  0.37458219037E+03  0.12509000000E+03 0.  0.
<mgrwt>
<rscale>  2 0.45947035E+03</rscale>
<asrwt>0</asrwt>
<pdfrwt beam="1">  1       21 0.57646517E-02 0.45947035E+03</pdfrwt>
<pdfrwt beam="2">  1       21 0.19799950E+00 0.45947035E+03</pdfrwt>
<totfact> 0.25809968E+04</totfact>
</mgrwt>
</event>
<event>
 7    0  0.4737014E-002  0.4534613E+03  0.7546771E-02  0.1026695E+00
         21   -1    0    0  502  501  0.00000000000E+00  0.00000000000E+00  0.44509543264E+03  0.44509543264E+03  0.00000000000E+00 0.  1.
         21   -1    0    0  501  502 -0.00000000000E+00 -0.00000000000E+00 -0.11549611708E+03  0.11549611708E+03  0.00000000000E+00 0.  1.
      99926    2    1    2    0    0  0.00000000000E+00  0.35527136788E-14  0.32959931556E+03  0.56059154973E+03  0.45346132890E+03 0.  0.
      99925    2    3    3    0    0  0.96728684337E+02  0.20049664780E+02  0.27219654079E+03  0.39117781332E+03  0.26300322695E+03 0.  0.
         25    1    4    4    0    0  0.77459868993E+02  0.35357142542E+02  0.12357066551E+03  0.19536472637E+03  0.12509000000E+03 0.  0.
         25    1    4    4    0    0  0.19268815344E+02 -0.15307477762E+02  0.14862587528E+03  0.19581308695E+03  0.12509000000E+03 0.  0.
         25    1    3    3    0    0 -0.96728684337E+02 -0.20049664780E+02  0.57402774767E+02  0.16941373640E+03  0.12509000000E+03 0.  0.
<mgrwt>
<rscale>  2 0.45346133E+03</rscale>
<asrwt>0</asrwt>
<pdfrwt beam="1">  1       21 0.65455210E-01 0.45346133E+03</pdfrwt>
<pdfrwt beam="2">  1       21 0.16984723E-01 0.45346133E+03</pdfrwt>
<totfact> 0.61922182E+04</totfact>
</mgrwt>
</event>
<event>
 7    0  0.4737014E-002  0.4571497E+03  0.7546771E-02  0.1025611E+00
         21   -1    0    0  502  501  0.00000000000E+00  0.00000000000E+00  0.58590142590E+02  0.58590142590E+02  0.00000000000E+00 0. -1.
         21   -1    0    0  501  502 -0.00000000000E+00 -0.00000000000E+00 -0.89172796492E+03  0.89172796492E+03  0.00000000000E+00 0. -1.
      99926    2    1    2    0    0 -0.35527136788E-14  0.14210854715E-13 -0.83313782233E+03  0.95031810751E+03  0.45714972872E+03 0.  0.
      99925    2    3    3    0    0 -0.11684398285E+02  0.67005620804E+02 -0.71671990235E+03  0.76639715010E+03  0.26277536961E+03 0.  0.
         25    1    4    4    0    0 -0.32139013329E+02  0.61447762104E+02 -0.42021258884E+03  0.44388610202E+03  0.12509000000E+03 0.  0.
         25    1    4    4    0    0  0.20454615044E+02  0.55578586991E+01 -0.29650731351E+03  0.32251104808E+03  0.12509000000E+03 0.  0.
         25    1    3    3    0    0  0.11684398285E+02 -0.67005620804E+02 -0.11641791999E+03  0.18392095741E+03  0.12509000000E+03 0.  0.
<mgrwt>
<rscale>  2 0.45714973E+03</rscale>
<asrwt>0</asrwt>
<pdfrwt beam="1">  1       21 0.86161980E-02 0.45714973E+03</pdfrwt>
<pdfrwt beam="2">  1       21 0.13113646E+00 0.45714973E+03</pdfrwt>
<totfact> 0.40443762E+04</totfact>
</mgrwt>
</event>
<event>
 7    0  0.4737014E-002  0.4380243E+03  0.7546771E-02  0.1031355E+00
         21   -1    0    0  502  501  0.00000000000E+00  0.00000000000E+00  0.77701282359E+03  0.77701282359E+03  0.00000000000E+00 0. -1.
         21   -1    0    0  501  502 -0.00000000000E+00 -0.00000000000E+00 -0.61731701069E+02  0.61731701069E+02  0.00000000000E+00 0. -1.
      99926    2    1    2    0    0  0.00000000000E+00  0.00000000000E+00  0.71528112253E+03  0.83874452466E+03  0.43802430687E+03 0.  0.
      99925    2    3    3    0    0 -0.57334380034E+02 -0.66321626597E+02  0.38082722860E+03  0.47105891908E+03  0.26302345507E+03 0.  0.
         25    1    4    4    0    0  0.17390492144E+01 -0.43519711994E+02  0.22784278101E+03  0.26354663834E+03  0.12509000000E+03 0.  0.
         25    1    3    3    0    0  0.57334380034E+02  0.66321626597E+02  0.33445389393E+03  0.36768560558E+03  0.12509000000E+03 0.  0.
         25    1    4    4    0    0 -0.59073429248E+02 -0.22801914603E+02  0.15298444759E+03  0.20751228074E+03  0.12509000000E+03 0.  0.
<mgrwt>
<rscale>  2 0.43802431E+03</rscale>
<asrwt>0</asrwt>
<pdfrwt beam="1">  1       21 0.11426659E+00 0.43802431E+03</pdfrwt>
<pdfrwt beam="2">  1       21 0.90781918E-02 0.43802431E+03</pdfrwt>
<totfact> 0.52611674E+04</totfact>
</mgrwt>
</event>
<event>
 7    0  0.4737014E-002  0.4589334E+03  0.7546771E-02  0.1025091E+00
         21   -1    0    0  502  501  0.00000000000E+00  0.00000000000E+00  0.43434310799E+03  0.43434310799E+03  0.00000000000E+00 0. -1.
         21   -1    0    0  501  502 -0.00000000000E+00 -0.00000000000E+00 -0.12122895346E+03  0.12122895346E+03  0.00000000000E+00 0. -1.
      99926    2    1    2    0    0  0.14210854715E-13  0.00000000000E+00  0.31311415453E+03  0.55557206146E+03  0.45893337393E+03 0.  0.
      99925    2    3    3    0    0  0.90931106473E+02  0.30452766811E+02  0.27726360681E+03  0.39392860504E+03  0.26288552846E+03 0.  0.
         25    1    4    4    0    0  0.55613186201E+02 -0.23441031925E+00  0.19079896874E+03  0.23482895052E+03  0.12509000000E+03 0.  0.
         25    1    4    4    0    0  0.35317920272E+02  0.30687177130E+02  0.86464638067E+02  0.15909965452E+03  0.12509000000E+03 0.  0.
         25    1    3    3    0    0 -0.90931106473E+02 -0.30452766811E+02  0.35850547719E+02  0.16164345642E+03  0.12509000000E+03 0.  0.
<mgrwt>
<rscale>  2 0.45893337E+03</rscale>
<asrwt>0</asrwt>
<pdfrwt beam="1">  1       21 0.63873986E-01 0.45893337E+03</pdfrwt>
<pdfrwt beam="2">  1       21 0.17827787E-01 0.45893337E+03</pdfrwt>
<totfact> 0.59622786E+04</totfact>
</mgrwt>
</event>
<event>
 7    0  0.4737014E-002  0.4533919E+03  0.7546771E-02  0.1026715E+00
         21   -1    0    0  502  501  0.00000000000E+00  0.00000000000E+00  0.46618082264E+03  0.46618082264E+03  0.00000000000E+00 0. -1.
         21   -1    0    0  501  502 -0.00000000000E+00 -0.00000000000E+00 -0.11023843330E+03  0.11023843330E+03  0.00000000000E+00 0. -1.
      99926    2    1    2    0    0  0.00000000000E+00  0.71054273576E-14  0.35594238935E+03  0.57641925594E+03  0.45339185489E+03 0.  0.
      99925    2    3    3    0    0  0.81390541396E+02  0.48684228691E+02  0.29930581769E+03  0.40953671131E+03  0.26294822886E+03 0.  0.
         25    1    3    3    0    0 -0.81390541396E+02 -0.48684228691E+02  0.56636571656E+02  0.16688254463E+03  0.12509000000E+03 0.  0.
         25    1    4    4    0    0  0.39452138253E+02  0.49340488465E+02  0.10696623257E+03  0.17629588204E+03  0.12509000000E+03 0.  0.
         25    1    4    4    0    0  0.41938403143E+02 -0.65625977375E+00  0.19233958512E+03  0.23324082927E+03  0.12509000000E+03 0.  0.
<mgrwt>
<rscale>  2 0.45339185E+03</rscale>
<asrwt>0</asrwt>
<pdfrwt beam="1">  1       21 0.68556002E-01 0.45339185E+03</pdfrwt>
<pdfrwt beam="2">  1       21 0.16211535E-01 0.45339185E+03</pdfrwt>
<totfact> 0.60924670E+04</totfact>
</mgrwt>
</event>
<event>
 7    0  0.4737014E-002  0.4401777E+03  0.7546771E-02  0.1030692E+00
         21   -1    0    0  502  501  0.00000000000E+00  0.00000000000E+00  0.35078526768E+02  0.35078526768E+02  0.00000000000E+00 0.  1.
         21   -1    0    0  501  502 -0.00000000000E+00 -0.00000000000E+00 -0.13808764361E+04  0.13808764361E+04  0.00000000000E+00 0.  1.
      99926    2    1    2    0    0  0.14210854715E-13  0.00000000000E+00 -0.13457979094E+04  0.14159549629E+04  0.44017774150E+03 0.  0.
      99925    2    3    3    0    0  0.97122425051E+02  0.11318994294E+02 -0.81605222968E+03  0.86292794881E+03  0.26294964951E+03 0.  0.
         25    1    4    4    0    0  0.75873315753E+02  0.35383247067E+02 -0.40501747910E+03  0.43208263179E+03  0.12509000000E+03 0.  0.
         25    1    4    4    0    0  0.21249109297E+02 -0.24064252773E+02 -0.41103475058E+03  0.43084531702E+03  0.12509000000E+03 0.  0.
         25    1    3    3    0    0 -0.97122425051E+02 -0.11318994294E+02 -0.52974567969E+03  0.55302701410E+03  0.12509000000E+03 0.  0.
<mgrwt>
<rscale>  2 0.44017774E+03</rscale>
<asrwt>0</asrwt>
<pdfrwt beam="1">  1       21 0.51586078E-02 0.44017774E+03</pdfrwt>
<pdfrwt beam="2">  1       21 0.20307003E+00 0.44017774E+03</pdfrwt>
<totfact> 0.29122654E+04</totfact>
</mgrwt>
</event>
<event>
 7    0  0.4737014E-002  0.4370942E+03  0.7546771E-02  0.1031642E+00
         21   -1    0    0  502  501  0.00000000000E+00  0.00000000000E+00  0.15355428028E+03  0.15355428028E+03  0.00000000000E+00 0.  1.
         21   -1    0    0  501  502 -0.00000000000E+00 -0.00000000000E+00 -0.31104859374E+03  0.31104859374E+03  0.00000000000E+00 0.  1.
      99926    2    1    2    0    0  0.00000000000E+00 -0.44408920985E-15 -0.15749431345E+03  0.46460287402E+03  0.43709423673E+03 0.  0.
      99925    2    3    3    0    0  0.70870005549E+02  0.95935595500E+00 -0.16899467945E+03  0.32036957493E+03  0.26278124896E+03 0.  0.
         25    1    3    3    0    0 -0.70870005549E+02 -0.95935595500E+00  0.11500365998E+02  0.14423329910E+03  0.12509000000E+03 0.  0.
         25    1    4    4    0    0  0.18300529445E+02 -0.28197957699E+02 -0.54801750151E+02  0.14064414000E+03  0.12509000000E+03 0.  0.
         25    1    4    4    0    0  0.52569476104E+02  0.29157313654E+02 -0.11419292930E+03  0.17972543493E+03  0.12509000000E+03 0.  0.
<mgrwt>
<rscale>  2 0.43709424E+03</rscale>
<asrwt>0</asrwt>
<pdfrwt beam="1">  1       21 0.22581512E-01 0.43709424E+03</pdfrwt>
<pdfrwt beam="2">  1       21 0.45742440E-01 0.43709424E+03</pdfrwt>
<totfact> 0.78401121E+04</totfact>
</mgrwt>
</event>
<event>
 7    0  0.4737014E-002  0.4521977E+03  0.7546771E-02  0.1027069E+00
         21   -1    0    0  502  501  0.00000000000E+00  0.00000000000E+00  0.33858110046E+03  0.33858110046E+03  0.00000000000E+00 0.  1.
         21   -1    0    0  501  502 -0.00000000000E+00 -0.00000000000E+00 -0.15098505401E+03  0.15098505401E+03  0.00000000000E+00 0.  1.
      99926    2    1    2    0    0  0.00000000000E+00  0.35527136788E-14  0.18759604645E+03  0.48956615446E+03  0.45219768128E+03 0.  0.
      99925    2    3    3    0    0  0.91555826324E+02 -0.38528954468E+01  0.18507988427E+03  0.33448181190E+03  0.26310873188E+03 0.  0.
         25    1    4    4    0    0  0.32884407742E+02 -0.39289367626E+02  0.77439836057E+02  0.15578663290E+03  0.12509000000E+03 0.  0.
         25    1    3    3    0    0 -0.91555826324E+02  0.38528954468E+01  0.25161621823E+01  0.15508434257E+03  0.12509000000E+03 0.  0.
         25    1    4    4    0    0  0.58671418582E+02  0.35436472180E+02  0.10764004821E+03  0.17869517900E+03  0.12509000000E+03 0.  0.
<mgrwt>
<rscale>  2 0.45219768E+03</rscale>
<asrwt>0</asrwt>
<pdfrwt beam="1">  1       21 0.49791338E-01 0.45219768E+03</pdfrwt>
<pdfrwt beam="2">  1       21 0.22203685E-01 0.45219768E+03</pdfrwt>
<totfact> 0.67499254E+04</totfact>
</mgrwt>
</event>
<event>
 7    0  0.4737014E-002  0.4515806E+03  0.7546771E-02  0.1027252E+00
         21   -1    0    0  502  501  0.00000000000E+00  0.00000000000E+00  0.19227456682E+03  0.19227456682E+03  0.00000000000E+00 0.  1.
         21   -1    0    0  501  502 -0.00000000000E+00 -0.00000000000E+00 -0.26514826276E+03  0.26514826276E+03  0.00000000000E+00 0.  1.
      99926    2    1    2    0    0  0.00000000000E+00  0.00000000000E+00 -0.72873695936E+02  0.45742282958E+03  0.45158063450E+03 0.  0.
      99925    2    3    3    0    0  0.10966637617E+03  0.67678934062E+01 -0.49399492207E+02  0.28928281416E+03  0.26300516782E+03 0.  0.
         25    1    4    4    0    0  0.32810252139E+02  0.15747989920E+02  0.99853368873E+01  0.13065881863E+03  0.12509000000E+03 0.  0.
         25    1    4    4    0    0  0.76856124027E+02 -0.89800965141E+01 -0.59384829095E+02  0.15862399554E+03  0.12509000000E+03 0.  0.
         25    1    3    3    0    0 -0.10966637617E+03 -0.67678934062E+01 -0.23474203729E+02  0.16814001541E+03  0.12509000000E+03 0.  0.
<mgrwt>
<rscale>  2 0.45158063E+03</rscale>
<asrwt>0</asrwt>
<pdfrwt beam="1">  1       21 0.28275672E-01 0.45158063E+03</pdfrwt>
<pdfrwt beam="2">  1       21 0.38992391E-01 0.45158063E+03</pdfrwt>
<totfact> 0.70265271E+04</totfact>
</mgrwt>
</event>
<event>
 7    0  0.4737014E-002  0.4554964E+03  0.7546771E-02  0.1026096E+00
         21   -1    0    0  502  501  0.00000000000E+00  0.00000000000E+00  0.10566423762E+03  0.10566423762E+03  0.00000000000E+00 0.  1.
         21   -1    0    0  501  502 -0.00000000000E+00 -0.00000000000E+00 -0.49088731285E+03  0.49088731285E+03  0.00000000000E+00 0.  1.
      99926    2    1    2    0    0  0.00000000000E+00 -0.88817841970E-15 -0.38522307523E+03  0.59655155047E+03  0.45549636077E+03 0.  0.
      99925    2    3    3    0    0 -0.27814987423E+02 -0.79203840865E+01 -0.38638007058E+03  0.46815664112E+03  0.26276353566E+03 0.  0.
         25    1    4    4    0    0  0.21062733586E+02  0.48540994104E+01 -0.15532269059E+03  0.20059872218E+03  0.12509000000E+03 0.  0.
         25    1    3    3    0    0  0.27814987423E+02  0.79203840865E+01  0.11569953459E+01  0.12839490935E+03  0.12509000000E+03 0.  0.
         25    1    4    4    0    0 -0.48877721010E+02 -0.12774483497E+02 -0.23105737999E+03  0.26755791894E+03  0.12509000000E+03 0.  0.
<mgrwt>
<rscale>  2 0.45549636E+03</rscale>
<asrwt>0</asrwt>
<pdfrwt beam="1">  1       21 0.15538858E-01 0.45549636E+03</pdfrwt>
<pdfrwt beam="2">  1       21 0.72189312E-01 0.45549636E+03</pdfrwt>
<totfact> 0.58660609E+04</totfact>
</mgrwt>
</event>
<event>
 7    0  0.4737014E-002  0.4563569E+03  0.7546771E-02  0.1025843E+00
         21   -1    0    0  502  501  0.00000000000E+00  0.00000000000E+00  0.33155983594E+03  0.33155983594E+03  0.00000000000E+00 0.  1.
         21   -1    0    0  501  502 -0.00000000000E+00 -0.00000000000E+00 -0.15703167250E+03  0.15703167250E+03  0.00000000000E+00 0.  1.
      99926    2    1    2    0    0 -0.77715611724E-15  0.00000000000E+00  0.17452816344E+03  0.48859150844E+03  0.45635685848E+03 0.  0.
      99925    2    3    3    0    0  0.11350166819E+00  0.23476366467E+02 -0.10177811054E+02  0.26428154927E+03  0.26303991481E+03 0.  0.
         25    1    3    3    0    0 -0.11350166819E+00 -0.23476366467E+02  0.18470597450E+03  0.22430995916E+03  0.12509000000E+03 0.  0.
         25    1    4    4    0    0  0.21031408542E+02  0.46173358048E+02  0.60221937646E+00  0.13498951777E+03  0.12509000000E+03 0.  0.
         25    1    4    4    0    0 -0.20917906874E+02 -0.22696991581E+02 -0.10780030430E+02  0.12929203151E+03  0.12509000000E+03 0.  0.
<mgrwt>
<rscale>  2 0.45635686E+03</rscale>
<asrwt>0</asrwt>
<pdfrwt beam="1">  1       21 0.48758799E-01 0.45635686E+03</pdfrwt>
<pdfrwt beam="2">  1       21 0.23092893E-01 0.45635686E+03</pdfrwt>
<totfact> 0.65372811E+04</totfact>
</mgrwt>
</event>
<event>
 7    0  0.4737014E-002  0.4560584E+03  0.7546771E-02  0.1025931E+00
         21   -1    0    0  502  501  0.00000000000E+00  0.00000000000E+00  0.75073006990E+02  0.75073006990E+02  0.00000000000E+00 0.  1.
         21   -1    0    0  501  502 -0.00000000000E+00 -0.00000000000E+00 -0.69262326657E+03  0.69262326657E+03  0.00000000000E+00 0.  1.
      99926    2    1    2    0    0  0.00000000000E+00 -0.14210854715E-13 -0.61755025958E+03  0.76769627356E+03  0.45605837930E+03 0.  0.
      99925    2    3    3    0    0 -0.65159783860E+02  0.81097056306E+02 -0.31001820579E+03  0.41977961373E+03  0.26321304340E+03 0.  0.
         25    1    4    4    0    0 -0.23836507810E+02  0.29597367340E+01 -0.11338486573E+03  0.17053027597E+03  0.12509000000E+03 0.  0.
         25    1    3    3    0    0  0.65159783860E+02 -0.81097056306E+02 -0.30753205380E+03  0.34791665983E+03  0.12509000000E+03 0.  0.
         25    1    4    4    0    0 -0.41323276050E+02  0.78137319572E+02 -0.19663334006E+03  0.24924933776E+03  0.12509000000E+03 0.  0.
<mgrwt>
<rscale>  2 0.45605838E+03</rscale>
<asrwt>0</asrwt>
<pdfrwt beam="1">  1       21 0.11040148E-01 0.45605838E+03</pdfrwt>
<pdfrwt beam="2">  1       21 0.10185636E+00 0.45605838E+03</pdfrwt>
<totfact> 0.48958830E+04</totfact>
</mgrwt>
</event>
<event>
 7    0  0.4737014E-002  0.4264136E+03  0.7546771E-02  0.1034999E+00
         21   -1    0    0  502  501  0.00000000000E+00  0.00000000000E+00  0.15641081381E+04  0.15641081381E+04  0.00000000000E+00 0.  1.
         21   -1    0    0  501  502 -0.00000000000E+00 -0.00000000000E+00 -0.29062664420E+02  0.29062664420E+02  0.00000000000E+00 0.  1.
      99926    2    1    2    0    0  0.35527136788E-14 -0.71054273576E-14  0.15350454736E+04  0.15931708025E+04  0.42641364863E+03 0.  0.
      99925    2    3    3    0    0  0.23729399782E+02 -0.39345533069E+02  0.12543498360E+04  0.12824479284E+04  0.26299814182E+03 0.  0.
         25    1    3    3    0    0 -0.23729399782E+02  0.39345533069E+02  0.28069563766E+03  0.31072287410E+03  0.12509000000E+03 0.  0.
         25    1    4    4    0    0  0.34889967263E+02 -0.33117139270E+02  0.49805968185E+03  0.51577612345E+03  0.12509000000E+03 0.  0.
         25    1    4    4    0    0 -0.11160567481E+02 -0.62283937995E+01  0.75629015412E+03  0.76667180493E+03  0.12509000000E+03 0.  0.
<mgrwt>
<rscale>  2 0.42641365E+03</rscale>
<asrwt>0</asrwt>
<pdfrwt beam="1">  1       21 0.23001585E+00 0.42641365E+03</pdfrwt>
<pdfrwt beam="2">  1       21 0.42739223E-02 0.42641365E+03</pdfrwt>
<totfact> 0.27124564E+04</totfact>
</mgrwt>
</event>
<event>
 7    0  0.4737014E-002  0.4582215E+03  0.7546771E-02  0.1025298E+00
         21   -1    0    0  502  501  0.00000000000E+00  0.00000000000E+00  0.11893139592E+04  0.11893139592E+04  0.00000000000E+00 0.  1.
         21   -1    0    0  501  502 -0.00000000000E+00 -0.00000000000E+00 -0.44136140644E+02  0.44136140644E+02  0.00000000000E+00 0.  1.
      99926    2    1    2    0    0  0.00000000000E+00  0.00000000000E+00  0.11451778185E+04  0.12334500998E+04  0.45822146686E+03 0.  0.
      99925    2    3    3    0    0 -0.23745404327E+02  0.98159554477E+02  0.56607072929E+03  0.63244122196E+03  0.26333759000E+03 0.  0.
         25    1    4    4    0    0 -0.14299017311E+00  0.85325605015E+02  0.34968056716E+03  0.38105706458E+03  0.12509000000E+03 0.  0.
         25    1    3    3    0    0  0.23745404327E+02 -0.98159554477E+02  0.57910708922E+03  0.60100887785E+03  0.12509000000E+03 0.  0.
         25    1    4    4    0    0 -0.23602414154E+02  0.12833949462E+02  0.21639016213E+03  0.25138415738E+03  0.12509000000E+03 0.  0.
<mgrwt>
<rscale>  2 0.45822147E+03</rscale>
<asrwt>0</asrwt>
<pdfrwt beam="1">  1       21 0.17489909E+00 0.45822147E+03</pdfrwt>
<pdfrwt beam="2">  1       21 0.64906097E-02 0.45822147E+03</pdfrwt>
<totfact> 0.30342160E+04</totfact>
</mgrwt>
</event>
<event>
 7    0  0.4737014E-002  0.4525414E+03  0.7546771E-02  0.1026967E+00
         21   -1    0    0  502  501  0.00000000000E+00  0.00000000000E+00  0.88864238186E+03  0.88864238186E+03  0.00000000000E+00 0. -1.
         21   -1    0    0  501  502 -0.00000000000E+00 -0.00000000000E+00 -0.57614215874E+02  0.57614215874E+02  0.00000000000E+00 0. -1.
      99926    2    1    2    0    0 -0.14210854715E-13  0.00000000000E+00  0.83102816599E+03  0.94625659773E+03  0.45254141920E+03 0.  0.
      99925    2    3    3    0    0 -0.72191622307E+02 -0.43601508692E+02  0.37385487848E+03  0.46483407562E+03  0.26304092039E+03 0.  0.
         25    1    3    3    0    0  0.72191622307E+02  0.43601508692E+02  0.45717328750E+03  0.48142252211E+03  0.12509000000E+03 0.  0.
         25    1    4    4    0    0 -0.73972423965E+02 -0.40514100069E+02  0.21361408002E+03  0.26151825002E+03  0.12509000000E+03 0.  0.
         25    1    4    4    0    0  0.17808016583E+01 -0.30874086228E+01  0.16024079846E+03  0.20331582560E+03  0.12509000000E+03 0.  0.
<mgrwt>
<rscale>  2 0.45254142E+03</rscale>
<asrwt>0</asrwt>
<pdfrwt beam="1">  1       21 0.13068270E+00 0.45254142E+03</pdfrwt>
<pdfrwt beam="2">  1       21 0.84726793E-02 0.45254142E+03</pdfrwt>
<totfact> 0.42096302E+04</totfact>
</mgrwt>
</event>
<event>
 7    0  0.4737014E-002  0.4530610E+03  0.7546771E-02  0.1026813E+00
         21   -1    0    0  502  501  0.00000000000E+00  0.00000000000E+00  0.28267608901E+03  0.28267608901E+03  0.00000000000E+00 0.  1.
         21   -1    0    0  501  502 -0.00000000000E+00 -0.00000000000E+00 -0.18153666182E+03  0.18153666182E+03  0.00000000000E+00 0.  1.
      99926    2    1    2    0    0  0.00000000000E+00  0.00000000000E+00  0.10113942719E+03  0.46421275082E+03  0.45306102712E+03 0.  0.
      99925    2    3    3    0    0 -0.90339926203E+02 -0.60502608785E+02  0.39232340508E+02  0.28728942444E+03  0.26300982666E+03 0.  0.
         25    1    3    3    0    0  0.90339926203E+02  0.60502608785E+02  0.61907086683E+02  0.17692332638E+03  0.12509000000E+03 0.  0.
         25    1    4    4    0    0 -0.48823264940E+02 -0.10747034353E+02  0.55053545291E+02  0.14552529298E+03  0.12509000000E+03 0.  0.
         25    1    4    4    0    0 -0.41516661263E+02 -0.49755574431E+02 -0.15821204783E+02  0.14176413147E+03  0.12509000000E+03 0.  0.
<mgrwt>
<rscale>  2 0.45306103E+03</rscale>
<asrwt>0</asrwt>
<pdfrwt beam="1">  1       21 0.41570013E-01 0.45306103E+03</pdfrwt>
<pdfrwt beam="2">  1       21 0.26696568E-01 0.45306103E+03</pdfrwt>
<totfact> 0.68922948E+04</totfact>
</mgrwt>
</event>
<event>
 7    0  0.4737014E-002  0.4579841E+03  0.7546771E-02  0.1025368E+00
         21   -1    0    0  502  501  0.00000000000E+00  0.00000000000E+00  0.10721314297E+03  0.10721314297E+03  0.00000000000E+00 0.  1.
         21   -1    0    0  501  502 -0.00000000000E+00 -0.00000000000E+00 -0.48909453934E+03  0.48909453934E+03  0.00000000000E+00 0.  1.
      99926    2    1    2    0    0  0.00000000000E+00 -0.14210854715E-13 -0.38188139637E+03  0.59630768231E+03  0.45798411663E+03 0.  0.
      99925    2    3    3    0    0 -0.64747662770E+01  0.11378068276E+03 -0.26513983816E+03  0.39072542169E+03  0.26339942105E+03 0.  0.
         25    1    4    4    0    0 -0.28770016223E+01  0.39552827800E+02 -0.17794559785E+03  0.22109917960E+03  0.12509000000E+03 0.  0.
         25    1    3    3    0    0  0.64747662770E+01 -0.11378068276E+03 -0.11674155821E+03  0.20558226062E+03  0.12509000000E+03 0.  0.
         25    1    4    4    0    0 -0.35977646546E+01  0.74227854959E+02 -0.87194240309E+02  0.16962624209E+03  0.12509000000E+03 0.  0.
<mgrwt>
<rscale>  2 0.45798412E+03</rscale>
<asrwt>0</asrwt>
<pdfrwt beam="1">  1       21 0.15766639E-01 0.45798412E+03</pdfrwt>
<pdfrwt beam="2">  1       21 0.71925667E-01 0.45798412E+03</pdfrwt>
<totfact> 0.57537272E+04</totfact>
</mgrwt>
</event>
<event>
 7    0  0.4737014E-002  0.4555304E+03  0.7546771E-02  0.1026086E+00
         21   -1    0    0  502  501  0.00000000000E+00  0.00000000000E+00  0.42998780230E+03  0.42998780230E+03  0.00000000000E+00 0. -1.
         21   -1    0    0  501  502 -0.00000000000E+00 -0.00000000000E+00 -0.12064759667E+03  0.12064759667E+03  0.00000000000E+00 0. -1.
      99926    2    1    2    0    0 -0.14210854715E-13  0.35527136788E-14  0.30934020563E+03  0.55063539897E+03  0.45553043782E+03 0.  0.
      99925    2    3    3    0    0  0.71244799762E+02 -0.19626808276E+02  0.90051621683E+02  0.28758402709E+03  0.26293391750E+03 0.  0.
         25    1    4    4    0    0  0.60793527481E+00 -0.31439099510E+01  0.64389669929E+02  0.14072594448E+03  0.12509000000E+03 0.  0.
         25    1    4    4    0    0  0.70636864487E+02 -0.16482898325E+02  0.25661951754E+02  0.14685808262E+03  0.12509000000E+03 0.  0.
         25    1    3    3    0    0 -0.71244799762E+02  0.19626808276E+02  0.21928858395E+03  0.26305137188E+03  0.12509000000E+03 0.  0.
<mgrwt>
<rscale>  2 0.45553044E+03</rscale>
<asrwt>0</asrwt>
<pdfrwt beam="1">  1       21 0.63233500E-01 0.45553044E+03</pdfrwt>
<pdfrwt beam="2">  1       21 0.17742294E-01 0.45553044E+03</pdfrwt>
<totfact> 0.61565763E+04</totfact>
</mgrwt>
</event>
<event>
 7    0  0.4737014E-002  0.4511329E+03  0.7546771E-02  0.1027385E+00
         21   -1    0    0  502  501  0.00000000000E+00  0.00000000000E+00  0.33269176503E+02  0.33269176503E+02  0.00000000000E+00 0. -1.
         21   -1    0    0  501  502 -0.00000000000E+00 -0.00000000000E+00 -0.15293501694E+04  0.15293501694E+04  0.00000000000E+00 0. -1.
      99926    2    1    2    0    0  0.00000000000E+00  0.00000000000E+00 -0.14960809929E+04  0.15626193459E+04  0.45113288828E+03 0.  0.
      99925    2    3    3    0    0 -0.32470620058E+02 -0.37844378154E+02 -0.60905856585E+03  0.66543328253E+03  0.26336776329E+03 0.  0.
         25    1    4    4    0    0 -0.51013396524E+02 -0.34361082206E+02 -0.36104756663E+03  0.38702183926E+03  0.12509000000E+03 0.  0.
         25    1    3    3    0    0  0.32470620058E+02  0.37844378154E+02 -0.88702242708E+03  0.89718606341E+03  0.12509000000E+03 0.  0.
         25    1    4    4    0    0  0.18542776465E+02 -0.34832959484E+01 -0.24801099922E+03  0.27841144327E+03  0.12509000000E+03 0.  0.
<mgrwt>
<rscale>  2 0.45113289E+03</rscale>
<asrwt>0</asrwt>
<pdfrwt beam="1">  1       21 0.48925259E-02 0.45113289E+03</pdfrwt>
<pdfrwt beam="2">  1       21 0.22490444E+00 0.45113289E+03</pdfrwt>
<totfact> 0.22967403E+04</totfact>
</mgrwt>
</event>
<event>
 7    0  0.4737014E-002  0.4739624E+03  0.7546771E-02  0.1020808E+00
         21   -1    0    0  502  501  0.00000000000E+00  0.00000000000E+00  0.42417833927E+03  0.42417833927E+03  0.00000000000E+00 0. -1.
         21   -1    0    0  501  502 -0.00000000000E+00 -0.00000000000E+00 -0.13239737771E+03  0.13239737771E+03  0.00000000000E+00 0. -1.
      99926    2    1    2    0    0  0.00000000000E+00 -0.35527136788E-14  0.29178096156E+03  0.55657571698E+03  0.47396244493E+03 0.  0.
      99925    2    3    3    0    0 -0.49625642737E+02 -0.20222550623E+02  0.41258006135E+02  0.27147763690E+03  0.26291867240E+03 0.  0.
         25    1    4    4    0    0 -0.35080369524E+02  0.25657176681E+02  0.36499829213E+02  0.13736327265E+03  0.12509000000E+03 0.  0.
         25    1    3    3    0    0  0.49625642737E+02  0.20222550623E+02  0.25052295543E+03  0.28509808008E+03  0.12509000000E+03 0.  0.
         25    1    4    4    0    0 -0.14545273213E+02 -0.45879727304E+02  0.47581769218E+01  0.13411436425E+03  0.12509000000E+03 0.  0.
<mgrwt>
<rscale>  2 0.47396244E+03</rscale>
<asrwt>0</asrwt>
<pdfrwt beam="1">  1       21 0.62379167E-01 0.47396244E+03</pdfrwt>
<pdfrwt beam="2">  1       21 0.19470203E-01 0.47396244E+03</pdfrwt>
<totfact> 0.53017944E+04</totfact>
</mgrwt>
</event>
<event>
 7    0  0.4737014E-002  0.4583695E+03  0.7546771E-02  0.1025255E+00
         21   -1    0    0  502  501  0.00000000000E+00  0.00000000000E+00  0.26184116055E+03  0.26184116055E+03  0.00000000000E+00 0. -1.
         21   -1    0    0  501  502 -0.00000000000E+00 -0.00000000000E+00 -0.20060115272E+03  0.20060115272E+03  0.00000000000E+00 0. -1.
      99926    2    1    2    0    0 -0.35527136788E-14  0.00000000000E+00  0.61240007826E+02  0.46244231327E+03  0.45836945201E+03 0.  0.
      99925    2    3    3    0    0 -0.20754559134E+02  0.98624334037E+02 -0.20188245775E+02  0.28234350824E+03  0.26296916242E+03 0.  0.
         25    1    3    3    0    0  0.20754559134E+02 -0.98624334037E+02  0.81428253600E+02  0.18009880503E+03  0.12509000000E+03 0.  0.
         25    1    4    4    0    0 -0.44424795652E+02  0.34371675564E+02  0.64416796367E+01  0.13727336918E+03  0.12509000000E+03 0.  0.
         25    1    4    4    0    0  0.23670236518E+02  0.64252658473E+02 -0.26629925411E+02  0.14507013905E+03  0.12509000000E+03 0.  0.
<mgrwt>
<rscale>  2 0.45836945E+03</rscale>
<asrwt>0</asrwt>
<pdfrwt beam="1">  1       21 0.38506053E-01 0.45836945E+03</pdfrwt>
<pdfrwt beam="2">  1       21 0.29500170E-01 0.45836945E+03</pdfrwt>
<totfact> 0.66205969E+04</totfact>
</mgrwt>
</event>
<event>
 7    0  0.4737014E-002  0.4552071E+03  0.7546771E-02  0.1026181E+00
         21   -1    0    0  502  501  0.00000000000E+00  0.00000000000E+00  0.29879370067E+03  0.29879370067E+03  0.00000000000E+00 0.  1.
         21   -1    0    0  501  502 -0.00000000000E+00 -0.00000000000E+00 -0.17337508463E+03  0.17337508463E+03  0.00000000000E+00 0.  1.
      99926    2    1    2    0    0  0.00000000000E+00 -0.35527136788E-14  0.12541861604E+03  0.47216878529E+03  0.45520713149E+03 0.  0.
      99925    2    3    3    0    0 -0.79395090836E+02 -0.29592408858E+02  0.15704274769E+03  0.31780918918E+03  0.26298472392E+03 0.  0.
         25    1    4    4    0    0 -0.32278719724E+02  0.15907422581E+02  0.45570526960E+02  0.13790990852E+03  0.12509000000E+03 0.  0.
         25    1    4    4    0    0 -0.47116371112E+02 -0.45499831439E+02  0.11147222073E+03  0.17989928066E+03  0.12509000000E+03 0.  0.
         25    1    3    3    0    0  0.79395090836E+02  0.29592408858E+02 -0.31624131645E+02  0.15435959612E+03  0.12509000000E+03 0.  0.
<mgrwt>
<rscale>  2 0.45520713E+03</rscale>
<asrwt>0</asrwt>
<pdfrwt beam="1">  1       21 0.43940251E-01 0.45520713E+03</pdfrwt>
<pdfrwt beam="2">  1       21 0.25496336E-01 0.45520713E+03</pdfrwt>
<totfact> 0.67164341E+04</totfact>
</mgrwt>
</event>
<event>
 7    0  0.4737014E-002  0.4552159E+03  0.7546771E-02  0.1026178E+00
         21   -1    0    0  502  501  0.00000000000E+00  0.00000000000E+00  0.18683666865E+02  0.18683666865E+02  0.00000000000E+00 0. -1.
         21   -1    0    0  501  502 -0.00000000000E+00 -0.00000000000E+00 -0.27727623764E+04  0.27727623764E+04  0.00000000000E+00 0. -1.
      99926    2    1    2    0    0  0.00000000000E+00  0.35527136788E-14 -0.27540787095E+04  0.27914460432E+04  0.45521585444E+03 0.  0.
      99925    2    3    3    0    0  0.50896017415E+02 -0.22070320467E+02 -0.11258698669E+04  0.11574971313E+04  0.26294324121E+03 0.  0.
         25    1    4    4    0    0 -0.10474764382E+02  0.61157040568E+01 -0.48132251929E+03  0.49745954428E+03  0.12509000000E+03 0.  0.
         25    1    3    3    0    0 -0.50896017415E+02  0.22070320467E+02 -0.16282088426E+04  0.16339489119E+04  0.12509000000E+03 0.  0.
         25    1    4    4    0    0  0.61370781796E+02 -0.28186024524E+02 -0.64454734763E+03  0.66003758702E+03  0.12509000000E+03 0.  0.
<mgrwt>
<rscale>  2 0.45521585E+03</rscale>
<asrwt>0</asrwt>
<pdfrwt beam="1">  1       21 0.27475992E-02 0.45521585E+03</pdfrwt>
<pdfrwt beam="2">  1       21 0.40775900E+00 0.45521585E+03</pdfrwt>
<totfact> 0.45783689E+03</totfact>
</mgrwt>
</event>
<event>
 7    0  0.4737014E-002  0.4532973E+03  0.7546771E-02  0.1026743E+00
         21   -1    0    0  502  501  0.00000000000E+00  0.00000000000E+00  0.25463124559E+04  0.25463124559E+04  0.00000000000E+00 0. -1.
         21   -1    0    0  501  502 -0.00000000000E+00 -0.00000000000E+00 -0.20174121765E+02  0.20174121765E+02  0.00000000000E+00 0. -1.
      99926    2    1    2    0    0  0.00000000000E+00  0.00000000000E+00  0.25261383341E+04  0.25664865777E+04  0.45329733084E+03 0.  0.
      99925    2    3    3    0    0 -0.26090261441E+02  0.88419320812E+02  0.19480361581E+04  0.19678645667E+04  0.26295893477E+03 0.  0.
         25    1    4    4    0    0 -0.11559962661E+01  0.84480813177E+02  0.10307967860E+04  0.10417907017E+04  0.12509000000E+03 0.  0.
         25    1    3    3    0    0  0.26090261441E+02 -0.88419320812E+02  0.57810217600E+03  0.59862201098E+03  0.12509000000E+03 0.  0.
         25    1    4    4    0    0 -0.24934265175E+02  0.39385076350E+01  0.91723937215E+03  0.92607386495E+03  0.12509000000E+03 0.  0.
<mgrwt>
<rscale>  2 0.45329733E+03</rscale>
<asrwt>0</asrwt>
<pdfrwt beam="1">  1       21 0.37445749E+00 0.45329733E+03</pdfrwt>
<pdfrwt beam="2">  1       21 0.29667844E-02 0.45329733E+03</pdfrwt>
<totfact> 0.65617359E+03</totfact>
</mgrwt>
</event>
<event>
 7    0  0.4737014E-002  0.4539900E+03  0.7546771E-02  0.1026539E+00
         21   -1    0    0  502  501  0.00000000000E+00  0.00000000000E+00  0.12553125575E+04  0.12553125575E+04  0.00000000000E+00 0. -1.
         21   -1    0    0  501  502 -0.00000000000E+00 -0.00000000000E+00 -0.41046929230E+02  0.41046929230E+02  0.00000000000E+00 0. -1.
      99926    2    1    2    0    0  0.71054273576E-14  0.00000000000E+00  0.12142656282E+04  0.12963594867E+04  0.45398998099E+03 0.  0.
      99925    2    3    3    0    0  0.45474844372E+02  0.10267147709E+03  0.76245632774E+03  0.81429253513E+03  0.26291307952E+03 0.  0.
         25    1    3    3    0    0 -0.45474844372E+02 -0.10267147709E+03  0.45180930051E+03  0.48206695158E+03  0.12509000000E+03 0.  0.
         25    1    4    4    0    0  0.39316587353E+02  0.83352785254E+02  0.48469467058E+03  0.50898910857E+03  0.12509000000E+03 0.  0.
         25    1    4    4    0    0  0.61582570189E+01  0.19318691834E+02  0.27776165716E+03  0.30530342657E+03  0.12509000000E+03 0.  0.
<mgrwt>
<rscale>  2 0.45398998E+03</rscale>
<asrwt>0</asrwt>
<pdfrwt beam="1">  1       21 0.18460476E+00 0.45398998E+03</pdfrwt>
<pdfrwt beam="2">  1       21 0.60363140E-02 0.45398998E+03</pdfrwt>
<totfact> 0.29451281E+04</totfact>
</mgrwt>
</event>
<event>
 7    0  0.4737014E-002  0.4511719E+03  0.7546771E-02  0.1027373E+00
         21   -1    0    0  502  501  0.00000000000E+00  0.00000000000E+00  0.27533593773E+03  0.27533593773E+03  0.00000000000E+00 0. -1.
         21   -1    0    0  501  502 -0.00000000000E+00 -0.00000000000E+00 -0.18482518886E+03  0.18482518886E+03  0.00000000000E+00 0. -1.
      99926    2    1    2    0    0  0.00000000000E+00  0.00000000000E+00  0.90510748867E+02  0.46016112659E+03  0.45117188162E+03 0.  0.
      99925    2    3    3    0    0  0.23897694678E+02 -0.10330177987E+03  0.85890322730E+02  0.29611474909E+03  0.26280114070E+03 0.  0.
         25    1    4    4    0    0  0.14113394251E+02 -0.91718214765E+02  0.31676407907E+02  0.15894125246E+03  0.12509000000E+03 0.  0.
         25    1    4    4    0    0  0.97843004275E+01 -0.11583565106E+02  0.54213914823E+02  0.13717349662E+03  0.12509000000E+03 0.  0.
         25    1    3    3    0    0 -0.23897694678E+02  0.10330177987E+03  0.46204261366E+01  0.16404637751E+03  0.12509000000E+03 0.  0.
<mgrwt>
<rscale>  2 0.45117188E+03</rscale>
<asrwt>0</asrwt>
<pdfrwt beam="1">  1       21 0.40490579E-01 0.45117188E+03</pdfrwt>
<pdfrwt beam="2">  1       21 0.27180175E-01 0.45117188E+03</pdfrwt>
<totfact> 0.70285531E+04</totfact>
</mgrwt>
</event>
<event>
 7    0  0.4737014E-002  0.4116084E+03  0.7546771E-02  0.1039833E+00
         21   -1    0    0  502  501  0.00000000000E+00  0.00000000000E+00  0.53225966920E+02  0.53225966920E+02  0.00000000000E+00 0.  1.
         21   -1    0    0  501  502 -0.00000000000E+00 -0.00000000000E+00 -0.79576517926E+03  0.79576517926E+03  0.00000000000E+00 0.  1.
      99926    2    1    2    0    0  0.00000000000E+00  0.00000000000E+00 -0.74253921233E+03  0.84899114618E+03  0.41160841151E+03 0.  0.
      99925    2    3    3    0    0  0.33619477749E+02  0.36368888231E+02 -0.57399765464E+03  0.63333695520E+03  0.26303882978E+03 0.  0.
         25    1    4    4    0    0  0.46173537360E+02  0.37675993231E+02 -0.35066217214E+03  0.37704501467E+03  0.12509000000E+03 0.  0.
         25    1    4    4    0    0 -0.12554059611E+02 -0.13071049995E+01 -0.22333548250E+03  0.25629194053E+03  0.12509000000E+03 0.  0.
         25    1    3    3    0    0 -0.33619477749E+02 -0.36368888231E+02 -0.16854155769E+03  0.21565419097E+03  0.12509000000E+03 0.  0.
<mgrwt>
<rscale>  2 0.41160841E+03</rscale>
<asrwt>0</asrwt>
<pdfrwt beam="1">  1       21 0.78273486E-02 0.41160841E+03</pdfrwt>
<pdfrwt beam="2">  1       21 0.11702428E+00 0.41160841E+03</pdfrwt>
<totfact> 0.64909428E+04</totfact>
</mgrwt>
</event>
<event>
 7    0  0.4737014E-002  0.4537198E+03  0.7546771E-02  0.1026619E+00
         21   -1    0    0  502  501  0.00000000000E+00  0.00000000000E+00  0.19127950275E+03  0.19127950275E+03  0.00000000000E+00 0.  1.
         21   -1    0    0  501  502 -0.00000000000E+00 -0.00000000000E+00 -0.26905874537E+03  0.26905874537E+03  0.00000000000E+00 0.  1.
      99926    2    1    2    0    0  0.00000000000E+00  0.00000000000E+00 -0.77779242621E+02  0.46033824812E+03  0.45371983877E+03 0.  0.
      99925    2    3    3    0    0 -0.10585462939E+03  0.24436383785E+02 -0.20088549895E+02  0.28490146878E+03  0.26260799238E+03 0.  0.
         25    1    4    4    0    0 -0.85772948293E+02  0.17682022677E+02 -0.36420917334E+02  0.15698294144E+03  0.12509000000E+03 0.  0.
         25    1    3    3    0    0  0.10585462939E+03 -0.24436383785E+02 -0.57690692726E+02  0.17543677934E+03  0.12509000000E+03 0.  0.
         25    1    4    4    0    0 -0.20081681102E+02  0.67543611081E+01  0.16332367439E+02  0.12791852734E+03  0.12509000000E+03 0.  0.
<mgrwt>
<rscale>  2 0.45371984E+03</rscale>
<asrwt>0</asrwt>
<pdfrwt beam="1">  1       21 0.28129339E-01 0.45371984E+03</pdfrwt>
<pdfrwt beam="2">  1       21 0.39567462E-01 0.45371984E+03</pdfrwt>
<totfact> 0.68855586E+04</totfact>
</mgrwt>
</event>
<event>
 7    0  0.4737014E-002  0.4621631E+03  0.7546771E-02  0.1024156E+00
         21   -1    0    0  502  501  0.00000000000E+00  0.00000000000E+00  0.18896581595E+04  0.18896581595E+04  0.00000000000E+00 0. -1.
         21   -1    0    0  501  502 -0.00000000000E+00 -0.00000000000E+00 -0.28258378642E+02  0.28258378642E+02  0.00000000000E+00 0. -1.
      99926    2    1    2    0    0  0.00000000000E+00  0.00000000000E+00  0.18613997809E+04  0.19179165382E+04  0.46216306982E+03 0.  0.
      99925    2    3    3    0    0  0.35492335837E+02 -0.75266089207E+02  0.80627225163E+03  0.85214625280E+03  0.26297072522E+03 0.  0.
         25    1    4    4    0    0  0.29702493706E+02 -0.16583651324E+01  0.42991765570E+03  0.44873342542E+03  0.12509000000E+03 0.  0.
         25    1    3    3    0    0 -0.35492335837E+02  0.75266089207E+02  0.10551275293E+04  0.10657702854E+04  0.12509000000E+03 0.  0.
         25    1    4    4    0    0  0.57898421305E+01 -0.73607724074E+02  0.37635459594E+03  0.40341282739E+03  0.12509000000E+03 0.  0.
<mgrwt>
<rscale>  2 0.46216307E+03</rscale>
<asrwt>0</asrwt>
<pdfrwt beam="1">  1       21 0.27789082E+00 0.46216307E+03</pdfrwt>
<pdfrwt beam="2">  1       21 0.41556452E-02 0.46216307E+03</pdfrwt>
<totfact> 0.14285741E+04</totfact>
</mgrwt>
</event>
<event>
 7    0  0.4737014E-002  0.4533141E+03  0.7546771E-02  0.1026738E+00
         21   -1    0    0  502  501  0.00000000000E+00  0.00000000000E+00  0.21773306486E+03  0.21773306486E+03  0.00000000000E+00 0. -1.
         21   -1    0    0  501  502 -0.00000000000E+00 -0.00000000000E+00 -0.23594678418E+03  0.23594678418E+03  0.00000000000E+00 0. -1.
      99926    2    1    2    0    0  0.00000000000E+00  0.00000000000E+00 -0.18213719322E+02  0.45367984904E+03  0.45331409183E+03 0.  0.
      99925    2    3    3    0    0  0.95333363586E+02  0.53486486718E+02 -0.33367286671E+02  0.28686739993E+03  0.26311646632E+03 0.  0.
         25    1    4    4    0    0  0.14102653118E+02  0.55527828657E+00 -0.43091679066E+01  0.12595741418E+03  0.12509000000E+03 0.  0.
         25    1    4    4    0    0  0.81230710468E+02  0.52931208431E+02 -0.29058118765E+02  0.16090998575E+03  0.12509000000E+03 0.  0.
         25    1    3    3    0    0 -0.95333363586E+02 -0.53486486718E+02  0.15153567350E+02  0.16681244911E+03  0.12509000000E+03 0.  0.
<mgrwt>
<rscale>  2 0.45331409E+03</rscale>
<asrwt>0</asrwt>
<pdfrwt beam="1">  1       21 0.32019569E-01 0.45331409E+03</pdfrwt>
<pdfrwt beam="2">  1       21 0.34698056E-01 0.45331409E+03</pdfrwt>
<totfact> 0.69573818E+04</totfact>
</mgrwt>
</event>
<event>
 7    0  0.4737014E-002  0.3990156E+03  0.7546771E-02  0.1044121E+00
         21   -1    0    0  502  501  0.00000000000E+00  0.00000000000E+00  0.13692199641E+03  0.13692199641E+03  0.00000000000E+00 0.  1.
         21   -1    0    0  501  502 -0.00000000000E+00 -0.00000000000E+00 -0.29070097340E+03  0.29070097340E+03  0.00000000000E+00 0.  1.
      99926    2    1    2    0    0  0.00000000000E+00  0.17763568394E-14 -0.15377897699E+03  0.42762296981E+03  0.39901557682E+03 0.  0.
      99925    2    3    3    0    0 -0.36668835477E+02 -0.58224812281E+01 -0.80936226982E+02  0.27818375437E+03  0.26354700449E+03 0.  0.
         25    1    3    3    0    0  0.36668835477E+02  0.58224812281E+01 -0.72842750005E+02  0.14943921544E+03  0.12509000000E+03 0.  0.
         25    1    4    4    0    0 -0.15476250999E+01  0.31045472699E+02 -0.21701778927E+02  0.13070842294E+03  0.12509000000E+03 0.  0.
         25    1    4    4    0    0 -0.35121210378E+02 -0.36867953927E+02 -0.59234448055E+02  0.14747533143E+03  0.12509000000E+03 0.  0.
<mgrwt>
<rscale>  2 0.39901558E+03</rscale>
<asrwt>0</asrwt>
<pdfrwt beam="1">  1       21 0.20135588E-01 0.39901558E+03</pdfrwt>
<pdfrwt beam="2">  1       21 0.42750143E-01 0.39901558E+03</pdfrwt>
<totfact> 0.11328137E+05</totfact>
</mgrwt>
</event>
<event>
 7    0  0.4737014E-002  0.4577418E+03  0.7546771E-02  0.1025438E+00
         21   -1    0    0  502  501  0.00000000000E+00  0.00000000000E+00  0.10136448272E+04  0.10136448272E+04  0.00000000000E+00 0.  1.
         21   -1    0    0  501  502 -0.00000000000E+00 -0.00000000000E+00 -0.51676777977E+02  0.51676777977E+02  0.00000000000E+00 0.  1.
      99926    2    1    2    0    0  0.00000000000E+00  0.00000000000E+00  0.96196804924E+03  0.10653216052E+04  0.45774184289E+03 0.  0.
      99925    2    3    3    0    0  0.36529177440E+02  0.25224115978E+02  0.35482647157E+03  0.44384027783E+03  0.26291011860E+03 0.  0.
         25    1    4    4    0    0  0.13947636145E+02  0.79384872282E+01  0.10958806113E+03  0.16707665120E+03  0.12509000000E+03 0.  0.
         25    1    3    3    0    0 -0.36529177440E+02 -0.25224115978E+02  0.60714157767E+03  0.62148132737E+03  0.12509000000E+03 0.  0.
         25    1    4    4    0    0  0.22581541294E+02  0.17285628749E+02  0.24523841044E+03  0.27676362663E+03  0.12509000000E+03 0.  0.
<mgrwt>
<rscale>  2 0.45774184E+03</rscale>
<asrwt>0</asrwt>
<pdfrwt beam="1">  1       21 0.14906540E+00 0.45774184E+03</pdfrwt>
<pdfrwt beam="2">  1       21 0.75995268E-02 0.45774184E+03</pdfrwt>
<totfact> 0.35944868E+04</totfact>
</mgrwt>
</event>
<event>
 7    0  0.4737014E-002  0.4115446E+03  0.7546771E-02  0.1039854E+00
         21   -1    0    0  502  501  0.00000000000E+00  0.00000000000E+00  0.26462029254E+03  0.26462029254E+03  0.00000000000E+00 0. -1.
         21   -1    0    0  501  502 -0.00000000000E+00 -0.00000000000E+00 -0.16001127559E+03  0.16001127559E+03  0.00000000000E+00 0. -1.
      99926    2    1    2    0    0  0.00000000000E+00  0.17763568394E-14  0.10460901695E+03  0.42463156813E+03  0.41154455680E+03 0.  0.
      99925    2    3    3    0    0 -0.54811539198E+02 -0.88782677777E+01  0.10275363349E+03  0.28775907632E+03  0.26299020579E+03 0.  0.
         25    1    4    4    0    0 -0.11530050665E+02 -0.17732851400E+02  0.12874667228E+02  0.12751729782E+03  0.12509000000E+03 0.  0.
         25    1    3    3    0    0  0.54811539198E+02  0.88782677777E+01  0.18553834626E+01  0.13687249182E+03  0.12509000000E+03 0.  0.
         25    1    4    4    0    0 -0.43281488533E+02  0.88545836219E+01  0.89878966259E+02  0.16024177850E+03  0.12509000000E+03 0.  0.
<mgrwt>
<rscale>  2 0.41154456E+03</rscale>
<asrwt>0</asrwt>
<pdfrwt beam="1">  1       21 0.38914749E-01 0.41154456E+03</pdfrwt>
<pdfrwt beam="2">  1       21 0.23531070E-01 0.41154456E+03</pdfrwt>
<totfact> 0.10177070E+05</totfact>
</mgrwt>
</event>
<event>
 7    0  0.4737014E-002  0.4565560E+03  0.7546771E-02  0.1025785E+00
         21   -1    0    0  502  501  0.00000000000E+00  0.00000000000E+00  0.47209620418E+02  0.47209620418E+02  0.00000000000E+00 0. -1.
         21   -1    0    0  501  502 -0.00000000000E+00 -0.00000000000E+00 -0.11038184088E+04  0.11038184088E+04  0.00000000000E+00 0. -1.
      99926    2    1    2    0    0  0.00000000000E+00  0.00000000000E+00 -0.10566087884E+04  0.11510280292E+04  0.45655601230E+03 0.  0.
      99925    2    3    3    0    0 -0.25764150944E+01  0.29040389363E+02 -0.94318505338E+03  0.97967332725E+03  0.26327134493E+03 0.  0.
         25    1    4    4    0    0 -0.28497767149E+01  0.55448003024E+02 -0.50543483903E+03  0.52363583422E+03  0.12509000000E+03 0.  0.
         25    1    4    4    0    0  0.27336162057E+00 -0.26407613661E+02 -0.43775021435E+03  0.45603749303E+03  0.12509000000E+03 0.  0.
         25    1    3    3    0    0  0.25764150944E+01 -0.29040389363E+02 -0.11342373502E+03  0.17135470199E+03  0.12509000000E+03 0.  0.
<mgrwt>
<rscale>  2 0.45655601E+03</rscale>
<asrwt>0</asrwt>
<pdfrwt beam="1">  1       21 0.69425923E-02 0.45655601E+03</pdfrwt>
<pdfrwt beam="2">  1       21 0.16232621E+00 0.45655601E+03</pdfrwt>
<totfact> 0.33341891E+04</totfact>
</mgrwt>
</event>
<event>
 7    0  0.4737014E-002  0.4540738E+03  0.7546771E-02  0.1026514E+00
         21   -1    0    0  502  501  0.00000000000E+00  0.00000000000E+00  0.49608041542E+03  0.49608041542E+03  0.00000000000E+00 0. -1.
         21   -1    0    0  501  502 -0.00000000000E+00 -0.00000000000E+00 -0.10390604658E+03  0.10390604658E+03  0.00000000000E+00 0. -1.
      99926    2    1    2    0    0  0.00000000000E+00 -0.71054273576E-14  0.39217436884E+03  0.59998646200E+03  0.45407380348E+03 0.  0.
      99925    2    3    3    0    0 -0.49806106999E+02 -0.41776704582E+02  0.36788717100E+03  0.45693640986E+03  0.26310448633E+03 0.  0.
         25    1    3    3    0    0  0.49806106999E+02  0.41776704582E+02  0.24287197845E+02  0.14305005215E+03  0.12509000000E+03 0.  0.
         25    1    4    4    0    0 -0.11730971293E+02 -0.21986298661E+02  0.11583176670E+03  0.17229486148E+03  0.12509000000E+03 0.  0.
         25    1    4    4    0    0 -0.38075135705E+02 -0.19790405922E+02  0.25205540430E+03  0.28464154837E+03  0.12509000000E+03 0.  0.
<mgrwt>
<rscale>  2 0.45407380E+03</rscale>
<asrwt>0</asrwt>
<pdfrwt beam="1">  1       21 0.72953002E-01 0.45407380E+03</pdfrwt>
<pdfrwt beam="2">  1       21 0.15280301E-01 0.45407380E+03</pdfrwt>
<totfact> 0.59110490E+04</totfact>
</mgrwt>
</event>
<event>
 7    0  0.4737014E-002  0.4401155E+03  0.7546771E-02  0.1030711E+00
         21   -1    0    0  502  501  0.00000000000E+00  0.00000000000E+00  0.17196038064E+03  0.17196038064E+03  0.00000000000E+00 0. -1.
         21   -1    0    0  501  502 -0.00000000000E+00 -0.00000000000E+00 -0.28160796104E+03  0.28160796104E+03  0.00000000000E+00 0. -1.
      99926    2    1    2    0    0  0.14210854715E-13  0.00000000000E+00 -0.10964758039E+03  0.45356834168E+03  0.44011549471E+03 0.  0.
      99925    2    3    3    0    0  0.96632510014E+02 -0.18685962325E+02 -0.75396359022E+02  0.29075660548E+03  0.26299769104E+03 0.  0.
         25    1    4    4    0    0  0.19440306698E+02 -0.15383638567E+02 -0.46848624364E+01  0.12760892561E+03  0.12509000000E+03 0.  0.
         25    1    3    3    0    0 -0.96632510014E+02  0.18685962325E+02 -0.34251221372E+02  0.16281173620E+03  0.12509000000E+03 0.  0.
         25    1    4    4    0    0  0.77192203316E+02 -0.33023237574E+01 -0.70711496585E+02  0.16314767986E+03  0.12509000000E+03 0.  0.
<mgrwt>
<rscale>  2 0.44011549E+03</rscale>
<asrwt>0</asrwt>
<pdfrwt beam="1">  1       21 0.25288292E-01 0.44011549E+03</pdfrwt>
<pdfrwt beam="2">  1       21 0.41412935E-01 0.44011549E+03</pdfrwt>
<totfact> 0.77422566E+04</totfact>
</mgrwt>
</event>
<event>
 7    0  0.4737014E-002  0.4527809E+03  0.7546771E-02  0.1026896E+00
         21   -1    0    0  502  501  0.00000000000E+00  0.00000000000E+00  0.13339640261E+03  0.13339640261E+03  0.00000000000E+00 0. -1.
         21   -1    0    0  501  502 -0.00000000000E+00 -0.00000000000E+00 -0.38421298439E+03  0.38421298439E+03  0.00000000000E+00 0. -1.
      99926    2    1    2    0    0 -0.26645352591E-14  0.00000000000E+00 -0.25081658178E+03  0.51760938700E+03  0.45278087395E+03 0.  0.
      99925    2    3    3    0    0  0.38742149992E+01  0.85078347131E+02 -0.79602631856E+02  0.28910323951E+03  0.26455768634E+03 0.  0.
         25    1    4    4    0    0 -0.16710819336E+02  0.16693437684E+02 -0.62335169178E+01  0.12745307834E+03  0.12509000000E+03 0.  0.
         25    1    4    4    0    0  0.20585034335E+02  0.68384909447E+02 -0.73369114939E+02  0.16165016117E+03  0.12509000000E+03 0.  0.
         25    1    3    3    0    0 -0.38742149992E+01 -0.85078347131E+02 -0.17121394993E+03  0.22850614749E+03  0.12509000000E+03 0.  0.
<mgrwt>
<rscale>  2 0.45278087E+03</rscale>
<asrwt>0</asrwt>
<pdfrwt beam="1">  1       21 0.19617118E-01 0.45278087E+03</pdfrwt>
<pdfrwt beam="2">  1       21 0.56501909E-01 0.45278087E+03</pdfrwt>
<totfact> 0.65190691E+04</totfact>
</mgrwt>
</event>
<event>
 7    0  0.4737014E-002  0.4576016E+03  0.7546771E-02  0.1025479E+00
         21   -1    0    0  502  501  0.00000000000E+00  0.00000000000E+00  0.74407278010E+03  0.74407278010E+03  0.00000000000E+00 0. -1.
         21   -1    0    0  501  502 -0.00000000000E+00 -0.00000000000E+00 -0.70355750986E+02  0.70355750986E+02  0.00000000000E+00 0. -1.
      99926    2    1    2    0    0  0.00000000000E+00  0.00000000000E+00  0.67371702912E+03  0.81442853109E+03  0.45760157007E+03 0.  0.
      99925    2    3    3    0    0  0.62770662355E+02  0.53391614085E+02  0.56725192121E+03  0.63065381082E+03  0.26298035379E+03 0.  0.
         25    1    4    4    0    0  0.13791271471E+02  0.63330684482E+02  0.28951640713E+03  0.32197551594E+03  0.12509000000E+03 0.  0.
         25    1    4    4    0    0  0.48979390884E+02 -0.99390703963E+01  0.27773551408E+03  0.30867829489E+03  0.12509000000E+03 0.  0.
         25    1    3    3    0    0 -0.62770662355E+02 -0.53391614085E+02  0.10646510790E+03  0.18377472026E+03  0.12509000000E+03 0.  0.
<mgrwt>
<rscale>  2 0.45760157E+03</rscale>
<asrwt>0</asrwt>
<pdfrwt beam="1">  1       21 0.10942246E+00 0.45760157E+03</pdfrwt>
<pdfrwt beam="2">  1       21 0.10346434E-01 0.45760157E+03</pdfrwt>
<totfact> 0.46125958E+04</totfact>
</mgrwt>
</event>
<event>
 7    0  0.4737014E-002  0.4759498E+03  0.7546771E-02  0.1020254E+00
         21   -1    0    0  502  501  0.00000000000E+00  0.00000000000E+00  0.36347331695E+02  0.36347331695E+02  0.00000000000E+00 0. -1.
         21   -1    0    0  501  502 -0.00000000000E+00 -0.00000000000E+00 -0.15580798186E+04  0.15580798186E+04  0.00000000000E+00 0. -1.
      99926    2    1    2    0    0  0.00000000000E+00  0.00000000000E+00 -0.15217324869E+04  0.15944271503E+04  0.47594976195E+03 0.  0.
      99925    2    3    3    0    0  0.12098470046E+03  0.51952529377E+02 -0.91664970617E+03  0.96267637451E+03  0.26298812744E+03 0.  0.
         25    1    4    4    0    0  0.99900959981E+02  0.29168855942E+02 -0.57283008993E+03  0.59549378166E+03  0.12509000000E+03 0.  0.
         25    1    4    4    0    0  0.21083740483E+02  0.22783673436E+02 -0.34381961624E+03  0.36718259286E+03  0.12509000000E+03 0.  0.
         25    1    3    3    0    0 -0.12098470046E+03 -0.51952529377E+02 -0.60508278075E+03  0.63175077579E+03  0.12509000000E+03 0.  0.
<mgrwt>
<rscale>  2 0.47594976E+03</rscale>
<asrwt>0</asrwt>
<pdfrwt beam="1">  1       21 0.53451982E-02 0.47594976E+03</pdfrwt>
<pdfrwt beam="2">  1       21 0.22912929E+00 0.47594976E+03</pdfrwt>
<totfact> 0.18379475E+04</totfact>
</mgrwt>
</event>
<event>
 7    0  0.4737014E-002  0.4560070E+03  0.7546771E-02  0.1025946E+00
         21   -1    0    0  502  501  0.00000000000E+00  0.00000000000E+00  0.26888163332E+03  0.26888163332E+03  0.00000000000E+00 0.  1.
         21   -1    0    0  501  502 -0.00000000000E+00 -0.00000000000E+00 -0.19334010115E+03  0.19334010115E+03  0.00000000000E+00 0.  1.
      99926    2    1    2    0    0 -0.10130785100E-14  0.14210854715E-13  0.75541532175E+02  0.46222173447E+03  0.45600702706E+03 0.  0.
      99925    2    3    3    0    0 -0.76281105428E-01  0.11172600747E+03  0.23674016506E+02  0.28666418309E+03  0.26293190801E+03 0.  0.
         25    1    3    3    0    0  0.76281105428E-01 -0.11172600747E+03  0.51867515668E+02  0.17555755137E+03  0.12509000000E+03 0.  0.
         25    1    4    4    0    0  0.11936705671E+02  0.97580859851E+02  0.89209651457E+01  0.15934742191E+03  0.12509000000E+03 0.  0.
         25    1    4    4    0    0 -0.12012986776E+02  0.14145147614E+02  0.14753051361E+02  0.12731676118E+03  0.12509000000E+03 0.  0.
<mgrwt>
<rscale>  2 0.45600703E+03</rscale>
<asrwt>0</asrwt>
<pdfrwt beam="1">  1       21 0.39541417E-01 0.45600703E+03</pdfrwt>
<pdfrwt beam="2">  1       21 0.28432368E-01 0.45600703E+03</pdfrwt>
<totfact> 0.67475037E+04</totfact>
</mgrwt>
</event>
<event>
 7    0  0.4737014E-002  0.4591601E+03  0.7546771E-02  0.1025025E+00
         21   -1    0    0  502  501  0.00000000000E+00  0.00000000000E+00  0.63922540921E+02  0.63922540921E+02  0.00000000000E+00 0.  1.
         21   -1    0    0  501  502 -0.00000000000E+00 -0.00000000000E+00 -0.82454476369E+03  0.82454476369E+03  0.00000000000E+00 0.  1.
      99926    2    1    2    0    0  0.71054273576E-14  0.00000000000E+00 -0.76062222277E+03  0.88846730461E+03  0.45916008711E+03 0.  0.
      99925    2    3    3    0    0 -0.58064538282E+02  0.75356509877E+02 -0.34343715677E+03  0.44266355678E+03  0.26258684214E+03 0.  0.
         25    1    4    4    0    0 -0.22030644313E+02  0.73271929802E+02 -0.21100282587E+03  0.25695101792E+03  0.12509000000E+03 0.  0.
         25    1    4    4    0    0 -0.36033893968E+02  0.20845800751E+01 -0.13243433090E+03  0.18571253886E+03  0.12509000000E+03 0.  0.
         25    1    3    3    0    0  0.58064538282E+02 -0.75356509877E+02 -0.41718506600E+03  0.44580374784E+03  0.12509000000E+03 0.  0.
<mgrwt>
<rscale>  2 0.45916009E+03</rscale>
<asrwt>0</asrwt>
<pdfrwt beam="1">  1       21 0.94003738E-02 0.45916009E+03</pdfrwt>
<pdfrwt beam="2">  1       21 0.12125658E+00 0.45916009E+03</pdfrwt>
<totfact> 0.42339833E+04</totfact>
</mgrwt>
</event>
<event>
 7    0  0.4737014E-002  0.4697482E+03  0.7546771E-02  0.1021991E+00
         21   -1    0    0  502  501  0.00000000000E+00  0.00000000000E+00  0.30083579440E+03  0.30083579440E+03  0.00000000000E+00 0. -1.
         21   -1    0    0  501  502 -0.00000000000E+00 -0.00000000000E+00 -0.18337529825E+03  0.18337529825E+03  0.00000000000E+00 0. -1.
      99926    2    1    2    0    0  0.00000000000E+00  0.00000000000E+00  0.11746049615E+03  0.48421109265E+03  0.46974824543E+03 0.  0.
      99925    2    3    3    0    0 -0.26760195391E+02 -0.83445537668E+02 -0.21058293980E+02  0.27802130354E+03  0.26300784715E+03 0.  0.
         25    1    4    4    0    0  0.13592993424E+02 -0.67635343695E+02  0.56696399820E+01  0.14296489815E+03  0.12509000000E+03 0.  0.
         25    1    4    4    0    0 -0.40353188816E+02 -0.15810193973E+02 -0.26727933962E+02  0.13505640538E+03  0.12509000000E+03 0.  0.
         25    1    3    3    0    0  0.26760195391E+02  0.83445537668E+02  0.13851879013E+03  0.20618978911E+03  0.12509000000E+03 0.  0.
<mgrwt>
<rscale>  2 0.46974825E+03</rscale>
<asrwt>0</asrwt>
<pdfrwt beam="1">  1       21 0.44240558E-01 0.46974825E+03</pdfrwt>
<pdfrwt beam="2">  1       21 0.26966956E-01 0.46974825E+03</pdfrwt>
<totfact> 0.59161431E+04</totfact>
</mgrwt>
</event>
<event>
 7    0  0.4737014E-002  0.4535006E+03  0.7546771E-02  0.1026683E+00
         21   -1    0    0  502  501  0.00000000000E+00  0.00000000000E+00  0.19288030339E+03  0.19288030339E+03  0.00000000000E+00 0. -1.
         21   -1    0    0  501  502 -0.00000000000E+00 -0.00000000000E+00 -0.26656793976E+03  0.26656793976E+03  0.00000000000E+00 0. -1.
      99926    2    1    2    0    0  0.00000000000E+00  0.00000000000E+00 -0.73687636376E+02  0.45944824315E+03  0.45350062886E+03 0.  0.
      99925    2    3    3    0    0 -0.10639281589E+03  0.26682985788E+02 -0.68296761353E+02  0.29299109359E+03  0.26295992149E+03 0.  0.
         25    1    4    4    0    0 -0.79118753257E+02 -0.81711353163E+01 -0.60395569381E+02  0.16006772776E+03  0.12509000000E+03 0.  0.
         25    1    4    4    0    0 -0.27274062631E+02  0.34854121105E+02 -0.79011919718E+01  0.13292336584E+03  0.12509000000E+03 0.  0.
         25    1    3    3    0    0  0.10639281589E+03 -0.26682985788E+02 -0.53908750232E+01  0.16645714955E+03  0.12509000000E+03 0.  0.
<mgrwt>
<rscale>  2 0.45350063E+03</rscale>
<asrwt>0</asrwt>
<pdfrwt beam="1">  1       21 0.28364751E-01 0.45350063E+03</pdfrwt>
<pdfrwt beam="2">  1       21 0.39201167E-01 0.45350063E+03</pdfrwt>
<totfact> 0.69042585E+04</totfact>
</mgrwt>
</event>
<event>
 7    0  0.4737014E-002  0.4907787E+03  0.7546771E-02  0.1016214E+00
         21   -1    0    0  502  501  0.00000000000E+00  0.00000000000E+00  0.57620343087E+03  0.57620343087E+03  0.00000000000E+00 0.  1.
         21   -1    0    0  501  502 -0.00000000000E+00 -0.00000000000E+00 -0.10450464297E+03  0.10450464297E+03  0.00000000000E+00 0.  1.
      99926    2    1    2    0    0  0.00000000000E+00  0.00000000000E+00  0.47169878790E+03  0.68070807384E+03  0.49077870297E+03 0.  0.
      99925    2    3    3    0    0 -0.26220031130E+02 -0.11350518031E+03  0.17082621718E+03  0.33466945187E+03  0.26315609350E+03 0.  0.
         25    1    4    4    0    0 -0.27227647891E+02 -0.74379689038E+02  0.49632923573E+02  0.15615574967E+03  0.12509000000E+03 0.  0.
         25    1    3    3    0    0  0.26220031130E+02  0.11350518031E+03  0.30087257072E+03  0.34603862198E+03  0.12509000000E+03 0.  0.
         25    1    4    4    0    0  0.10076167610E+01 -0.39125491269E+02  0.12119329361E+03  0.17851370220E+03  0.12509000000E+03 0.  0.
<mgrwt>
<rscale>  2 0.49077870E+03</rscale>
<asrwt>0</asrwt>
<pdfrwt beam="1">  1       21 0.84735797E-01 0.49077870E+03</pdfrwt>
<pdfrwt beam="2">  1       21 0.15368330E-01 0.49077870E+03</pdfrwt>
<totfact> 0.41089459E+04</totfact>
</mgrwt>
</event>
<event>
 7    0  0.4737014E-002  0.4551831E+03  0.7546771E-02  0.1026188E+00
         21   -1    0    0  502  501  0.00000000000E+00  0.00000000000E+00  0.15610936717E+03  0.15610936717E+03  0.00000000000E+00 0.  1.
         21   -1    0    0  501  502 -0.00000000000E+00 -0.00000000000E+00 -0.33180536075E+03  0.33180536075E+03  0.00000000000E+00 0.  1.
      99926    2    1    2    0    0  0.00000000000E+00  0.00000000000E+00 -0.17569599358E+03  0.48791472793E+03  0.45518314947E+03 0.  0.
      99925    2    3    3    0    0  0.78508721468E+02 -0.61109558816E+02 -0.52238723428E+02  0.28595630849E+03  0.26295271175E+03 0.  0.
         25    1    4    4    0    0  0.31072306464E+02 -0.70459701789E+02 -0.22758524433E+02  0.14864560653E+03  0.12509000000E+03 0.  0.
         25    1    3    3    0    0 -0.78508721468E+02  0.61109558816E+02 -0.12345727016E+03  0.20195841943E+03  0.12509000000E+03 0.  0.
         25    1    4    4    0    0  0.47436415004E+02  0.93501429726E+01 -0.29480198994E+02  0.13731070197E+03  0.12509000000E+03 0.  0.
<mgrwt>
<rscale>  2 0.45518315E+03</rscale>
<asrwt>0</asrwt>
<pdfrwt beam="1">  1       21 0.22957260E-01 0.45518315E+03</pdfrwt>
<pdfrwt beam="2">  1       21 0.48794905E-01 0.45518315E+03</pdfrwt>
<totfact> 0.66032265E+04</totfact>
</mgrwt>
</event>
<event>
 7    0  0.4737014E-002  0.4563502E+03  0.7546771E-02  0.1025845E+00
         21   -1    0    0  502  501  0.00000000000E+00  0.00000000000E+00  0.25693489545E+03  0.25693489545E+03  0.00000000000E+00 0. -1.
         21   -1    0    0  501  502 -0.00000000000E+00 -0.00000000000E+00 -0.20263450096E+03  0.20263450096E+03  0.00000000000E+00 0. -1.
      99926    2    1    2    0    0  0.00000000000E+00  0.00000000000E+00  0.54300394488E+02  0.45956939641E+03  0.45635019149E+03 0.  0.
      99925    2    3    3    0    0  0.48909800872E+01 -0.39591900616E+02  0.14226531690E+03  0.30152897135E+03  0.26284759822E+03 0.  0.
         25    1    3    3    0    0 -0.48909800872E+01  0.39591900616E+02 -0.87964922409E+02  0.15804042507E+03  0.12509000000E+03 0.  0.
         25    1    4    4    0    0  0.30621314812E+02 -0.45501147771E+02  0.57867670919E+02  0.14833810976E+03  0.12509000000E+03 0.  0.
         25    1    4    4    0    0 -0.25730334725E+02  0.59092471551E+01  0.84397645978E+02  0.15319086159E+03  0.12509000000E+03 0.  0.
<mgrwt>
<rscale>  2 0.45635019E+03</rscale>
<asrwt>0</asrwt>
<pdfrwt beam="1">  1       21 0.37784544E-01 0.45635019E+03</pdfrwt>
<pdfrwt beam="2">  1       21 0.29799191E-01 0.45635019E+03</pdfrwt>
<totfact> 0.67482339E+04</totfact>
</mgrwt>
</event>
<event>
 7    0  0.4737014E-002  0.4497329E+03  0.7546771E-02  0.1027802E+00
         21   -1    0    0  502  501  0.00000000000E+00  0.00000000000E+00  0.39834157704E+03  0.39834157704E+03  0.00000000000E+00 0. -1.
         21   -1    0    0  501  502 -0.00000000000E+00 -0.00000000000E+00 -0.12693862124E+03  0.12693862124E+03  0.00000000000E+00 0. -1.
      99926    2    1    2    0    0  0.00000000000E+00  0.31918911958E-14  0.27140295580E+03  0.52528019828E+03  0.44973294552E+03 0.  0.
      99925    2    3    3    0    0  0.44392725849E+02  0.10876694766E+00  0.56538891416E+02  0.27272366955E+03  0.26307950842E+03 0.  0.
         25    1    4    4    0    0  0.40288526512E+02  0.27202610600E+02  0.38713809488E+01  0.13425961076E+03  0.12509000000E+03 0.  0.
         25    1    4    4    0    0  0.41041993367E+01 -0.27093843653E+02  0.52667510467E+02  0.13846405878E+03  0.12509000000E+03 0.  0.
         25    1    3    3    0    0 -0.44392725849E+02 -0.10876694766E+00  0.21486406439E+03  0.25255652873E+03  0.12509000000E+03 0.  0.
<mgrwt>
<rscale>  2 0.44973295E+03</rscale>
<asrwt>0</asrwt>
<pdfrwt beam="1">  1       21 0.58579643E-01 0.44973295E+03</pdfrwt>
<pdfrwt beam="2">  1       21 0.18667444E-01 0.44973295E+03</pdfrwt>
<totfact> 0.66249748E+04</totfact>
</mgrwt>
</event>
<event>
 7    0  0.4737014E-002  0.4583693E+03  0.7546771E-02  0.1025255E+00
         21   -1    0    0  502  501  0.00000000000E+00  0.00000000000E+00  0.65417024221E+02  0.65417024221E+02  0.00000000000E+00 0.  1.
         21   -1    0    0  501  502 -0.00000000000E+00 -0.00000000000E+00 -0.80293478073E+03  0.80293478073E+03  0.00000000000E+00 0.  1.
      99926    2    1    2    0    0  0.00000000000E+00  0.00000000000E+00 -0.73751775651E+03  0.86835180495E+03  0.45836930089E+03 0.  0.
      99925    2    3    3    0    0  0.32925577166E+02  0.50874546252E+02 -0.27493629682E+03  0.38533893966E+03  0.26310419613E+03 0.  0.
         25    1    4    4    0    0  0.14487640940E+02  0.32044863109E+01 -0.83932870330E+02  0.15136840917E+03  0.12509000000E+03 0.  0.
         25    1    4    4    0    0  0.18437936226E+02  0.47670059941E+02 -0.19100342649E+03  0.23397053049E+03  0.12509000000E+03 0.  0.
         25    1    3    3    0    0 -0.32925577166E+02 -0.50874546252E+02 -0.46258145969E+03  0.48301286530E+03  0.12509000000E+03 0.  0.
<mgrwt>
<rscale>  2 0.45836930E+03</rscale>
<asrwt>0</asrwt>
<pdfrwt beam="1">  1       21 0.96201517E-02 0.45836930E+03</pdfrwt>
<pdfrwt beam="2">  1       21 0.11807863E+00 0.45836930E+03</pdfrwt>
<totfact> 0.43469056E+04</totfact>
</mgrwt>
</event>
<event>
 7    0  0.4737014E-002  0.4546932E+03  0.7546771E-02  0.1026332E+00
         21   -1    0    0  502  501  0.00000000000E+00  0.00000000000E+00  0.56118959994E+02  0.56118959994E+02  0.00000000000E+00 0. -1.
         21   -1    0    0  501  502 -0.00000000000E+00 -0.00000000000E+00 -0.92101640709E+03  0.92101640709E+03  0.00000000000E+00 0. -1.
      99926    2    1    2    0    0  0.00000000000E+00  0.00000000000E+00 -0.86489744709E+03  0.97713536708E+03  0.45469322802E+03 0.  0.
      99925    2    3    3    0    0 -0.27005292970E+02  0.10862550911E+03 -0.51208002964E+03  0.58642265263E+03  0.26293874511E+03 0.  0.
         25    1    4    4    0    0 -0.30716023604E+02  0.93378263800E+02 -0.26656336177E+03  0.31042955432E+03  0.12509000000E+03 0.  0.
         25    1    3    3    0    0  0.27005292970E+02 -0.10862550911E+03 -0.35281741745E+03  0.39071271445E+03  0.12509000000E+03 0.  0.
         25    1    4    4    0    0  0.37107306334E+01  0.15247245311E+02 -0.24551666787E+03  0.27599309831E+03  0.12509000000E+03 0.  0.
<mgrwt>
<rscale>  2 0.45469323E+03</rscale>
<asrwt>0</asrwt>
<pdfrwt beam="1">  1       21 0.82527878E-02 0.45469323E+03</pdfrwt>
<pdfrwt beam="2">  1       21 0.13544360E+00 0.45469323E+03</pdfrwt>
<totfact> 0.40157255E+04</totfact>
</mgrwt>
</event>
<event>
 7    0  0.4737014E-002  0.4600308E+03  0.7546771E-02  0.1024772E+00
         21   -1    0    0  502  501  0.00000000000E+00  0.00000000000E+00  0.71578899499E+02  0.71578899499E+02  0.00000000000E+00 0. -1.
         21   -1    0    0  501  502 -0.00000000000E+00 -0.00000000000E+00 -0.73914364240E+03  0.73914364240E+03  0.00000000000E+00 0. -1.
      99926    2    1    2    0    0  0.44408920985E-15  0.00000000000E+00 -0.66756474290E+03  0.81072254190E+03  0.46003081851E+03 0.  0.
      99925    2    3    3    0    0  0.18830810586E+01  0.11714138093E+03 -0.39675954351E+03  0.49024069649E+03  0.26304401915E+03 0.  0.
         25    1    4    4    0    0  0.22833128626E+02  0.27685948908E+02 -0.21408886680E+03  0.25053824961E+03  0.12509000000E+03 0.  0.
         25    1    3    3    0    0 -0.18830810586E+01 -0.11714138093E+03 -0.27080519938E+03  0.32048184540E+03  0.12509000000E+03 0.  0.
         25    1    4    4    0    0 -0.20950047567E+02  0.89455432019E+02 -0.18267067671E+03  0.23970244688E+03  0.12509000000E+03 0.  0.
<mgrwt>
<rscale>  2 0.46003082E+03</rscale>
<asrwt>0</asrwt>
<pdfrwt beam="1">  1       21 0.10526309E-01 0.46003082E+03</pdfrwt>
<pdfrwt beam="2">  1       21 0.10869759E+00 0.46003082E+03</pdfrwt>
<totfact> 0.45430328E+04</totfact>
</mgrwt>
</event>
<event>
 7    0  0.4737014E-002  0.4561110E+03  0.7546771E-02  0.1025915E+00
         21   -1    0    0  502  501  0.00000000000E+00  0.00000000000E+00  0.94047906365E+02  0.94047906365E+02  0.00000000000E+00 0. -1.
         21   -1    0    0  501  502 -0.00000000000E+00 -0.00000000000E+00 -0.55300868311E+03  0.55300868311E+03  0.00000000000E+00 0. -1.
      99926    2    1    2    0    0  0.00000000000E+00  0.35527136788E-14 -0.45896077675E+03  0.64705658948E+03  0.45611099021E+03 0.  0.
      99925    2    3    3    0    0  0.10709597123E+03 -0.21976670007E+02 -0.33934411429E+03  0.44234172652E+03  0.26183822112E+03 0.  0.
         25    1    3    3    0    0 -0.10709597123E+03  0.21976670007E+02 -0.11961666246E+03  0.20471486296E+03  0.12509000000E+03 0.  0.
         25    1    4    4    0    0  0.74725894998E+02  0.13215531281E+02 -0.14229106086E+03  0.20409033233E+03  0.12509000000E+03 0.  0.
         25    1    4    4    0    0  0.32370076233E+02 -0.35192201288E+02 -0.19705305343E+03  0.23825139419E+03  0.12509000000E+03 0.  0.
<mgrwt>
<rscale>  2 0.45611099E+03</rscale>
<asrwt>0</asrwt>
<pdfrwt beam="1">  1       21 0.13830574E-01 0.45611099E+03</pdfrwt>
<pdfrwt beam="2">  1       21 0.81324807E-01 0.45611099E+03</pdfrwt>
<totfact> 0.55384308E+04</totfact>
</mgrwt>
</event>
<event>
 7    0  0.4737014E-002  0.4213007E+03  0.7546771E-02  0.1036644E+00
         21   -1    0    0  502  501  0.00000000000E+00  0.00000000000E+00  0.19625910115E+03  0.19625910115E+03  0.00000000000E+00 0.  1.
         21   -1    0    0  501  502 -0.00000000000E+00 -0.00000000000E+00 -0.22609684232E+03  0.22609684232E+03  0.00000000000E+00 0.  1.
      99926    2    1    2    0    0  0.00000000000E+00  0.00000000000E+00 -0.29837741173E+02  0.42235594347E+03  0.42130066721E+03 0.  0.
      99925    2    3    3    0    0  0.42589366639E+02  0.36548211680E+02  0.34013902503E+02  0.27111386458E+03  0.26305162245E+03 0.  0.
         25    1    4    4    0    0 -0.45990136755E+01 -0.68005817870E+01 -0.43188910976E+01  0.12543348739E+03  0.12509000000E+03 0.  0.
         25    1    4    4    0    0  0.47188380315E+02  0.43348793467E+02  0.38332793601E+02  0.14568037719E+03  0.12509000000E+03 0.  0.
         25    1    3    3    0    0 -0.42589366639E+02 -0.36548211680E+02 -0.63851643676E+02  0.15124207889E+03  0.12509000000E+03 0.  0.
<mgrwt>
<rscale>  2 0.42130067E+03</rscale>
<asrwt>0</asrwt>
<pdfrwt beam="1">  1       21 0.28861632E-01 0.42130067E+03</pdfrwt>
<pdfrwt beam="2">  1       21 0.33249536E-01 0.42130067E+03</pdfrwt>
<totfact> 0.93802903E+04</totfact>
</mgrwt>
</event>
<event>
 7    0  0.4737014E-002  0.4578960E+03  0.7546771E-02  0.1025393E+00
         21   -1    0    0  502  501  0.00000000000E+00  0.00000000000E+00  0.61072255995E+03  0.61072255995E+03  0.00000000000E+00 0.  1.
         21   -1    0    0  501  502 -0.00000000000E+00 -0.00000000000E+00 -0.85828159057E+02  0.85828159057E+02  0.00000000000E+00 0.  1.
      99926    2    1    2    0    0  0.00000000000E+00  0.00000000000E+00  0.52489440090E+03  0.69655071901E+03  0.45789602757E+03 0.  0.
      99925    2    3    3    0    0 -0.58501248850E+02  0.84242367018E+02  0.41121684009E+03  0.49884065744E+03  0.26310366667E+03 0.  0.
         25    1    3    3    0    0  0.58501248850E+02 -0.84242367018E+02  0.11367756080E+03  0.19771006157E+03  0.12509000000E+03 0.  0.
         25    1    4    4    0    0 -0.30154987936E+02  0.59796988055E+02  0.14805740346E+03  0.20506951479E+03  0.12509000000E+03 0.  0.
         25    1    4    4    0    0 -0.28346260914E+02  0.24445378963E+02  0.26315943663E+03  0.29377114264E+03  0.12509000000E+03 0.  0.
<mgrwt>
<rscale>  2 0.45789603E+03</rscale>
<asrwt>0</asrwt>
<pdfrwt beam="1">  1       21 0.89812139E-01 0.45789603E+03</pdfrwt>
<pdfrwt beam="2">  1       21 0.12621788E-01 0.45789603E+03</pdfrwt>
<totfact> 0.51897566E+04</totfact>
</mgrwt>
</event>
<event>
 7    0  0.4737014E-002  0.4455631E+03  0.7546771E-02  0.1029053E+00
         21   -1    0    0  502  501  0.00000000000E+00  0.00000000000E+00  0.35132057882E+02  0.35132057882E+02  0.00000000000E+00 0.  1.
         21   -1    0    0  501  502 -0.00000000000E+00 -0.00000000000E+00 -0.14127159215E+04  0.14127159215E+04  0.00000000000E+00 0.  1.
      99926    2    1    2    0    0  0.71054273576E-14  0.00000000000E+00 -0.13775838636E+04  0.14478479794E+04  0.44556309329E+03 0.  0.
      99925    2    3    3    0    0 -0.63720518938E+02 -0.80256310283E+02 -0.81618261974E+03  0.86362178637E+03  0.26303448681E+03 0.  0.
         25    1    3    3    0    0  0.63720518938E+02  0.80256310283E+02 -0.56140124385E+03  0.58422619299E+03  0.12509000000E+03 0.  0.
         25    1    4    4    0    0 -0.54742096465E+02 -0.70726949836E+01 -0.37401575243E+03  0.39822356950E+03  0.12509000000E+03 0.  0.
         25    1    4    4    0    0 -0.89784224734E+01 -0.73183615299E+02 -0.44216686731E+03  0.46539821687E+03  0.12509000000E+03 0.  0.
<mgrwt>
<rscale>  2 0.44556309E+03</rscale>
<asrwt>0</asrwt>
<pdfrwt beam="1">  1       21 0.51664791E-02 0.44556309E+03</pdfrwt>
<pdfrwt beam="2">  1       21 0.20775234E+00 0.44556309E+03</pdfrwt>
<totfact> 0.27011265E+04</totfact>
</mgrwt>
</event>
<event>
 7    0  0.4737014E-002  0.4576221E+03  0.7546771E-02  0.1025473E+00
         21   -1    0    0  502  501  0.00000000000E+00  0.00000000000E+00  0.16203233469E+03  0.16203233469E+03  0.00000000000E+00 0.  1.
         21   -1    0    0  501  502 -0.00000000000E+00 -0.00000000000E+00 -0.32311145546E+03  0.32311145546E+03  0.00000000000E+00 0.  1.
      99926    2    1    2    0    0 -0.14210854715E-13 -0.71054273576E-14 -0.16107912078E+03  0.48514379015E+03  0.45762213011E+03 0.  0.
      99925    2    3    3    0    0 -0.84727390762E+02 -0.57154406363E+02 -0.43734525395E+02  0.28548753786E+03  0.26295449920E+03 0.  0.
         25    1    3    3    0    0  0.84727390762E+02  0.57154406363E+02 -0.11734459538E+03  0.19965625229E+03  0.12509000000E+03 0.  0.
         25    1    4    4    0    0 -0.59918087878E+02 -0.67321045784E+02 -0.25213952378E+02  0.15622276388E+03  0.12509000000E+03 0.  0.
         25    1    4    4    0    0 -0.24809302884E+02  0.10166639421E+02 -0.18520573017E+02  0.12926477398E+03  0.12509000000E+03 0.  0.
<mgrwt>
<rscale>  2 0.45762213E+03</rscale>
<asrwt>0</asrwt>
<pdfrwt beam="1">  1       21 0.23828285E-01 0.45762213E+03</pdfrwt>
<pdfrwt beam="2">  1       21 0.47516390E-01 0.45762213E+03</pdfrwt>
<totfact> 0.64964735E+04</totfact>
</mgrwt>
</event>
<event>
 7    0  0.4737014E-002  0.4631645E+03  0.7546771E-02  0.1023867E+00
         21   -1    0    0  502  501  0.00000000000E+00  0.00000000000E+00  0.48332546837E+03  0.48332546837E+03  0.00000000000E+00 0. -1.
         21   -1    0    0  501  502 -0.00000000000E+00 -0.00000000000E+00 -0.11096111955E+03  0.11096111955E+03  0.00000000000E+00 0. -1.
      99926    2    1    2    0    0  0.00000000000E+00  0.00000000000E+00  0.37236434882E+03  0.59428658792E+03  0.46316448516E+03 0.  0.
      99925    2    3    3    0    0 -0.94918929420E+02 -0.69360783432E+02  0.19768341809E+03  0.34937546710E+03  0.26299042147E+03 0.  0.
         25    1    4    4    0    0 -0.20932573467E+02 -0.38964288059E+02  0.55567244535E+02  0.14384580335E+03  0.12509000000E+03 0.  0.
         25    1    4    4    0    0 -0.73986355954E+02 -0.30396495373E+02  0.14211617355E+03  0.20552966375E+03  0.12509000000E+03 0.  0.
         25    1    3    3    0    0  0.94918929420E+02  0.69360783432E+02  0.17468093073E+03  0.24491112082E+03  0.12509000000E+03 0.  0.
<mgrwt>
<rscale>  2 0.46316449E+03</rscale>
<asrwt>0</asrwt>
<pdfrwt beam="1">  1       21 0.71077274E-01 0.46316449E+03</pdfrwt>
<pdfrwt beam="2">  1       21 0.16317812E-01 0.46316449E+03</pdfrwt>
<totfact> 0.55371203E+04</totfact>
</mgrwt>
</event>
<event>
 7    0  0.4737014E-002  0.4588439E+03  0.7546771E-02  0.1025117E+00
         21   -1    0    0  502  501  0.00000000000E+00  0.00000000000E+00  0.79630348925E+03  0.79630348925E+03  0.00000000000E+00 0. -1.
         21   -1    0    0  501  502 -0.00000000000E+00 -0.00000000000E+00 -0.66098469905E+02  0.66098469905E+02  0.00000000000E+00 0. -1.
      99926    2    1    2    0    0 -0.35527136788E-14  0.00000000000E+00  0.73020501934E+03  0.86240195915E+03  0.45884394828E+03 0.  0.
      99925    2    3    3    0    0 -0.15481197215E+02 -0.38506786447E+02  0.66300315865E+03  0.71446265318E+03  0.26298527400E+03 0.  0.
         25    1    4    4    0    0  0.31544908310E+02 -0.24325288755E+02  0.30422443063E+03  0.33134093198E+03  0.12509000000E+03 0.  0.
         25    1    4    4    0    0 -0.47026105525E+02 -0.14181497692E+02  0.35877872802E+03  0.38312172120E+03  0.12509000000E+03 0.  0.
         25    1    3    3    0    0  0.15481197215E+02  0.38506786447E+02  0.67201860691E+02  0.14793930597E+03  0.12509000000E+03 0.  0.
<mgrwt>
<rscale>  2 0.45884395E+03</rscale>
<asrwt>0</asrwt>
<pdfrwt beam="1">  1       21 0.11710345E+00 0.45884395E+03</pdfrwt>
<pdfrwt beam="2">  1       21 0.97203637E-02 0.45884395E+03</pdfrwt>
<totfact> 0.43561262E+04</totfact>
</mgrwt>
</event>
<event>
 7    0  0.4737014E-002  0.4593325E+03  0.7546771E-02  0.1024975E+00
         21   -1    0    0  502  501  0.00000000000E+00  0.00000000000E+00  0.52810910903E+02  0.52810910903E+02  0.00000000000E+00 0.  1.
         21   -1    0    0  501  502 -0.00000000000E+00 -0.00000000000E+00 -0.99878212789E+03  0.99878212789E+03  0.00000000000E+00 0.  1.
      99926    2    1    2    0    0 -0.35527136788E-14  0.00000000000E+00 -0.94597121698E+03  0.10515930388E+04  0.45933253300E+03 0.  0.
      99925    2    3    3    0    0  0.24809250648E+02 -0.92699045345E+02 -0.74718287334E+03  0.79787483764E+03  0.26289427228E+03 0.  0.
         25    1    4    4    0    0 -0.15501060876E+02 -0.51953105597E+02 -0.45363617105E+03  0.47367994665E+03  0.12509000000E+03 0.  0.
         25    1    4    4    0    0  0.40310311524E+02 -0.40745939748E+02 -0.29354670229E+03  0.32419489099E+03  0.12509000000E+03 0.  0.
         25    1    3    3    0    0 -0.24809250648E+02  0.92699045345E+02 -0.19878834364E+03  0.25371820115E+03  0.12509000000E+03 0.  0.
<mgrwt>
<rscale>  2 0.45933253E+03</rscale>
<asrwt>0</asrwt>
<pdfrwt beam="1">  1       21 0.77663106E-02 0.45933253E+03</pdfrwt>
<pdfrwt beam="2">  1       21 0.14687972E+00 0.45933253E+03</pdfrwt>
<totfact> 0.35986573E+04</totfact>
</mgrwt>
</event>
<event>
 7    0  0.4737014E-002  0.4475563E+03  0.7546771E-02  0.1028453E+00
         21   -1    0    0  502  501  0.00000000000E+00  0.00000000000E+00  0.70119214803E+02  0.70119214803E+02  0.00000000000E+00 0.  1.
         21   -1    0    0  501  502 -0.00000000000E+00 -0.00000000000E+00 -0.71416469842E+03  0.71416469842E+03  0.00000000000E+00 0.  1.
      99926    2    1    2    0    0  0.35527136788E-14  0.00000000000E+00 -0.64404548361E+03  0.78428391322E+03  0.44755633341E+03 0.  0.
      99925    2    3    3    0    0 -0.27362413219E+02  0.75916197851E+02 -0.28776316200E+03  0.39815366117E+03  0.26307171977E+03 0.  0.
         25    1    4    4    0    0  0.26155753175E+02  0.29450617671E+02 -0.14579681193E+03  0.19610120034E+03  0.12509000000E+03 0.  0.
         25    1    3    3    0    0  0.27362413219E+02 -0.75916197851E+02 -0.35628232162E+03  0.38613025205E+03  0.12509000000E+03 0.  0.
         25    1    4    4    0    0 -0.53518166394E+02  0.46465580180E+02 -0.14196635006E+03  0.20205246083E+03  0.12509000000E+03 0.  0.
<mgrwt>
<rscale>  2 0.44755633E+03</rscale>
<asrwt>0</asrwt>
<pdfrwt beam="1">  1       21 0.10311650E-01 0.44755633E+03</pdfrwt>
<pdfrwt beam="2">  1       21 0.10502421E+00 0.44755633E+03</pdfrwt>
<totfact> 0.51476683E+04</totfact>
</mgrwt>
</event>
<event>
 7    0  0.4737014E-002  0.4287947E+03  0.7546771E-02  0.1034241E+00
         21   -1    0    0  502  501  0.00000000000E+00  0.00000000000E+00  0.16846544562E+03  0.16846544562E+03  0.00000000000E+00 0.  1.
         21   -1    0    0  501  502 -0.00000000000E+00 -0.00000000000E+00 -0.27285254880E+03  0.27285254880E+03  0.00000000000E+00 0.  1.
      99926    2    1    2    0    0  0.00000000000E+00  0.00000000000E+00 -0.10438710318E+03  0.44131799442E+03  0.42879471183E+03 0.  0.
      99925    2    3    3    0    0  0.50311357984E+02 -0.24397348408E+02 -0.13505446374E+03  0.30090980928E+03  0.26302194165E+03 0.  0.
         25    1    4    4    0    0  0.18671395887E+02 -0.11404109933E+02 -0.22027776915E+02  0.12888524277E+03  0.12509000000E+03 0.  0.
         25    1    4    4    0    0  0.31639962097E+02 -0.12993238475E+02 -0.11302668682E+03  0.17202456651E+03  0.12509000000E+03 0.  0.
         25    1    3    3    0    0 -0.50311357984E+02  0.24397348408E+02  0.30667360563E+02  0.14040818514E+03  0.12509000000E+03 0.  0.
<mgrwt>
<rscale>  2 0.42879471E+03</rscale>
<asrwt>0</asrwt>
<pdfrwt beam="1">  1       21 0.24774331E-01 0.42879471E+03</pdfrwt>
<pdfrwt beam="2">  1       21 0.40125374E-01 0.42879471E+03</pdfrwt>
<totfact> 0.86200909E+04</totfact>
</mgrwt>
</event>
<event>
 7    0  0.4737014E-002  0.4547177E+03  0.7546771E-02  0.1026324E+00
         21   -1    0    0  502  501  0.00000000000E+00  0.00000000000E+00  0.55135687510E+02  0.55135687510E+02  0.00000000000E+00 0. -1.
         21   -1    0    0  501  502 -0.00000000000E+00 -0.00000000000E+00 -0.93754258971E+03  0.93754258971E+03  0.00000000000E+00 0. -1.
      99926    2    1    2    0    0  0.00000000000E+00  0.00000000000E+00 -0.88240690220E+03  0.99267827722E+03  0.45471773774E+03 0.  0.
      99925    2    3    3    0    0 -0.78819600984E+02  0.35062261237E+02 -0.71429886148E+03  0.76607352635E+03  0.26306632738E+03 0.  0.
         25    1    4    4    0    0 -0.73678434249E+02  0.42056153156E+02 -0.40849959267E+03  0.43556475638E+03  0.12509000000E+03 0.  0.
         25    1    4    4    0    0 -0.51411667343E+01 -0.69938919190E+01 -0.30579926881E+03  0.33050876997E+03  0.12509000000E+03 0.  0.
         25    1    3    3    0    0  0.78819600984E+02 -0.35062261237E+02 -0.16810804072E+03  0.22660475087E+03  0.12509000000E+03 0.  0.
<mgrwt>
<rscale>  2 0.45471774E+03</rscale>
<asrwt>0</asrwt>
<pdfrwt beam="1">  1       21 0.81081897E-02 0.45471774E+03</pdfrwt>
<pdfrwt beam="2">  1       21 0.13787390E+00 0.45471774E+03</pdfrwt>
<totfact> 0.39539861E+04</totfact>
</mgrwt>
</event>
<event>
 7    0  0.4737014E-002  0.4529595E+03  0.7546771E-02  0.1026843E+00
         21   -1    0    0  502  501  0.00000000000E+00  0.00000000000E+00  0.56239496303E+03  0.56239496303E+03  0.00000000000E+00 0. -1.
         21   -1    0    0  501  502 -0.00000000000E+00 -0.00000000000E+00 -0.91204715377E+02  0.91204715377E+02  0.00000000000E+00 0. -1.
      99926    2    1    2    0    0  0.00000000000E+00  0.00000000000E+00  0.47119024765E+03  0.65359967841E+03  0.45295947957E+03 0.  0.
      99925    2    3    3    0    0 -0.81751911485E+02  0.22526474996E+02  0.40094010086E+03  0.48694612059E+03  0.26300711545E+03 0.  0.
         25    1    4    4    0    0 -0.34197498103E+02  0.50014994526E+02  0.18449711669E+03  0.23099277634E+03  0.12509000000E+03 0.  0.
         25    1    3    3    0    0  0.81751911485E+02 -0.22526474996E+02  0.70250146790E+02  0.16665355781E+03  0.12509000000E+03 0.  0.
         25    1    4    4    0    0 -0.47554413382E+02 -0.27488519529E+02  0.21644298418E+03  0.25595334426E+03  0.12509000000E+03 0.  0.
<mgrwt>
<rscale>  2 0.45295948E+03</rscale>
<asrwt>0</asrwt>
<pdfrwt beam="1">  1       21 0.82705140E-01 0.45295948E+03</pdfrwt>
<pdfrwt beam="2">  1       21 0.13412458E-01 0.45295948E+03</pdfrwt>
<totfact> 0.56396853E+04</totfact>
</mgrwt>
</event>
<event>
 7    0  0.4737014E-002  0.4570901E+03  0.7546771E-02  0.1025629E+00
         21   -1    0    0  502  501  0.00000000000E+00  0.00000000000E+00  0.72175106115E+03  0.72175106115E+03  0.00000000000E+00 0. -1.
         21   -1    0    0  501  502 -0.00000000000E+00 -0.00000000000E+00 -0.72369590182E+02  0.72369590182E+02  0.00000000000E+00 0. -1.
      99926    2    1    2    0    0  0.00000000000E+00  0.71054273576E-14  0.64938147097E+03  0.79412065134E+03  0.45709005025E+03 0.  0.
      99925    2    3    3    0    0 -0.30904687621E+02  0.41265657621E+02  0.22882016641E+03  0.35233193123E+03  0.26290904700E+03 0.  0.
         25    1    4    4    0    0  0.14524719081E+02  0.33201998727E+01  0.13774845533E+03  0.18666584111E+03  0.12509000000E+03 0.  0.
         25    1    4    4    0    0 -0.45429406702E+02  0.37945457748E+02  0.91071711077E+02  0.16566609012E+03  0.12509000000E+03 0.  0.
         25    1    3    3    0    0  0.30904687621E+02 -0.41265657621E+02  0.42056130456E+03  0.44178872010E+03  0.12509000000E+03 0.  0.
<mgrwt>
<rscale>  2 0.45709005E+03</rscale>
<asrwt>0</asrwt>
<pdfrwt beam="1">  1       21 0.10613986E+00 0.45709005E+03</pdfrwt>
<pdfrwt beam="2">  1       21 0.10642587E-01 0.45709005E+03</pdfrwt>
<totfact> 0.47270351E+04</totfact>
</mgrwt>
</event>
<event>
 7    0  0.4737014E-002  0.3895865E+03  0.7546771E-02  0.1047446E+00
         21   -1    0    0  502  501  0.00000000000E+00  0.00000000000E+00  0.63674524873E+02  0.63674524873E+02  0.00000000000E+00 0. -1.
         21   -1    0    0  501  502 -0.00000000000E+00 -0.00000000000E+00 -0.59591189113E+03  0.59591189113E+03  0.00000000000E+00 0. -1.
      99926    2    1    2    0    0  0.00000000000E+00 -0.17763568394E-14 -0.53223736626E+03  0.65958641601E+03  0.38958648095E+03 0.  0.
      99925    2    3    3    0    0 -0.44644492588E+01  0.10266154864E+02 -0.37967018889E+03  0.46197675796E+03  0.26295959256E+03 0.  0.
         25    1    3    3    0    0  0.44644492588E+01 -0.10266154864E+02 -0.15256717737E+03  0.19760965805E+03  0.12509000000E+03 0.  0.
         25    1    4    4    0    0  0.37194694909E+02  0.14341589758E+02 -0.18851811865E+03  0.22972965783E+03  0.12509000000E+03 0.  0.
         25    1    4    4    0    0 -0.41659144168E+02 -0.40754348942E+01 -0.19115207023E+03  0.23224710013E+03  0.12509000000E+03 0.  0.
<mgrwt>
<rscale>  2 0.38958648E+03</rscale>
<asrwt>0</asrwt>
<pdfrwt beam="1">  1       21 0.93639010E-02 0.38958648E+03</pdfrwt>
<pdfrwt beam="2">  1       21 0.87634099E-01 0.38958648E+03</pdfrwt>
<totfact> 0.95771657E+04</totfact>
</mgrwt>
</event>
<event>
 7    0  0.4737014E-002  0.4514011E+03  0.7546771E-02  0.1027305E+00
         21   -1    0    0  502  501  0.00000000000E+00  0.00000000000E+00  0.24604936372E+03  0.24604936372E+03  0.00000000000E+00 0.  1.
         21   -1    0    0  501  502 -0.00000000000E+00 -0.00000000000E+00 -0.20703461844E+03  0.20703461844E+03  0.00000000000E+00 0.  1.
      99926    2    1    2    0    0  0.00000000000E+00  0.00000000000E+00  0.39014745280E+02  0.45308398216E+03  0.45140109054E+03 0.  0.
      99925    2    3    3    0    0  0.69402668985E+02 -0.46053114328E+02  0.96741859989E+02  0.29209470403E+03  0.26272173272E+03 0.  0.
         25    1    4    4    0    0 -0.56697728975E+01 -0.13228769436E+02  0.49160589340E+02  0.13517181034E+03  0.12509000000E+03 0.  0.
         25    1    3    3    0    0 -0.69402668985E+02  0.46053114328E+02 -0.57727114709E+02  0.16098927813E+03  0.12509000000E+03 0.  0.
         25    1    4    4    0    0  0.75072441883E+02 -0.32824344892E+02  0.47581270649E+02  0.15692289369E+03  0.12509000000E+03 0.  0.
<mgrwt>
<rscale>  2 0.45140109E+03</rscale>
<asrwt>0</asrwt>
<pdfrwt beam="1">  1       21 0.36183730E-01 0.45140109E+03</pdfrwt>
<pdfrwt beam="2">  1       21 0.30446267E-01 0.45140109E+03</pdfrwt>
<totfact> 0.70694667E+04</totfact>
</mgrwt>
</event>
<event>
 7    0  0.4737014E-002  0.4516680E+03  0.7546771E-02  0.1027226E+00
         21   -1    0    0  502  501  0.00000000000E+00  0.00000000000E+00  0.21633240192E+03  0.21633240192E+03  0.00000000000E+00 0.  1.
         21   -1    0    0  501  502 -0.00000000000E+00 -0.00000000000E+00 -0.23575295089E+03  0.23575295089E+03  0.00000000000E+00 0.  1.
      99926    2    1    2    0    0 -0.35527136788E-14  0.00000000000E+00 -0.19420548970E+02  0.45208535280E+03  0.45166802908E+03 0.  0.
      99925    2    3    3    0    0 -0.30473038747E+02 -0.95384807776E+02 -0.58028600384E+02  0.28726740057E+03  0.26292275163E+03 0.  0.
         25    1    4    4    0    0  0.72773759369E+00 -0.59254462313E+02 -0.65577898546E+02  0.15316523686E+03  0.12509000000E+03 0.  0.
         25    1    3    3    0    0  0.30473038747E+02  0.95384807776E+02  0.38608051414E+02  0.16481795223E+03  0.12509000000E+03 0.  0.
         25    1    4    4    0    0 -0.31200776341E+02 -0.36130345463E+02  0.75492981619E+01  0.13410216370E+03  0.12509000000E+03 0.  0.
<mgrwt>
<rscale>  2 0.45166803E+03</rscale>
<asrwt>0</asrwt>
<pdfrwt beam="1">  1       21 0.31813589E-01 0.45166803E+03</pdfrwt>
<pdfrwt beam="2">  1       21 0.34669552E-01 0.45166803E+03</pdfrwt>
<totfact> 0.70618704E+04</totfact>
</mgrwt>
</event>
<event>
 7    0  0.4737014E-002  0.4567074E+03  0.7546771E-02  0.1025741E+00
         21   -1    0    0  502  501  0.00000000000E+00  0.00000000000E+00  0.95997723483E+02  0.95997723483E+02  0.00000000000E+00 0. -1.
         21   -1    0    0  501  502 -0.00000000000E+00 -0.00000000000E+00 -0.54319416317E+03  0.54319416317E+03  0.00000000000E+00 0. -1.
      99926    2    1    2    0    0  0.26645352591E-14  0.00000000000E+00 -0.44719643968E+03  0.63919188665E+03  0.45670735958E+03 0.  0.
      99925    2    3    3    0    0 -0.42800193863E+01 -0.11233847294E+03 -0.24881103085E+03  0.37911011181E+03  0.26301957481E+03 0.  0.
         25    1    3    3    0    0  0.42800193863E+01  0.11233847294E+03 -0.19838540883E+03  0.26008177484E+03  0.12509000000E+03 0.  0.
         25    1    4    4    0    0  0.25311951868E+02 -0.49446348119E+02 -0.16057007591E+03  0.21098789925E+03  0.12509000000E+03 0.  0.
         25    1    4    4    0    0 -0.29591971254E+02 -0.62892124822E+02 -0.88240954941E+02  0.16812221256E+03  0.12509000000E+03 0.  0.
<mgrwt>
<rscale>  2 0.45670736E+03</rscale>
<asrwt>0</asrwt>
<pdfrwt beam="1">  1       21 0.14117313E-01 0.45670736E+03</pdfrwt>
<pdfrwt beam="2">  1       21 0.79881493E-01 0.45670736E+03</pdfrwt>
<totfact> 0.55575842E+04</totfact>
</mgrwt>
</event>
<event>
 7    0  0.4737014E-002  0.4480328E+03  0.7546771E-02  0.1028310E+00
         21   -1    0    0  502  501  0.00000000000E+00  0.00000000000E+00  0.70508207009E+03  0.70508207009E+03  0.00000000000E+00 0.  1.
         21   -1    0    0  501  502 -0.00000000000E+00 -0.00000000000E+00 -0.71173775782E+02  0.71173775782E+02  0.00000000000E+00 0.  1.
      99926    2    1    2    0    0  0.71054273576E-14  0.00000000000E+00  0.63390829431E+03  0.77625584587E+03  0.44803282542E+03 0.  0.
      99925    2    3    3    0    0  0.29448137727E+02  0.50368860282E+02  0.24691911113E+03  0.36538804366E+03  0.26293565773E+03 0.  0.
         25    1    4    4    0    0 -0.11493029727E+02  0.54963981824E+02  0.11463323105E+03  0.17872161255E+03  0.12509000000E+03 0.  0.
         25    1    4    4    0    0  0.40941167454E+02 -0.45951215421E+01  0.13228588008E+03  0.18666643111E+03  0.12509000000E+03 0.  0.
         25    1    3    3    0    0 -0.29448137727E+02 -0.50368860282E+02  0.38698918317E+03  0.41086780221E+03  0.12509000000E+03 0.  0.
<mgrwt>
<rscale>  2 0.44803283E+03</rscale>
<asrwt>0</asrwt>
<pdfrwt beam="1">  1       21 0.10368854E+00 0.44803283E+03</pdfrwt>
<pdfrwt beam="2">  1       21 0.10466732E-01 0.44803283E+03</pdfrwt>
<totfact> 0.51705024E+04</totfact>
</mgrwt>
</event>
<event>
 7    0  0.4737014E-002  0.4439576E+03  0.7546771E-02  0.1029539E+00
         21   -1    0    0  502  501  0.00000000000E+00  0.00000000000E+00  0.97282071185E+02  0.97282071185E+02  0.00000000000E+00 0. -1.
         21   -1    0    0  501  502 -0.00000000000E+00 -0.00000000000E+00 -0.50651241818E+03  0.50651241818E+03  0.00000000000E+00 0. -1.
      99926    2    1    2    0    0  0.71054273576E-14  0.14210854715E-13 -0.40923034700E+03  0.60379448937E+03  0.44395755257E+03 0.  0.
      99925    2    3    3    0    0  0.45394531877E+02  0.65427350037E+02 -0.17022889675E+03  0.32252841787E+03  0.26211696127E+03 0.  0.
         25    1    3    3    0    0 -0.45394531877E+02 -0.65427350037E+02 -0.23900145024E+03  0.28126607150E+03  0.12509000000E+03 0.  0.
         25    1    4    4    0    0  0.21281205466E+02  0.17066921725E+02 -0.40233400734E+02  0.13420284706E+03  0.12509000000E+03 0.  0.
         25    1    4    4    0    0  0.24113326411E+02  0.48360428312E+02 -0.12999549602E+03  0.18832557081E+03  0.12509000000E+03 0.  0.
<mgrwt>
<rscale>  2 0.44395755E+03</rscale>
<asrwt>0</asrwt>
<pdfrwt beam="1">  1       21 0.14306187E-01 0.44395755E+03</pdfrwt>
<pdfrwt beam="2">  1       21 0.74487120E-01 0.44395755E+03</pdfrwt>
<totfact> 0.63834269E+04</totfact>
</mgrwt>
</event>
<event>
 7    0  0.4737014E-002  0.4577142E+03  0.7546771E-02  0.1025446E+00
         21   -1    0    0  502  501  0.00000000000E+00  0.00000000000E+00  0.18157269437E+04  0.18157269437E+04  0.00000000000E+00 0.  1.
         21   -1    0    0  501  502 -0.00000000000E+00 -0.00000000000E+00 -0.28845514244E+02  0.28845514244E+02  0.00000000000E+00 0.  1.
      99926    2    1    2    0    0  0.00000000000E+00  0.00000000000E+00  0.17868814295E+04  0.18445724580E+04  0.45771422272E+03 0.  0.
      99925    2    3    3    0    0 -0.70660124692E+02 -0.37442507479E+02  0.78568439551E+03  0.83242730854E+03  0.26313582056E+03 0.  0.
         25    1    4    4    0    0 -0.22938579286E+02 -0.52575740462E+02  0.33909024630E+03  0.36595093953E+03  0.12509000000E+03 0.  0.
         25    1    3    3    0    0  0.70660124692E+02  0.37442507479E+02  0.10011970340E+04  0.10121451494E+04  0.12509000000E+03 0.  0.
         25    1    4    4    0    0 -0.47721545407E+02  0.15133232984E+02  0.44659414920E+03  0.46647636900E+03  0.12509000000E+03 0.  0.
<mgrwt>
<rscale>  2 0.45771422E+03</rscale>
<asrwt>0</asrwt>
<pdfrwt beam="1">  1       21 0.26701859E+00 0.45771422E+03</pdfrwt>
<pdfrwt beam="2">  1       21 0.42419886E-02 0.45771422E+03</pdfrwt>
<totfact> 0.16076660E+04</totfact>
</mgrwt>
</event>
<event>
 7    0  0.4737014E-002  0.4655930E+03  0.7546771E-02  0.1023171E+00
         21   -1    0    0  502  501  0.00000000000E+00  0.00000000000E+00  0.59211728331E+03  0.59211728331E+03  0.00000000000E+00 0. -1.
         21   -1    0    0  501  502 -0.00000000000E+00 -0.00000000000E+00 -0.91526130727E+02  0.91526130727E+02  0.00000000000E+00 0. -1.
      99926    2    1    2    0    0  0.71054273576E-14 -0.71054273576E-14  0.50059115258E+03  0.68364341403E+03  0.46559297193E+03 0.  0.
      99925    2    3    3    0    0 -0.49769444567E+02  0.47619559141E+02  0.46138608452E+03  0.53555841990E+03  0.26306098554E+03 0.  0.
         25    1    4    4    0    0 -0.36162241058E+02  0.44979115167E+02  0.30612339634E+03  0.33569311933E+03  0.12509000000E+03 0.  0.
         25    1    3    3    0    0  0.49769444567E+02 -0.47619559141E+02  0.39205068060E+02  0.14808499413E+03  0.12509000000E+03 0.  0.
         25    1    4    4    0    0 -0.13607203509E+02  0.26404439736E+01  0.15526268818E+03  0.19986530057E+03  0.12509000000E+03 0.  0.
<mgrwt>
<rscale>  2 0.46559297E+03</rscale>
<asrwt>0</asrwt>
<pdfrwt beam="1">  1       21 0.87076070E-01 0.46559297E+03</pdfrwt>
<pdfrwt beam="2">  1       21 0.13459725E-01 0.46559297E+03</pdfrwt>
<totfact> 0.49534841E+04</totfact>
</mgrwt>
</event>
<event>
 7    0  0.4737014E-002  0.4582511E+03  0.7546771E-02  0.1025290E+00
         21   -1    0    0  502  501  0.00000000000E+00  0.00000000000E+00  0.46198983546E+02  0.46198983546E+02  0.00000000000E+00 0.  1.
         21   -1    0    0  501  502 -0.00000000000E+00 -0.00000000000E+00 -0.11363565265E+04  0.11363565265E+04  0.00000000000E+00 0.  1.
      99926    2    1    2    0    0 -0.14210854715E-13  0.17763568394E-14 -0.10901575429E+04  0.11825555100E+04  0.45825109479E+03 0.  0.
      99925    2    3    3    0    0 -0.98045348725E+02 -0.72112680863E+01 -0.52396061918E+03  0.59443021949E+03  0.26295943147E+03 0.  0.
         25    1    4    4    0    0 -0.13634497972E+02 -0.24578187182E+02 -0.25966398471E+03  0.28959088362E+03  0.12509000000E+03 0.  0.
         25    1    4    4    0    0 -0.84410850752E+02  0.17366919096E+02 -0.26429663447E+03  0.30483933587E+03  0.12509000000E+03 0.  0.
         25    1    3    3    0    0  0.98045348725E+02  0.72112680863E+01 -0.56619692375E+03  0.58812529052E+03  0.12509000000E+03 0.  0.
<mgrwt>
<rscale>  2 0.45825109E+03</rscale>
<asrwt>0</asrwt>
<pdfrwt beam="1">  1       21 0.67939689E-02 0.45825109E+03</pdfrwt>
<pdfrwt beam="2">  1       21 0.16711124E+00 0.45825109E+03</pdfrwt>
<totfact> 0.31898120E+04</totfact>
</mgrwt>
</event>
<event>
 7    0  0.4737014E-002  0.4445077E+03  0.7546771E-02  0.1029373E+00
         21   -1    0    0  502  501  0.00000000000E+00  0.00000000000E+00  0.40772341815E+03  0.40772341815E+03  0.00000000000E+00 0.  1.
         21   -1    0    0  501  502 -0.00000000000E+00 -0.00000000000E+00 -0.12115265770E+03  0.12115265770E+03  0.00000000000E+00 0.  1.
      99926    2    1    2    0    0  0.00000000000E+00  0.00000000000E+00  0.28657076044E+03  0.52887607585E+03  0.44450770844E+03 0.  0.
      99925    2    3    3    0    0  0.80152640365E+02 -0.62595848784E+02  0.20125481794E+03  0.34647814771E+03  0.26306067562E+03 0.  0.
         25    1    4    4    0    0  0.56808919416E+02 -0.56835936654E+02  0.72689830580E+02  0.16549591110E+03  0.12509000000E+03 0.  0.
         25    1    3    3    0    0 -0.80152640365E+02  0.62595848784E+02  0.85315942507E+02  0.18239792814E+03  0.12509000000E+03 0.  0.
         25    1    4    4    0    0  0.23343720950E+02 -0.57599121308E+01  0.12856498736E+03  0.18098223661E+03  0.12509000000E+03 0.  0.
<mgrwt>
<rscale>  2 0.44450771E+03</rscale>
<asrwt>0</asrwt>
<pdfrwt beam="1">  1       21 0.59959326E-01 0.44450771E+03</pdfrwt>
<pdfrwt beam="2">  1       21 0.17816567E-01 0.44450771E+03</pdfrwt>
<totfact> 0.68825122E+04</totfact>
</mgrwt>
</event>
<event>
 7    0  0.4737014E-002  0.4367024E+03  0.7546771E-02  0.1031763E+00
         21   -1    0    0  502  501  0.00000000000E+00  0.00000000000E+00  0.27403317899E+03  0.27403317899E+03  0.00000000000E+00 0.  1.
         21   -1    0    0  501  502 -0.00000000000E+00 -0.00000000000E+00 -0.17398349992E+03  0.17398349992E+03  0.00000000000E+00 0.  1.
      99926    2    1    2    0    0  0.00000000000E+00  0.35527136788E-14  0.10004967907E+03  0.44801667891E+03  0.43670242305E+03 0.  0.
      99925    2    3    3    0    0 -0.42969387404E+02  0.31460576607E+02 -0.16723439483E+02  0.26879724511E+03  0.26293753900E+03 0.  0.
         25    1    4    4    0    0 -0.54199222908E+02  0.28807397040E+02  0.12260549487E+02  0.13987584159E+03  0.12509000000E+03 0.  0.
         25    1    3    3    0    0  0.42969387404E+02 -0.31460576607E+02  0.11677311856E+03  0.17921943380E+03  0.12509000000E+03 0.  0.
         25    1    4    4    0    0  0.11229835503E+02  0.26531795673E+01 -0.28983988970E+02  0.12892140351E+03  0.12509000000E+03 0.  0.
<mgrwt>
<rscale>  2 0.43670242E+03</rscale>
<asrwt>0</asrwt>
<pdfrwt beam="1">  1       21 0.40298997E-01 0.43670242E+03</pdfrwt>
<pdfrwt beam="2">  1       21 0.25585809E-01 0.43670242E+03</pdfrwt>
<totfact> 0.80117578E+04</totfact>
</mgrwt>
</event>
<event>
 7    0  0.4737014E-002  0.4539656E+03  0.7546771E-02  0.1026546E+00
         21   -1    0    0  502  501  0.00000000000E+00  0.00000000000E+00  0.11921546861E+04  0.11921546861E+04  0.00000000000E+00 0. -1.
         21   -1    0    0  501  502 -0.00000000000E+00 -0.00000000000E+00 -0.43216858829E+02  0.43216858829E+02  0.00000000000E+00 0. -1.
      99926    2    1    2    0    0  0.00000000000E+00  0.00000000000E+00  0.11489378272E+04  0.12353715449E+04  0.45396555274E+03 0.  0.
      99925    2    3    3    0    0 -0.75499381332E+02 -0.68334911670E+02  0.59689357659E+03  0.66024531570E+03  0.26319596957E+03 0.  0.
         25    1    3    3    0    0  0.75499381332E+02  0.68334911670E+02  0.55204425064E+03  0.57512622918E+03  0.12509000000E+03 0.  0.
         25    1    4    4    0    0 -0.38267525839E+02 -0.36554996203E+02  0.20449625288E+03  0.24549317063E+03  0.12509000000E+03 0.  0.
         25    1    4    4    0    0 -0.37231855493E+02 -0.31779915467E+02  0.39239732371E+03  0.41475214508E+03  0.12509000000E+03 0.  0.
<mgrwt>
<rscale>  2 0.45396555E+03</rscale>
<asrwt>0</asrwt>
<pdfrwt beam="1">  1       21 0.17531684E+00 0.45396555E+03</pdfrwt>
<pdfrwt beam="2">  1       21 0.63554212E-02 0.45396555E+03</pdfrwt>
<totfact> 0.31302257E+04</totfact>
</mgrwt>
</event>
<event>
 7    0  0.4737014E-002  0.4565861E+03  0.7546771E-02  0.1025776E+00
         21   -1    0    0  502  501  0.00000000000E+00  0.00000000000E+00  0.49944913517E+03  0.49944913517E+03  0.00000000000E+00 0.  1.
         21   -1    0    0  501  502 -0.00000000000E+00 -0.00000000000E+00 -0.10435040826E+03  0.10435040826E+03  0.00000000000E+00 0.  1.
      99926    2    1    2    0    0  0.00000000000E+00  0.00000000000E+00  0.39509872692E+03  0.60379954343E+03  0.45658611963E+03 0.  0.
      99925    2    3    3    0    0 -0.80783645151E+02  0.80250914437E+02  0.23139109719E+03  0.36839796586E+03  0.26307606276E+03 0.  0.
         25    1    3    3    0    0  0.80783645151E+02 -0.80250914437E+02  0.16370762973E+03  0.23540157757E+03  0.12509000000E+03 0.  0.
         25    1    4    4    0    0 -0.74214567565E+02  0.20427545663E+02  0.13408393707E+03  0.19887457591E+03  0.12509000000E+03 0.  0.
         25    1    4    4    0    0 -0.65690775865E+01  0.59823368774E+02  0.97307160120E+02  0.16952338996E+03  0.12509000000E+03 0.  0.
<mgrwt>
<rscale>  2 0.45658612E+03</rscale>
<asrwt>0</asrwt>
<pdfrwt beam="1">  1       21 0.73448401E-01 0.45658612E+03</pdfrwt>
<pdfrwt beam="2">  1       21 0.15345648E-01 0.45658612E+03</pdfrwt>
<totfact> 0.57718325E+04</totfact>
</mgrwt>
</event>
<event>
 7    0  0.4737014E-002  0.4520513E+03  0.7546771E-02  0.1027112E+00
         21   -1    0    0  502  501  0.00000000000E+00  0.00000000000E+00  0.88308867788E+03  0.88308867788E+03  0.00000000000E+00 0.  1.
         21   -1    0    0  501  502 -0.00000000000E+00 -0.00000000000E+00 -0.57851039717E+02  0.57851039717E+02  0.00000000000E+00 0.  1.
      99926    2    1    2    0    0  0.00000000000E+00  0.00000000000E+00  0.82523763816E+03  0.94093971760E+03  0.45205131646E+03 0.  0.
      99925    2    3    3    0    0  0.92612032197E+01 -0.55405954958E+02  0.32278803527E+03  0.42011469777E+03  0.26296131624E+03 0.  0.
         25    1    3    3    0    0 -0.92612032197E+01  0.55405954958E+02  0.50244960289E+03  0.52082501983E+03  0.12509000000E+03 0.  0.
         25    1    4    4    0    0 -0.10972148200E+01 -0.50624855963E+01  0.10331903034E+03  0.16232425195E+03  0.12509000000E+03 0.  0.
         25    1    4    4    0    0  0.10358418040E+02 -0.50343469361E+02  0.21946900493E+03  0.25779044582E+03  0.12509000000E+03 0.  0.
<mgrwt>
<rscale>  2 0.45205132E+03</rscale>
<asrwt>0</asrwt>
<pdfrwt beam="1">  1       21 0.12986597E+00 0.45205132E+03</pdfrwt>
<pdfrwt beam="2">  1       21 0.85075064E-02 0.45205132E+03</pdfrwt>
<totfact> 0.42481068E+04</totfact>
</mgrwt>
</event>
<event>
 7    0  0.4737014E-002  0.4610252E+03  0.7546771E-02  0.1024484E+00
         21   -1    0    0  502  501  0.00000000000E+00  0.00000000000E+00  0.83052533434E+03  0.83052533434E+03  0.00000000000E+00 0.  1.
         21   -1    0    0  501  502 -0.00000000000E+00 -0.00000000000E+00 -0.63978856018E+02  0.63978856018E+02  0.00000000000E+00 0.  1.
      99926    2    1    2    0    0  0.00000000000E+00  0.00000000000E+00  0.76654647832E+03  0.89450419036E+03  0.46102520879E+03 0.  0.
      99925    2    3    3    0    0 -0.55245167071E+02 -0.54892134518E+02  0.30559940918E+03  0.41057766332E+03  0.26290272690E+03 0.  0.
         25    1    3    3    0    0  0.55245167071E+02  0.54892134518E+02  0.46094706914E+03  0.48392652704E+03  0.12509000000E+03 0.  0.
         25    1    4    4    0    0 -0.56961913688E+01 -0.57734299248E+02  0.17766253831E+03  0.22489371162E+03  0.12509000000E+03 0.  0.
         25    1    4    4    0    0 -0.49548975702E+02  0.28421647307E+01  0.12793687087E+03  0.18568395170E+03  0.12509000000E+03 0.  0.
<mgrwt>
<rscale>  2 0.46102521E+03</rscale>
<asrwt>0</asrwt>
<pdfrwt beam="1">  1       21 0.12213607E+00 0.46102521E+03</pdfrwt>
<pdfrwt beam="2">  1       21 0.94086558E-02 0.46102521E+03</pdfrwt>
<totfact> 0.41480283E+04</totfact>
</mgrwt>
</event>
<event>
 7    0  0.4737014E-002  0.4613435E+03  0.7546771E-02  0.1024392E+00
         21   -1    0    0  502  501  0.00000000000E+00  0.00000000000E+00  0.52847594738E+02  0.52847594738E+02  0.00000000000E+00 0.  1.
         21   -1    0    0  501  502 -0.00000000000E+00 -0.00000000000E+00 -0.10068471239E+04  0.10068471239E+04  0.00000000000E+00 0.  1.
      99926    2    1    2    0    0  0.00000000000E+00  0.00000000000E+00 -0.95399952911E+03  0.10596947186E+04  0.46134346756E+03 0.  0.
      99925    2    3    3    0    0  0.87093920366E+02  0.75886738830E+02 -0.66585857670E+03  0.72500551253E+03  0.26252847643E+03 0.  0.
         25    1    3    3    0    0 -0.87093920366E+02 -0.75886738830E+02 -0.28814095241E+03  0.33468920606E+03  0.12509000000E+03 0.  0.
         25    1    4    4    0    0  0.52906034253E+02  0.37547016101E+02 -0.24130172072E+03  0.27943309646E+03  0.12509000000E+03 0.  0.
         25    1    4    4    0    0  0.34187886113E+02  0.38339722729E+02 -0.42455685598E+03  0.44557241607E+03  0.12509000000E+03 0.  0.
<mgrwt>
<rscale>  2 0.46134347E+03</rscale>
<asrwt>0</asrwt>
<pdfrwt beam="1">  1       21 0.77717057E-02 0.46134347E+03</pdfrwt>
<pdfrwt beam="2">  1       21 0.14806574E+00 0.46134347E+03</pdfrwt>
<totfact> 0.35150909E+04</totfact>
</mgrwt>
</event>
<event>
 7    0  0.4737014E-002  0.4578127E+03  0.7546771E-02  0.1025418E+00
         21   -1    0    0  502  501  0.00000000000E+00  0.00000000000E+00  0.79210905655E+03  0.79210905655E+03  0.00000000000E+00 0. -1.
         21   -1    0    0  501  502 -0.00000000000E+00 -0.00000000000E+00 -0.66150131401E+02  0.66150131401E+02  0.00000000000E+00 0. -1.
      99926    2    1    2    0    0 -0.71054273576E-14  0.71054273576E-14  0.72595892515E+03  0.85825918795E+03  0.45781270482E+03 0.  0.
      99925    2    3    3    0    0 -0.62414458507E+02  0.37920410915E+02  0.62413138421E+03  0.68120021927E+03  0.26298332987E+03 0.  0.
         25    1    3    3    0    0  0.62414458507E+02 -0.37920410915E+02  0.10182754094E+03  0.17705896868E+03  0.12509000000E+03 0.  0.
         25    1    4    4    0    0 -0.28650686796E+02  0.52964119269E+02  0.37716647373E+03  0.40190560681E+03  0.12509000000E+03 0.  0.
         25    1    4    4    0    0 -0.33763771711E+02 -0.15043708354E+02  0.24696491048E+03  0.27929461246E+03  0.12509000000E+03 0.  0.
<mgrwt>
<rscale>  2 0.45781270E+03</rscale>
<asrwt>0</asrwt>
<pdfrwt beam="1">  1       21 0.11648662E+00 0.45781270E+03</pdfrwt>
<pdfrwt beam="2">  1       21 0.97279610E-02 0.45781270E+03</pdfrwt>
<totfact> 0.44091293E+04</totfact>
</mgrwt>
</event>
<event>
 7    0  0.4737014E-002  0.4599450E+03  0.7546771E-02  0.1024797E+00
         21   -1    0    0  502  501  0.00000000000E+00  0.00000000000E+00  0.13054102140E+04  0.13054102140E+04  0.00000000000E+00 0. -1.
         21   -1    0    0  501  502 -0.00000000000E+00 -0.00000000000E+00 -0.40513975852E+02  0.40513975852E+02  0.00000000000E+00 0. -1.
      99926    2    1    2    0    0  0.00000000000E+00  0.14210854715E-13  0.12648962382E+04  0.13459241899E+04  0.45994503101E+03 0.  0.
      99925    2    3    3    0    0  0.39547009657E+02  0.11031972044E+03  0.73999910249E+03  0.79374766209E+03  0.26211118384E+03 0.  0.
         25    1    4    4    0    0  0.15235554811E+02  0.41752978437E+02  0.25311998443E+03  0.28581929248E+03  0.12509000000E+03 0.  0.
         25    1    4    4    0    0  0.24311454846E+02  0.68566742006E+02  0.48687911806E+03  0.50792836960E+03  0.12509000000E+03 0.  0.
         25    1    3    3    0    0 -0.39547009657E+02 -0.11031972044E+03  0.52489713569E+03  0.55217652780E+03  0.12509000000E+03 0.  0.
<mgrwt>
<rscale>  2 0.45994503E+03</rscale>
<asrwt>0</asrwt>
<pdfrwt beam="1">  1       21 0.19197206E+00 0.45994503E+03</pdfrwt>
<pdfrwt beam="2">  1       21 0.59579385E-02 0.45994503E+03</pdfrwt>
<totfact> 0.26765542E+04</totfact>
</mgrwt>
</event>
<event>
 7    0  0.4737014E-002  0.4693780E+03  0.7546771E-02  0.1022096E+00
         21   -1    0    0  502  501  0.00000000000E+00  0.00000000000E+00  0.49847019377E+03  0.49847019377E+03  0.00000000000E+00 0. -1.
         21   -1    0    0  501  502 -0.00000000000E+00 -0.00000000000E+00 -0.11049591249E+03  0.11049591249E+03  0.00000000000E+00 0. -1.
      99926    2    1    2    0    0  0.00000000000E+00  0.71054273576E-14  0.38797428128E+03  0.60896610627E+03  0.46937796672E+03 0.  0.
      99925    2    3    3    0    0 -0.10056822002E+03  0.47044677056E+02  0.31881052857E+03  0.42797356137E+03  0.26304761468E+03 0.  0.
         25    1    3    3    0    0  0.10056822002E+03 -0.47044677056E+02  0.69163752714E+02  0.18099254489E+03  0.12509000000E+03 0.  0.
         25    1    4    4    0    0 -0.18596900983E+02 -0.62992745226E+01  0.13546107928E+03  0.18542582799E+03  0.12509000000E+03 0.  0.
         25    1    4    4    0    0 -0.81971319041E+02  0.53343951579E+02  0.18334944928E+03  0.24254773338E+03  0.12509000000E+03 0.  0.
<mgrwt>
<rscale>  2 0.46937797E+03</rscale>
<asrwt>0</asrwt>
<pdfrwt beam="1">  1       21 0.73304439E-01 0.46937797E+03</pdfrwt>
<pdfrwt beam="2">  1       21 0.16249399E-01 0.46937797E+03</pdfrwt>
<totfact> 0.51970409E+04</totfact>
</mgrwt>
</event>
<event>
 7    0  0.4737014E-002  0.4559945E+03  0.7546771E-02  0.1025949E+00
         21   -1    0    0  502  501  0.00000000000E+00  0.00000000000E+00  0.43797855268E+02  0.43797855268E+02  0.00000000000E+00 0.  1.
         21   -1    0    0  501  502 -0.00000000000E+00 -0.00000000000E+00 -0.11868789314E+04  0.11868789314E+04  0.00000000000E+00 0.  1.
      99926    2    1    2    0    0  0.00000000000E+00  0.00000000000E+00 -0.11430810761E+04  0.12306767866E+04  0.45599452478E+03 0.  0.
      99925    2    3    3    0    0 -0.85045197183E+02 -0.75424246113E+02 -0.74700309988E+03  0.80004147246E+03  0.26292817264E+03 0.  0.
         25    1    4    4    0    0 -0.65220432281E+00 -0.41110507977E+02 -0.33804095117E+03  0.36278050113E+03  0.12509000000E+03 0.  0.
         25    1    4    4    0    0 -0.84392992860E+02 -0.34313738136E+02 -0.40896214871E+03  0.43726097133E+03  0.12509000000E+03 0.  0.
         25    1    3    3    0    0  0.85045197183E+02  0.75424246113E+02 -0.39607797620E+03  0.43063531416E+03  0.12509000000E+03 0.  0.
<mgrwt>
<rscale>  2 0.45599452E+03</rscale>
<asrwt>0</asrwt>
<pdfrwt beam="1">  1       21 0.64408610E-02 0.45599452E+03</pdfrwt>
<pdfrwt beam="2">  1       21 0.17454102E+00 0.45599452E+03</pdfrwt>
<totfact> 0.30955915E+04</totfact>
</mgrwt>
</event>
<event>
 7    0  0.4737014E-002  0.4558430E+03  0.7546771E-02  0.1025994E+00
         21   -1    0    0  502  501  0.00000000000E+00  0.00000000000E+00  0.15534607380E+03  0.15534607380E+03  0.00000000000E+00 0. -1.
         21   -1    0    0  501  502 -0.00000000000E+00 -0.00000000000E+00 -0.33440305973E+03  0.33440305973E+03  0.00000000000E+00 0. -1.
      99926    2    1    2    0    0 -0.71054273576E-14  0.00000000000E+00 -0.17905698593E+03  0.48974913353E+03  0.45584296592E+03 0.  0.
      99925    2    3    3    0    0 -0.55458076301E+02 -0.50427566877E+02 -0.20480438349E+03  0.34166478490E+03  0.26300466159E+03 0.  0.
         25    1    4    4    0    0 -0.45182258501E+02 -0.24943000687E+02 -0.59063596127E+02  0.14764689720E+03  0.12509000000E+03 0.  0.
         25    1    4    4    0    0 -0.10275817800E+02 -0.25484566189E+02 -0.14574078736E+03  0.19401788770E+03  0.12509000000E+03 0.  0.
         25    1    3    3    0    0  0.55458076301E+02  0.50427566877E+02  0.25747397556E+02  0.14808434863E+03  0.12509000000E+03 0.  0.
<mgrwt>
<rscale>  2 0.45584297E+03</rscale>
<asrwt>0</asrwt>
<pdfrwt beam="1">  1       21 0.22845011E-01 0.45584297E+03</pdfrwt>
<pdfrwt beam="2">  1       21 0.49176920E-01 0.45584297E+03</pdfrwt>
<totfact> 0.65557180E+04</totfact>
</mgrwt>
</event>
<event>
 7    0  0.4737014E-002  0.4581444E+03  0.7546771E-02  0.1025321E+00
         21   -1    0    0  502  501  0.00000000000E+00  0.00000000000E+00  0.12980850432E+04  0.12980850432E+04  0.00000000000E+00 0. -1.
         21   -1    0    0  501  502 -0.00000000000E+00 -0.00000000000E+00 -0.40424209575E+02  0.40424209575E+02  0.00000000000E+00 0. -1.
      99926    2    1    2    0    0 -0.14210854715E-13  0.00000000000E+00  0.12576608336E+04  0.13385092527E+04  0.45814435206E+03 0.  0.
      99925    2    3    3    0    0 -0.11379262657E+03  0.17824216228E+02  0.83376534791E+03  0.88178027903E+03  0.26287894661E+03 0.  0.
         25    1    3    3    0    0  0.11379262657E+03 -0.17824216228E+02  0.42389548568E+03  0.45672897371E+03  0.12509000000E+03 0.  0.
         25    1    4    4    0    0 -0.49785259549E+02  0.31888197562E+02  0.31317287031E+03  0.34237433317E+03  0.12509000000E+03 0.  0.
         25    1    4    4    0    0 -0.64007367017E+02 -0.14063981333E+02  0.52059247760E+03  0.53940594586E+03  0.12509000000E+03 0.  0.
<mgrwt>
<rscale>  2 0.45814435E+03</rscale>
<asrwt>0</asrwt>
<pdfrwt beam="1">  1       21 0.19089483E+00 0.45814435E+03</pdfrwt>
<pdfrwt beam="2">  1       21 0.59447375E-02 0.45814435E+03</pdfrwt>
<totfact> 0.27341975E+04</totfact>
</mgrwt>
</event>
<event>
 7    0  0.4737014E-002  0.4570101E+03  0.7546771E-02  0.1025652E+00
         21   -1    0    0  502  501  0.00000000000E+00  0.00000000000E+00  0.62392176630E+02  0.62392176630E+02  0.00000000000E+00 0.  1.
         21   -1    0    0  501  502 -0.00000000000E+00 -0.00000000000E+00 -0.83687683780E+03  0.83687683780E+03  0.00000000000E+00 0.  1.
      99926    2    1    2    0    0  0.00000000000E+00  0.00000000000E+00 -0.77448466117E+03  0.89926901443E+03  0.45701014204E+03 0.  0.
      99925    2    3    3    0    0  0.82592515032E+02  0.44342685223E+02 -0.35535756433E+03  0.45194046775E+03  0.26302735711E+03 0.  0.
         25    1    3    3    0    0 -0.82592515032E+02 -0.44342685223E+02 -0.41912709684E+03  0.44732854668E+03  0.12509000000E+03 0.  0.
         25    1    4    4    0    0  0.56436465665E+02 -0.13125637158E+02 -0.15486391083E+03  0.20733474379E+03  0.12509000000E+03 0.  0.
         25    1    4    4    0    0  0.26156049367E+02  0.57468322382E+02 -0.20049365351E+03  0.24460572396E+03  0.12509000000E+03 0.  0.
<mgrwt>
<rscale>  2 0.45701014E+03</rscale>
<asrwt>0</asrwt>
<pdfrwt beam="1">  1       21 0.91753207E-02 0.45701014E+03</pdfrwt>
<pdfrwt beam="2">  1       21 0.12307011E+00 0.45701014E+03</pdfrwt>
<totfact> 0.42591019E+04</totfact>
</mgrwt>
</event>
<event>
 7    0  0.4737014E-002  0.4598441E+03  0.7546771E-02  0.1024826E+00
         21   -1    0    0  502  501  0.00000000000E+00  0.00000000000E+00  0.11764068503E+03  0.11764068503E+03  0.00000000000E+00 0. -1.
         21   -1    0    0  501  502 -0.00000000000E+00 -0.00000000000E+00 -0.44936956520E+03  0.44936956520E+03  0.00000000000E+00 0. -1.
      99926    2    1    2    0    0  0.00000000000E+00  0.00000000000E+00 -0.33172888017E+03  0.56701025023E+03  0.45984407567E+03 0.  0.
      99925    2    3    3    0    0 -0.93585572348E+02 -0.66477516978E+02 -0.23124789711E+03  0.36972503620E+03  0.26465731213E+03 0.  0.
         25    1    4    4    0    0 -0.52625070780E+02 -0.76066177497E+02 -0.11024426674E+03  0.19067450769E+03  0.12509000000E+03 0.  0.
         25    1    3    3    0    0  0.93585572348E+02  0.66477516978E+02 -0.10048098306E+03  0.19728521402E+03  0.12509000000E+03 0.  0.
         25    1    4    4    0    0 -0.40960501568E+02  0.95886605189E+01 -0.12100363036E+03  0.17905052851E+03  0.12509000000E+03 0.  0.
<mgrwt>
<rscale>  2 0.45984408E+03</rscale>
<asrwt>0</asrwt>
<pdfrwt beam="1">  1       21 0.17300101E-01 0.45984408E+03</pdfrwt>
<pdfrwt beam="2">  1       21 0.66083760E-01 0.45984408E+03</pdfrwt>
<totfact> 0.58483374E+04</totfact>
</mgrwt>
</event>
<event>
 7    0  0.4737014E-002  0.4529078E+03  0.7546771E-02  0.1026858E+00
         21   -1    0    0  502  501  0.00000000000E+00  0.00000000000E+00  0.17408725755E+04  0.17408725755E+04  0.00000000000E+00 0. -1.
         21   -1    0    0  501  502 -0.00000000000E+00 -0.00000000000E+00 -0.29457280827E+02  0.29457280827E+02  0.00000000000E+00 0. -1.
      99926    2    1    2    0    0 -0.14210854715E-13 -0.35527136788E-14  0.17114152947E+04  0.17703298563E+04  0.45290781552E+03 0.  0.
      99925    2    3    3    0    0 -0.74005987716E+02 -0.16057644229E+02  0.76070830795E+03  0.80844315985E+03  0.26299900906E+03 0.  0.
         25    1    3    3    0    0  0.74005987716E+02  0.16057644229E+02  0.95070698674E+03  0.96188669649E+03  0.12509000000E+03 0.  0.
         25    1    4    4    0    0  0.33369802778E+01 -0.57269329940E+01  0.38384746123E+03  0.40377012617E+03  0.12509000000E+03 0.  0.
         25    1    4    4    0    0 -0.77342967994E+02 -0.10330711235E+02  0.37686084672E+03  0.40467303367E+03  0.12509000000E+03 0.  0.
<mgrwt>
<rscale>  2 0.45290782E+03</rscale>
<asrwt>0</asrwt>
<pdfrwt beam="1">  1       21 0.25601060E+00 0.45290782E+03</pdfrwt>
<pdfrwt beam="2">  1       21 0.43319542E-02 0.45290782E+03</pdfrwt>
<totfact> 0.18129273E+04</totfact>
</mgrwt>
</event>
<event>
 7    0  0.4737014E-002  0.4613314E+03  0.7546771E-02  0.1024396E+00
         21   -1    0    0  502  501  0.00000000000E+00  0.00000000000E+00  0.37913285677E+03  0.37913285677E+03  0.00000000000E+00 0. -1.
         21   -1    0    0  501  502 -0.00000000000E+00 -0.00000000000E+00 -0.14033775657E+03  0.14033775657E+03  0.00000000000E+00 0. -1.
      99926    2    1    2    0    0 -0.44408920985E-15  0.00000000000E+00  0.23879510020E+03  0.51947061334E+03  0.46133135406E+03 0.  0.
      99925    2    3    3    0    0  0.10234581803E+01 -0.74168218885E+02  0.25424775513E+03  0.37322334053E+03  0.26296723897E+03 0.  0.
         25    1    3    3    0    0 -0.10234581803E+01  0.74168218885E+02 -0.15452654927E+02  0.14624727281E+03  0.12509000000E+03 0.  0.
         25    1    4    4    0    0  0.30488993122E+02 -0.62858375800E+02  0.11828338286E+03  0.18579348985E+03  0.12509000000E+03 0.  0.
         25    1    4    4    0    0 -0.29465534941E+02 -0.11309843085E+02  0.13596437227E+03  0.18742985068E+03  0.12509000000E+03 0.  0.
<mgrwt>
<rscale>  2 0.46133135E+03</rscale>
<asrwt>0</asrwt>
<pdfrwt beam="1">  1       21 0.55754832E-01 0.46133135E+03</pdfrwt>
<pdfrwt beam="2">  1       21 0.20637905E-01 0.46133135E+03</pdfrwt>
<totfact> 0.60810416E+04</totfact>
</mgrwt>
</event>
<event>
 7    0  0.4737014E-002  0.4532217E+03  0.7546771E-02  0.1026766E+00
         21   -1    0    0  502  501  0.00000000000E+00  0.00000000000E+00  0.11231858165E+03  0.11231858165E+03  0.00000000000E+00 0. -1.
         21   -1    0    0  501  502 -0.00000000000E+00 -0.00000000000E+00 -0.45720373478E+03  0.45720373478E+03  0.00000000000E+00 0. -1.
      99926    2    1    2    0    0  0.53290705182E-14  0.00000000000E+00 -0.34488515313E+03  0.56952231643E+03  0.45322168974E+03 0.  0.
      99925    2    3    3    0    0 -0.59607190649E+01 -0.11131137842E+03 -0.21580114858E+03  0.35801358972E+03  0.26301680852E+03 0.  0.
         25    1    4    4    0    0 -0.39351538746E+02 -0.40048925495E+02 -0.90804531213E+02  0.16445495135E+03  0.12509000000E+03 0.  0.
         25    1    3    3    0    0  0.59607190649E+01  0.11131137842E+03 -0.12908400456E+03  0.21150872670E+03  0.12509000000E+03 0.  0.
         25    1    4    4    0    0  0.33390819681E+02 -0.71262452929E+02 -0.12499661736E+03  0.19355863837E+03  0.12509000000E+03 0.  0.
<mgrwt>
<rscale>  2 0.45322169E+03</rscale>
<asrwt>0</asrwt>
<pdfrwt beam="1">  1       21 0.16517438E-01 0.45322169E+03</pdfrwt>
<pdfrwt beam="2">  1       21 0.67235844E-01 0.45322169E+03</pdfrwt>
<totfact> 0.61454259E+04</totfact>
</mgrwt>
</event>
<event>
 7    0  0.4737014E-002  0.4379824E+03  0.7546771E-02  0.1031368E+00
         21   -1    0    0  502  501  0.00000000000E+00  0.00000000000E+00  0.28331268464E+03  0.28331268464E+03  0.00000000000E+00 0.  1.
         21   -1    0    0  501  502 -0.00000000000E+00 -0.00000000000E+00 -0.16927285377E+03  0.16927285377E+03  0.00000000000E+00 0.  1.
      99926    2    1    2    0    0  0.00000000000E+00  0.00000000000E+00  0.11403983087E+03  0.45258553840E+03  0.43798240438E+03 0.  0.
      99925    2    3    3    0    0  0.24663239082E+02 -0.64006510908E+02  0.28946034382E+01  0.27173787190E+03  0.26292201029E+03 0.  0.
         25    1    4    4    0    0  0.84842006860E+01 -0.60177073345E+02  0.30934515705E+02  0.14247004660E+03  0.12509000000E+03 0.  0.
         25    1    3    3    0    0 -0.24663239082E+02  0.64006510908E+02  0.11114522743E+03  0.18084766651E+03  0.12509000000E+03 0.  0.
         25    1    4    4    0    0  0.16179038396E+02 -0.38294375630E+01 -0.28039912267E+02  0.12926782529E+03  0.12509000000E+03 0.  0.
<mgrwt>
<rscale>  2 0.43798240E+03</rscale>
<asrwt>0</asrwt>
<pdfrwt beam="1">  1       21 0.41663630E-01 0.43798240E+03</pdfrwt>
<pdfrwt beam="2">  1       21 0.24893067E-01 0.43798240E+03</pdfrwt>
<totfact> 0.78874355E+04</totfact>
</mgrwt>
</event>
<event>
 7    0  0.4737014E-002  0.4438459E+03  0.7546771E-02  0.1029573E+00
         21   -1    0    0  502  501  0.00000000000E+00  0.00000000000E+00  0.91069844099E+03  0.91069844099E+03  0.00000000000E+00 0.  1.
         21   -1    0    0  501  502 -0.00000000000E+00 -0.00000000000E+00 -0.54079154451E+02  0.54079154451E+02  0.00000000000E+00 0.  1.
      99926    2    1    2    0    0  0.00000000000E+00  0.00000000000E+00  0.85661928654E+03  0.96477759545E+03  0.44384592664E+03 0.  0.
      99925    2    3    3    0    0  0.10078201127E+03 -0.18145537291E+02  0.54689630324E+03  0.61540371433E+03  0.26294465348E+03 0.  0.
         25    1    4    4    0    0  0.47106459127E+02 -0.19627457111E+02  0.18758897706E+03  0.23117393447E+03  0.12509000000E+03 0.  0.
         25    1    4    4    0    0  0.53675552144E+02  0.14819198203E+01  0.35930732619E+03  0.38422977987E+03  0.12509000000E+03 0.  0.
         25    1    3    3    0    0 -0.10078201127E+03  0.18145537291E+02  0.30972298330E+03  0.34937388111E+03  0.12509000000E+03 0.  0.
<mgrwt>
<rscale>  2 0.44384593E+03</rscale>
<asrwt>0</asrwt>
<pdfrwt beam="1">  1       21 0.13392623E+00 0.44384593E+03</pdfrwt>
<pdfrwt beam="2">  1       21 0.79528174E-02 0.44384593E+03</pdfrwt>
<totfact> 0.44285876E+04</totfact>
</mgrwt>
</event>
<event>
 7    0  0.4737014E-002  0.4528404E+03  0.7546771E-02  0.1026878E+00
         21   -1    0    0  502  501  0.00000000000E+00  0.00000000000E+00  0.10887796577E+04  0.10887796577E+04  0.00000000000E+00 0.  1.
         21   -1    0    0  501  502 -0.00000000000E+00 -0.00000000000E+00 -0.47085838706E+02  0.47085838706E+02  0.00000000000E+00 0.  1.
      99926    2    1    2    0    0  0.00000000000E+00 -0.71054273576E-14  0.10416938190E+04  0.11358654965E+04  0.45284038403E+03 0.  0.
      99925    2    3    3    0    0  0.73532374881E+02 -0.42771177535E+02  0.83638354730E+03  0.88084353746E+03  0.26289069120E+03 0.  0.
         25    1    3    3    0    0 -0.73532374881E+02  0.42771177535E+02  0.20531027175E+03  0.25502195899E+03  0.12509000000E+03 0.  0.
         25    1    4    4    0    0  0.10159871421E+02 -0.50593870576E+02  0.38267193999E+03  0.40589196159E+03  0.12509000000E+03 0.  0.
         25    1    4    4    0    0  0.63372503460E+02  0.78226930413E+01  0.45371160730E+03  0.47495157587E+03  0.12509000000E+03 0.  0.
<mgrwt>
<rscale>  2 0.45284038E+03</rscale>
<asrwt>0</asrwt>
<pdfrwt beam="1">  1       21 0.16011464E+00 0.45284038E+03</pdfrwt>
<pdfrwt beam="2">  1       21 0.69243887E-02 0.45284038E+03</pdfrwt>
<totfact> 0.34840628E+04</totfact>
</mgrwt>
</event>
<event>
 7    0  0.4737014E-002  0.4567626E+03  0.7546771E-02  0.1025724E+00
         21   -1    0    0  502  501  0.00000000000E+00  0.00000000000E+00  0.12791132904E+04  0.12791132904E+04  0.00000000000E+00 0.  1.
         21   -1    0    0  501  502 -0.00000000000E+00 -0.00000000000E+00 -0.40776691850E+02  0.40776691850E+02  0.00000000000E+00 0.  1.
      99926    2    1    2    0    0 -0.35527136788E-14  0.00000000000E+00  0.12383365985E+04  0.13198899822E+04  0.45676255749E+03 0.  0.
      99925    2    3    3    0    0 -0.19787710359E+02  0.10867699727E+03  0.86929308276E+03  0.91486792375E+03  0.26288897080E+03 0.  0.
         25    1    4    4    0    0  0.22638533337E+02  0.27682218303E+02  0.38420187246E+03  0.40563209353E+03  0.12509000000E+03 0.  0.
         25    1    4    4    0    0 -0.42426243697E+02  0.80994778964E+02  0.48509121029E+03  0.50923583022E+03  0.12509000000E+03 0.  0.
         25    1    3    3    0    0  0.19787710359E+02 -0.10867699727E+03  0.36904351576E+03  0.40502205846E+03  0.12509000000E+03 0.  0.
<mgrwt>
<rscale>  2 0.45676256E+03</rscale>
<asrwt>0</asrwt>
<pdfrwt beam="1">  1       21 0.18810487E+00 0.45676256E+03</pdfrwt>
<pdfrwt beam="2">  1       21 0.59965732E-02 0.45676256E+03</pdfrwt>
<totfact> 0.28154633E+04</totfact>
</mgrwt>
</event>
<event>
 7    0  0.4737014E-002  0.4681930E+03  0.7546771E-02  0.1022431E+00
         21   -1    0    0  502  501  0.00000000000E+00  0.00000000000E+00  0.10406140587E+04  0.10406140587E+04  0.00000000000E+00 0. -1.
         21   -1    0    0  501  502 -0.00000000000E+00 -0.00000000000E+00 -0.52662329709E+02  0.52662329709E+02  0.00000000000E+00 0. -1.
      99926    2    1    2    0    0  0.00000000000E+00  0.00000000000E+00  0.98795172901E+03  0.10932763884E+04  0.46819295450E+03 0.  0.
      99925    2    3    3    0    0 -0.26459806883E+02  0.85088094351E+02  0.81974682221E+03  0.86550346652E+03  0.26300435902E+03 0.  0.
         25    1    3    3    0    0  0.26459806883E+02 -0.85088094351E+02  0.16820490680E+03  0.22777292190E+03  0.12509000000E+03 0.  0.
         25    1    4    4    0    0 -0.62781338732E+01  0.35480612353E+01  0.32482939267E+03  0.34815750192E+03  0.12509000000E+03 0.  0.
         25    1    4    4    0    0 -0.20181673010E+02  0.81540033116E+02  0.49491742954E+03  0.51734596460E+03  0.12509000000E+03 0.  0.
<mgrwt>
<rscale>  2 0.46819295E+03</rscale>
<asrwt>0</asrwt>
<pdfrwt beam="1">  1       21 0.15303147E+00 0.46819295E+03</pdfrwt>
<pdfrwt beam="2">  1       21 0.77444609E-02 0.46819295E+03</pdfrwt>
<totfact> 0.32275965E+04</totfact>
</mgrwt>
</event>
<event>
 7    0  0.4737014E-002  0.4493055E+03  0.7546771E-02  0.1027929E+00
         21   -1    0    0  502  501  0.00000000000E+00  0.00000000000E+00  0.14035013686E+04  0.14035013686E+04  0.00000000000E+00 0.  1.
         21   -1    0    0  501  502 -0.00000000000E+00 -0.00000000000E+00 -0.35959249921E+02  0.35959249921E+02  0.00000000000E+00 0.  1.
      99926    2    1    2    0    0  0.00000000000E+00  0.00000000000E+00  0.13675421187E+04  0.14394606185E+04  0.44930549286E+03 0.  0.
      99925    2    3    3    0    0  0.65119672663E+02  0.85718090468E+02  0.85969451488E+03  0.90547104972E+03  0.26308743826E+03 0.  0.
         25    1    4    4    0    0  0.63940433084E+02  0.18780275114E+02  0.46013542411E+03  0.48146982702E+03  0.12509000000E+03 0.  0.
         25    1    4    4    0    0  0.11792395795E+01  0.66937815354E+02  0.39955909077E+03  0.42400122270E+03  0.12509000000E+03 0.  0.
         25    1    3    3    0    0 -0.65119672663E+02 -0.85718090468E+02  0.50784760381E+03  0.53398956881E+03  0.12509000000E+03 0.  0.
<mgrwt>
<rscale>  2 0.44930549E+03</rscale>
<asrwt>0</asrwt>
<pdfrwt beam="1">  1       21 0.20639722E+00 0.44930549E+03</pdfrwt>
<pdfrwt beam="2">  1       21 0.52881259E-02 0.44930549E+03</pdfrwt>
<totfact> 0.26450287E+04</totfact>
</mgrwt>
</event>
<event>
 7    0  0.4737014E-002  0.4571653E+03  0.7546771E-02  0.1025607E+00
         21   -1    0    0  502  501  0.00000000000E+00  0.00000000000E+00  0.16528365522E+03  0.16528365522E+03  0.00000000000E+00 0. -1.
         21   -1    0    0  501  502 -0.00000000000E+00 -0.00000000000E+00 -0.31612333431E+03  0.31612333431E+03  0.00000000000E+00 0. -1.
      99926    2    1    2    0    0  0.00000000000E+00  0.00000000000E+00 -0.15083967909E+03  0.48140698952E+03  0.45716526637E+03 0.  0.
      99925    2    3    3    0    0 -0.40736931231E+02  0.96494346338E+02 -0.44264972957E+02  0.28653181786E+03  0.26300273454E+03 0.  0.
         25    1    3    3    0    0  0.40736931231E+02 -0.96494346338E+02 -0.10657470613E+03  0.19487517166E+03  0.12509000000E+03 0.  0.
         25    1    4    4    0    0 -0.36773270950E+02  0.80124987548E+02 -0.79543650237E+00  0.15303734154E+03  0.12509000000E+03 0.  0.
         25    1    4    4    0    0 -0.39636602813E+01  0.16369358790E+02 -0.43469536454E+02  0.13349447633E+03  0.12509000000E+03 0.  0.
<mgrwt>
<rscale>  2 0.45716527E+03</rscale>
<asrwt>0</asrwt>
<pdfrwt beam="1">  1       21 0.24306420E-01 0.45716527E+03</pdfrwt>
<pdfrwt beam="2">  1       21 0.46488725E-01 0.45716527E+03</pdfrwt>
<totfact> 0.65465428E+04</totfact>
</mgrwt>
</event>
<event>
 7    0  0.4737014E-002  0.4475536E+03  0.7546771E-02  0.1028454E+00
         21   -1    0    0  502  501  0.00000000000E+00  0.00000000000E+00  0.36557563723E+03  0.36557563723E+03  0.00000000000E+00 0.  1.
         21   -1    0    0  501  502 -0.00000000000E+00 -0.00000000000E+00 -0.13697865357E+03  0.13697865357E+03  0.00000000000E+00 0.  1.
      99926    2    1    2    0    0  0.00000000000E+00  0.00000000000E+00  0.22859698366E+03  0.50255429080E+03  0.44755361049E+03 0.  0.
      99925    2    3    3    0    0  0.92876465218E+02  0.51063857768E+02  0.14060863091E+03  0.31648168755E+03  0.26297588503E+03 0.  0.
         25    1    3    3    0    0 -0.92876465218E+02 -0.51063857768E+02  0.87988352748E+02  0.18607260325E+03  0.12509000000E+03 0.  0.
         25    1    4    4    0    0  0.70670218720E+02 -0.64263549565E+01  0.78250100979E+02  0.16372588145E+03  0.12509000000E+03 0.  0.
         25    1    4    4    0    0  0.22206246498E+02  0.57490212725E+02  0.62358529933E+02  0.15275580610E+03  0.12509000000E+03 0.  0.
<mgrwt>
<rscale>  2 0.44755361E+03</rscale>
<asrwt>0</asrwt>
<pdfrwt beam="1">  1       21 0.53761123E-01 0.44755361E+03</pdfrwt>
<pdfrwt beam="2">  1       21 0.20143920E-01 0.44755361E+03</pdfrwt>
<totfact> 0.69085221E+04</totfact>
</mgrwt>
</event>
<event>
 7    0  0.4737014E-002  0.4534837E+03  0.7546771E-02  0.1026688E+00
         21   -1    0    0  502  501  0.00000000000E+00  0.00000000000E+00  0.11064031829E+04  0.11064031829E+04  0.00000000000E+00 0.  1.
         21   -1    0    0  501  502 -0.00000000000E+00 -0.00000000000E+00 -0.46467571148E+02  0.46467571148E+02  0.00000000000E+00 0.  1.
      99926    2    1    2    0    0 -0.35527136788E-14  0.00000000000E+00  0.10599356117E+04  0.11528707540E+04  0.45348370916E+03 0.  0.
      99925    2    3    3    0    0  0.13373282120E+02 -0.72070447602E+02  0.88208022245E+03  0.92340824797E+03  0.26314307797E+03 0.  0.
         25    1    4    4    0    0  0.45644628730E+02 -0.46585093699E+02  0.43076854306E+03  0.45327987918E+03  0.12509000000E+03 0.  0.
         25    1    3    3    0    0 -0.13373282120E+02  0.72070447602E+02  0.17785538928E+03  0.22946250606E+03  0.12509000000E+03 0.  0.
         25    1    4    4    0    0 -0.32271346610E+02 -0.25485353903E+02  0.45131167939E+03  0.47012836878E+03  0.12509000000E+03 0.  0.
<mgrwt>
<rscale>  2 0.45348371E+03</rscale>
<asrwt>0</asrwt>
<pdfrwt beam="1">  1       21 0.16270633E+00 0.45348371E+03</pdfrwt>
<pdfrwt beam="2">  1       21 0.68334670E-02 0.45348371E+03</pdfrwt>
<totfact> 0.34087705E+04</totfact>
</mgrwt>
</event>
<event>
 7    0  0.4737014E-002  0.4609139E+03  0.7546771E-02  0.1024516E+00
         21   -1    0    0  502  501  0.00000000000E+00  0.00000000000E+00  0.27512934465E+03  0.27512934465E+03  0.00000000000E+00 0.  1.
         21   -1    0    0  501  502 -0.00000000000E+00 -0.00000000000E+00 -0.19303799157E+03  0.19303799157E+03  0.00000000000E+00 0.  1.
      99926    2    1    2    0    0  0.00000000000E+00  0.00000000000E+00  0.82091353077E+02  0.46816733622E+03  0.46091394474E+03 0.  0.
      99925    2    3    3    0    0  0.34620403610E+02 -0.63173617376E+02  0.14711912272E+03  0.30984615254E+03  0.26300403741E+03 0.  0.
         25    1    3    3    0    0 -0.34620403610E+02  0.63173617376E+02 -0.65027769639E+02  0.15832118368E+03  0.12509000000E+03 0.  0.
         25    1    4    4    0    0  0.24032452890E+02 -0.44061722405E+02  0.32185756626E+02  0.13857281553E+03  0.12509000000E+03 0.  0.
         25    1    4    4    0    0  0.10587950720E+02 -0.19111894971E+02  0.11493336609E+03  0.17127333701E+03  0.12509000000E+03 0.  0.
<mgrwt>
<rscale>  2 0.46091394E+03</rscale>
<asrwt>0</asrwt>
<pdfrwt beam="1">  1       21 0.40460198E-01 0.46091394E+03</pdfrwt>
<pdfrwt beam="2">  1       21 0.28387940E-01 0.46091394E+03</pdfrwt>
<totfact> 0.64490117E+04</totfact>
</mgrwt>
</event>
<event>
 7    0  0.4737014E-002  0.4542792E+03  0.7546771E-02  0.1026454E+00
         21   -1    0    0  502  501  0.00000000000E+00  0.00000000000E+00  0.33086332499E+03  0.33086332499E+03  0.00000000000E+00 0. -1.
         21   -1    0    0  501  502 -0.00000000000E+00 -0.00000000000E+00 -0.15593266134E+03  0.15593266134E+03  0.00000000000E+00 0. -1.
      99926    2    1    2    0    0 -0.17763568394E-14  0.00000000000E+00  0.17493066366E+03  0.48679598633E+03  0.45427920404E+03 0.  0.
      99925    2    3    3    0    0  0.11573096832E+02  0.84284710293E+02  0.18881691824E+03  0.33488092741E+03  0.26316450743E+03 0.  0.
         25    1    3    3    0    0 -0.11573096832E+02 -0.84284710293E+02 -0.13886254579E+02  0.15191505892E+03  0.12509000000E+03 0.  0.
         25    1    4    4    0    0  0.83329103975E+01  0.83308445076E+02  0.89491300863E+02  0.17511691936E+03  0.12509000000E+03 0.  0.
         25    1    4    4    0    0  0.32401864345E+01  0.97626521796E+00  0.99325617374E+02  0.15976400805E+03  0.12509000000E+03 0.  0.
<mgrwt>
<rscale>  2 0.45427920E+03</rscale>
<asrwt>0</asrwt>
<pdfrwt beam="1">  1       21 0.48656371E-01 0.45427920E+03</pdfrwt>
<pdfrwt beam="2">  1       21 0.22931274E-01 0.45427920E+03</pdfrwt>
<totfact> 0.66588846E+04</totfact>
</mgrwt>
</event>
<event>
 7    0  0.4737014E-002  0.4589961E+03  0.7546771E-02  0.1025073E+00
         21   -1    0    0  502  501  0.00000000000E+00  0.00000000000E+00  0.11466881630E+04  0.11466881630E+04  0.00000000000E+00 0. -1.
         21   -1    0    0  501  502 -0.00000000000E+00 -0.00000000000E+00 -0.45931711528E+02  0.45931711528E+02  0.00000000000E+00 0. -1.
      99926    2    1    2    0    0  0.00000000000E+00 -0.71054273576E-14  0.11007564515E+04  0.11926198745E+04  0.45899607805E+03 0.  0.
      99925    2    3    3    0    0  0.70449570572E+02 -0.58034565220E+02  0.87989153675E+03  0.92287931138E+03  0.26299420938E+03 0.  0.
         25    1    3    3    0    0 -0.70449570572E+02  0.58034565220E+02  0.22086491473E+03  0.26974056316E+03  0.12509000000E+03 0.  0.
         25    1    4    4    0    0  0.85166067496E+01  0.40480286242E+01  0.41294056268E+03  0.43157425263E+03  0.12509000000E+03 0.  0.
         25    1    4    4    0    0  0.61932963822E+02 -0.62082593844E+02  0.46695097407E+03  0.49130505875E+03  0.12509000000E+03 0.  0.
<mgrwt>
<rscale>  2 0.45899608E+03</rscale>
<asrwt>0</asrwt>
<pdfrwt beam="1">  1       21 0.16863059E+00 0.45899608E+03</pdfrwt>
<pdfrwt beam="2">  1       21 0.67546642E-02 0.45899608E+03</pdfrwt>
<totfact> 0.31401701E+04</totfact>
</mgrwt>
</event>
<event>
 7    0  0.4737014E-002  0.4558978E+03  0.7546771E-02  0.1025978E+00
         21   -1    0    0  502  501  0.00000000000E+00  0.00000000000E+00  0.27784285950E+03  0.27784285950E+03  0.00000000000E+00 0. -1.
         21   -1    0    0  501  502 -0.00000000000E+00 -0.00000000000E+00 -0.18701468505E+03  0.18701468505E+03  0.00000000000E+00 0. -1.
      99926    2    1    2    0    0  0.71054273576E-14  0.00000000000E+00  0.90828174449E+02  0.46485754455E+03  0.45589777303E+03 0.  0.
      99925    2    3    3    0    0  0.51739813463E+02  0.98706988463E+02  0.81585674371E+02  0.29706895800E+03  0.26300886996E+03 0.  0.
         25    1    4    4    0    0 -0.74004026218E+01  0.22463230517E+02  0.29022461012E+02  0.13057248572E+03  0.12509000000E+03 0.  0.
         25    1    4    4    0    0  0.59140216085E+02  0.76243757946E+02  0.52563213359E+02  0.16649647228E+03  0.12509000000E+03 0.  0.
         25    1    3    3    0    0 -0.51739813463E+02 -0.98706988463E+02  0.92425000782E+01  0.16778858655E+03  0.12509000000E+03 0.  0.
<mgrwt>
<rscale>  2 0.45589777E+03</rscale>
<asrwt>0</asrwt>
<pdfrwt beam="1">  1       21 0.40859244E-01 0.45589777E+03</pdfrwt>
<pdfrwt beam="2">  1       21 0.27502160E-01 0.45589777E+03</pdfrwt>
<totfact> 0.67338952E+04</totfact>
</mgrwt>
</event>
<event>
 7    0  0.4737014E-002  0.4436596E+03  0.7546771E-02  0.1029630E+00
         21   -1    0    0  502  501  0.00000000000E+00  0.00000000000E+00  0.30563450535E+02  0.30563450535E+02  0.00000000000E+00 0. -1.
         21   -1    0    0  501  502 -0.00000000000E+00 -0.00000000000E+00 -0.16100427157E+04  0.16100427157E+04  0.00000000000E+00 0. -1.
      99926    2    1    2    0    0  0.00000000000E+00  0.00000000000E+00 -0.15794792652E+04  0.16406061663E+04  0.44365960331E+03 0.  0.
      99925    2    3    3    0    0 -0.16445738915E+02  0.92493105738E+02 -0.11531481788E+04  0.11864793775E+04  0.26297747822E+03 0.  0.
         25    1    3    3    0    0  0.16445738915E+02 -0.92493105738E+02 -0.42633108641E+03  0.45412678877E+03  0.12509000000E+03 0.  0.
         25    1    4    4    0    0 -0.82676012680E+01  0.38256243219E+02 -0.73480394262E+03  0.74640219424E+03  0.12509000000E+03 0.  0.
         25    1    4    4    0    0 -0.81781376475E+01  0.54236862520E+02 -0.41834423618E+03  0.44007718327E+03  0.12509000000E+03 0.  0.
<mgrwt>
<rscale>  2 0.44365960E+03</rscale>
<asrwt>0</asrwt>
<pdfrwt beam="1">  1       21 0.44946255E-02 0.44365960E+03</pdfrwt>
<pdfrwt beam="2">  1       21 0.23677096E+00 0.44365960E+03</pdfrwt>
<totfact> 0.22439336E+04</totfact>
</mgrwt>
</event>
<event>
 7    0  0.4737014E-002  0.4487102E+03  0.7546771E-02  0.1028107E+00
         21   -1    0    0  502  501  0.00000000000E+00  0.00000000000E+00  0.28676576348E+03  0.28676576348E+03  0.00000000000E+00 0. -1.
         21   -1    0    0  501  502 -0.00000000000E+00 -0.00000000000E+00 -0.17552728890E+03  0.17552728890E+03  0.00000000000E+00 0. -1.
      99926    2    1    2    0    0  0.00000000000E+00  0.00000000000E+00  0.11123847458E+03  0.46229305238E+03  0.44871022727E+03 0.  0.
      99925    2    3    3    0    0 -0.40549443693E+02 -0.69589587708E+02 -0.24440550866E+01  0.27505471829E+03  0.26298698931E+03 0.  0.
         25    1    4    4    0    0 -0.24582682530E+01 -0.52564738963E+02 -0.33072717822E+02  0.13967966076E+03  0.12509000000E+03 0.  0.
         25    1    4    4    0    0 -0.38091175440E+02 -0.17024848745E+02  0.30628662735E+02  0.13537505753E+03  0.12509000000E+03 0.  0.
         25    1    3    3    0    0  0.40549443693E+02  0.69589587708E+02  0.11368252967E+03  0.18723833409E+03  0.12509000000E+03 0.  0.
<mgrwt>
<rscale>  2 0.44871023E+03</rscale>
<asrwt>0</asrwt>
<pdfrwt beam="1">  1       21 0.42171436E-01 0.44871023E+03</pdfrwt>
<pdfrwt beam="2">  1       21 0.25812836E-01 0.44871023E+03</pdfrwt>
<totfact> 0.71515365E+04</totfact>
</mgrwt>
</event>
<event>
 7    0  0.4737014E-002  0.4544797E+03  0.7546771E-02  0.1026395E+00
         21   -1    0    0  502  501  0.00000000000E+00  0.00000000000E+00  0.82113351822E+03  0.82113351822E+03  0.00000000000E+00 0. -1.
         21   -1    0    0  501  502 -0.00000000000E+00 -0.00000000000E+00 -0.62886183265E+02  0.62886183265E+02  0.00000000000E+00 0. -1.
      99926    2    1    2    0    0  0.00000000000E+00  0.00000000000E+00  0.75824733495E+03  0.88401970148E+03  0.45447971533E+03 0.  0.
      99925    2    3    3    0    0 -0.34060549204E+02  0.10096372880E+03  0.54862864408E+03  0.61767162244E+03  0.26300389449E+03 0.  0.
         25    1    4    4    0    0 -0.12219520584E+02  0.13105557958E+02  0.29197142130E+03  0.31814445035E+03  0.12509000000E+03 0.  0.
         25    1    3    3    0    0  0.34060549204E+02 -0.10096372880E+03  0.20961869087E+03  0.26634807904E+03  0.12509000000E+03 0.  0.
         25    1    4    4    0    0 -0.21841028620E+02  0.87858170844E+02  0.25665722278E+03  0.29952717209E+03  0.12509000000E+03 0.  0.
<mgrwt>
<rscale>  2 0.45447972E+03</rscale>
<asrwt>0</asrwt>
<pdfrwt beam="1">  1       21 0.12075492E+00 0.45447972E+03</pdfrwt>
<pdfrwt beam="2">  1       21 0.92479686E-02 0.45447972E+03</pdfrwt>
<totfact> 0.44111313E+04</totfact>
</mgrwt>
</event>
<event>
 7    0  0.4737014E-002  0.4584848E+03  0.7546771E-02  0.1025222E+00
         21   -1    0    0  502  501  0.00000000000E+00  0.00000000000E+00  0.99226381363E+03  0.99226381363E+03  0.00000000000E+00 0.  1.
         21   -1    0    0  501  502 -0.00000000000E+00 -0.00000000000E+00 -0.52961800406E+02  0.52961800406E+02  0.00000000000E+00 0.  1.
      99926    2    1    2    0    0 -0.35527136788E-14  0.00000000000E+00  0.93930201323E+03  0.10452256140E+04  0.45848480039E+03 0.  0.
      99925    2    3    3    0    0 -0.18904355395E+02  0.77994354751E+02  0.78138824914E+03  0.82837368526E+03  0.26304918269E+03 0.  0.
         25    1    3    3    0    0  0.18904355395E+02 -0.77994354751E+02  0.15791376409E+03  0.21685192878E+03  0.12509000000E+03 0.  0.
         25    1    4    4    0    0 -0.16138614999E+02  0.29243097788E+02  0.50144401029E+03  0.51788919396E+03  0.12509000000E+03 0.  0.
         25    1    4    4    0    0 -0.27657403961E+01  0.48751256963E+02  0.27994423885E+03  0.31048449130E+03  0.12509000000E+03 0.  0.
<mgrwt>
<rscale>  2 0.45848480E+03</rscale>
<asrwt>0</asrwt>
<pdfrwt beam="1">  1       21 0.14592114E+00 0.45848480E+03</pdfrwt>
<pdfrwt beam="2">  1       21 0.77885007E-02 0.45848480E+03</pdfrwt>
<totfact> 0.36451404E+04</totfact>
</mgrwt>
</event>
<event>
 7    0  0.4737014E-002  0.4517429E+03  0.7546771E-02  0.1027204E+00
         21   -1    0    0  502  501  0.00000000000E+00  0.00000000000E+00  0.17813656307E+03  0.17813656307E+03  0.00000000000E+00 0. -1.
         21   -1    0    0  501  502 -0.00000000000E+00 -0.00000000000E+00 -0.28639774351E+03  0.28639774351E+03  0.00000000000E+00 0. -1.
      99926    2    1    2    0    0  0.00000000000E+00  0.71054273576E-14 -0.10826118044E+03  0.46453430657E+03  0.45174289014E+03 0.  0.
      99925    2    3    3    0    0  0.85576515078E+02 -0.61559665393E+02 -0.10085401415E+03  0.30078050799E+03  0.26302937000E+03 0.  0.
         25    1    4    4    0    0  0.28277043837E+02 -0.63220016271E+02 -0.30339395994E+02  0.14616548401E+03  0.12509000000E+03 0.  0.
         25    1    3    3    0    0 -0.85576515078E+02  0.61559665393E+02 -0.74071662906E+01  0.16375379858E+03  0.12509000000E+03 0.  0.
         25    1    4    4    0    0  0.57299471242E+02  0.16603508784E+01 -0.70514618155E+02  0.15461502399E+03  0.12509000000E+03 0.  0.
<mgrwt>
<rscale>  2 0.45174289E+03</rscale>
<asrwt>0</asrwt>
<pdfrwt beam="1">  1       21 0.26196554E-01 0.45174289E+03</pdfrwt>
<pdfrwt beam="2">  1       21 0.42117315E-01 0.45174289E+03</pdfrwt>
<totfact> 0.69626134E+04</totfact>
</mgrwt>
</event>
<event>
 7    0  0.4737014E-002  0.4544725E+03  0.7546771E-02  0.1026397E+00
         21   -1    0    0  502  501  0.00000000000E+00  0.00000000000E+00  0.95521317485E+02  0.95521317485E+02  0.00000000000E+00 0.  1.
         21   -1    0    0  501  502 -0.00000000000E+00 -0.00000000000E+00 -0.54057371689E+03  0.54057371689E+03  0.00000000000E+00 0.  1.
      99926    2    1    2    0    0  0.00000000000E+00 -0.17763568394E-14 -0.44505239940E+03  0.63609503437E+03  0.45447250141E+03 0.  0.
      99925    2    3    3    0    0  0.47505734157E+02  0.53114711427E+01 -0.42303639067E+03  0.50038497858E+03  0.26294549330E+03 0.  0.
         25    1    4    4    0    0  0.16841313221E+02 -0.14868894499E+02 -0.14190098080E+03  0.19049438392E+03  0.12509000000E+03 0.  0.
         25    1    4    4    0    0  0.30664420936E+02  0.20180365641E+02 -0.28113540988E+03  0.30989059466E+03  0.12509000000E+03 0.  0.
         25    1    3    3    0    0 -0.47505734157E+02 -0.53114711427E+01 -0.22016008726E+02  0.13571005579E+03  0.12509000000E+03 0.  0.
<mgrwt>
<rscale>  2 0.45447250E+03</rscale>
<asrwt>0</asrwt>
<pdfrwt beam="1">  1       21 0.14047253E-01 0.45447250E+03</pdfrwt>
<pdfrwt beam="2">  1       21 0.79496133E-01 0.45447250E+03</pdfrwt>
<totfact> 0.56745628E+04</totfact>
</mgrwt>
</event>
<event>
 7    0  0.4737014E-002  0.4672178E+03  0.7546771E-02  0.1022708E+00
         21   -1    0    0  502  501  0.00000000000E+00  0.00000000000E+00  0.55901165474E+02  0.55901165474E+02  0.00000000000E+00 0. -1.
         21   -1    0    0  501  502 -0.00000000000E+00 -0.00000000000E+00 -0.97624314286E+03  0.97624314286E+03  0.00000000000E+00 0. -1.
      99926    2    1    2    0    0  0.44408920985E-15  0.00000000000E+00 -0.92034197738E+03  0.10321443083E+04  0.46721784843E+03 0.  0.
      99925    2    3    3    0    0  0.26399756528E+01  0.87418443751E+02 -0.76789057894E+03  0.81641788258E+03  0.26312214653E+03 0.  0.
         25    1    4    4    0    0  0.22422884149E+02  0.73458673632E+02 -0.34997440592E+03  0.37951094235E+03  0.12509000000E+03 0.  0.
         25    1    3    3    0    0 -0.26399756528E+01 -0.87418443751E+02 -0.15245139844E+03  0.21572642575E+03  0.12509000000E+03 0.  0.
         25    1    4    4    0    0 -0.19782908496E+02  0.13959770118E+02 -0.41791617302E+03  0.43690694023E+03  0.12509000000E+03 0.  0.
<mgrwt>
<rscale>  2 0.46721785E+03</rscale>
<asrwt>0</asrwt>
<pdfrwt beam="1">  1       21 0.82207605E-02 0.46721785E+03</pdfrwt>
<pdfrwt beam="2">  1       21 0.14356515E+00 0.46721785E+03</pdfrwt>
<totfact> 0.34526741E+04</totfact>
</mgrwt>
</event>
<event>
 7    0  0.4737014E-002  0.4685117E+03  0.7546771E-02  0.1022341E+00
         21   -1    0    0  502  501  0.00000000000E+00  0.00000000000E+00  0.27188011972E+03  0.27188011972E+03  0.00000000000E+00 0. -1.
         21   -1    0    0  501  502 -0.00000000000E+00 -0.00000000000E+00 -0.20183822561E+03  0.20183822561E+03  0.00000000000E+00 0. -1.
      99926    2    1    2    0    0 -0.17763568394E-14 -0.14210854715E-13  0.70041894109E+02  0.47371834534E+03  0.46851169012E+03 0.  0.
      99925    2    3    3    0    0 -0.43041558804E+01  0.70942185229E+02  0.14803895373E+03  0.31006514857E+03  0.26300864079E+03 0.  0.
         25    1    4    4    0    0 -0.20281132172E+02 -0.52518658116E+00  0.57472639017E+02  0.13914816736E+03  0.12509000000E+03 0.  0.
         25    1    4    4    0    0  0.15976976291E+02  0.71467371810E+02  0.90566314716E+02  0.17091698121E+03  0.12509000000E+03 0.  0.
         25    1    3    3    0    0  0.43041558804E+01 -0.70942185229E+02 -0.77997059625E+02  0.16365319677E+03  0.12509000000E+03 0.  0.
<mgrwt>
<rscale>  2 0.46851169E+03</rscale>
<asrwt>0</asrwt>
<pdfrwt beam="1">  1       21 0.39982371E-01 0.46851169E+03</pdfrwt>
<pdfrwt beam="2">  1       21 0.29682092E-01 0.46851169E+03</pdfrwt>
<totfact> 0.60413401E+04</totfact>
</mgrwt>
</event>
<event>
 7    0  0.4737014E-002  0.4555259E+03  0.7546771E-02  0.1026087E+00
         21   -1    0    0  502  501  0.00000000000E+00  0.00000000000E+00  0.19633479326E+03  0.19633479326E+03  0.00000000000E+00 0. -1.
         21   -1    0    0  501  502 -0.00000000000E+00 -0.00000000000E+00 -0.26422193346E+03  0.26422193346E+03  0.00000000000E+00 0. -1.
      99926    2    1    2    0    0  0.00000000000E+00  0.00000000000E+00 -0.67887140193E+02  0.46055672672E+03  0.45552588809E+03 0.  0.
      99925    2    3    3    0    0  0.26817855044E+02  0.10549969823E+03 -0.10063313002E+02  0.28494212947E+03  0.26313753667E+03 0.  0.
         25    1    4    4    0    0  0.27639603398E+02  0.40597258401E+02 -0.41310648873E+02  0.14059218640E+03  0.12509000000E+03 0.  0.
         25    1    4    4    0    0 -0.82174835445E+00  0.64902439827E+02  0.31247335871E+02  0.14434994307E+03  0.12509000000E+03 0.  0.
         25    1    3    3    0    0 -0.26817855044E+02 -0.10549969823E+03 -0.57823827191E+02  0.17561459725E+03  0.12509000000E+03 0.  0.
<mgrwt>
<rscale>  2 0.45552589E+03</rscale>
<asrwt>0</asrwt>
<pdfrwt beam="1">  1       21 0.28872764E-01 0.45552589E+03</pdfrwt>
<pdfrwt beam="2">  1       21 0.38856167E-01 0.45552589E+03</pdfrwt>
<totfact> 0.67855001E+04</totfact>
</mgrwt>
</event>
<event>
 7    0  0.4737014E-002  0.4633976E+03  0.7546771E-02  0.1023800E+00
         21   -1    0    0  502  501  0.00000000000E+00  0.00000000000E+00  0.24999777516E+03  0.24999777516E+03  0.00000000000E+00 0.  1.
         21   -1    0    0  501  502 -0.00000000000E+00 -0.00000000000E+00 -0.21473920382E+03  0.21473920382E+03  0.00000000000E+00 0.  1.
      99926    2    1    2    0    0  0.00000000000E+00  0.00000000000E+00  0.35258571335E+02  0.46473697898E+03  0.46339755370E+03 0.  0.
      99925    2    3    3    0    0 -0.24783615372E+02 -0.92273872531E+02  0.96227178819E+02  0.29593717346E+03  0.26304076785E+03 0.  0.
         25    1    4    4    0    0 -0.21450535405E+02 -0.46016094177E+02  0.64941607886E+01  0.13515653376E+03  0.12509000000E+03 0.  0.
         25    1    4    4    0    0 -0.33330799672E+01 -0.46257778354E+02  0.89733018030E+02  0.16078063971E+03  0.12509000000E+03 0.  0.
         25    1    3    3    0    0  0.24783615372E+02  0.92273872531E+02 -0.60968607484E+02  0.16879980551E+03  0.12509000000E+03 0.  0.
<mgrwt>
<rscale>  2 0.46339755E+03</rscale>
<asrwt>0</asrwt>
<pdfrwt beam="1">  1       21 0.36764379E-01 0.46339755E+03</pdfrwt>
<pdfrwt beam="2">  1       21 0.31579294E-01 0.46339755E+03</pdfrwt>
<totfact> 0.63477396E+04</totfact>
</mgrwt>
</event>
<event>
 7    0  0.4737014E-002  0.4596867E+03  0.7546771E-02  0.1024872E+00
         21   -1    0    0  502  501  0.00000000000E+00  0.00000000000E+00  0.11067490569E+03  0.11067490569E+03  0.00000000000E+00 0.  1.
         21   -1    0    0  501  502 -0.00000000000E+00 -0.00000000000E+00 -0.47732556436E+03  0.47732556436E+03  0.00000000000E+00 0.  1.
      99926    2    1    2    0    0  0.00000000000E+00  0.71054273576E-14 -0.36665065867E+03  0.58800047005E+03  0.45968668382E+03 0.  0.
      99925    2    3    3    0    0 -0.99385601990E+02  0.52101362214E+02 -0.27435229331E+03  0.39627528606E+03  0.26300736049E+03 0.  0.
         25    1    3    3    0    0  0.99385601990E+02 -0.52101362214E+02 -0.92298365357E+02  0.19172518399E+03  0.12509000000E+03 0.  0.
         25    1    4    4    0    0 -0.89584404528E+02  0.29655683854E+02 -0.12909840511E+03  0.20302396760E+03  0.12509000000E+03 0.  0.
         25    1    4    4    0    0 -0.98011974616E+01  0.22445678360E+02 -0.14525388820E+03  0.19325131846E+03  0.12509000000E+03 0.  0.
<mgrwt>
<rscale>  2 0.45968668E+03</rscale>
<asrwt>0</asrwt>
<pdfrwt beam="1">  1       21 0.16275722E-01 0.45968668E+03</pdfrwt>
<pdfrwt beam="2">  1       21 0.70194936E-01 0.45968668E+03</pdfrwt>
<totfact> 0.57271766E+04</totfact>
</mgrwt>
</event>
<event>
 7    0  0.4737014E-002  0.4416813E+03  0.7546771E-02  0.1030232E+00
         21   -1    0    0  502  501  0.00000000000E+00  0.00000000000E+00  0.66471615733E+02  0.66471615733E+02  0.00000000000E+00 0. -1.
         21   -1    0    0  501  502 -0.00000000000E+00 -0.00000000000E+00 -0.73370569782E+03  0.73370569782E+03  0.00000000000E+00 0. -1.
      99926    2    1    2    0    0  0.00000000000E+00  0.00000000000E+00 -0.66723408208E+03  0.80017731355E+03  0.44168134761E+03 0.  0.
      99925    2    3    3    0    0 -0.67810841070E+02 -0.24516745084E+02 -0.55110417043E+03  0.61488552896E+03  0.26300004962E+03 0.  0.
         25    1    4    4    0    0 -0.65985559916E+02  0.56658783282E+01 -0.32967611734E+03  0.35877576108E+03  0.12509000000E+03 0.  0.
         25    1    4    4    0    0 -0.18252811540E+01 -0.30182623412E+02 -0.22142805309E+03  0.25610976788E+03  0.12509000000E+03 0.  0.
         25    1    3    3    0    0  0.67810841070E+02  0.24516745084E+02 -0.11612991165E+03  0.18529178459E+03  0.12509000000E+03 0.  0.
<mgrwt>
<rscale>  2 0.44168135E+03</rscale>
<asrwt>0</asrwt>
<pdfrwt beam="1">  1       21 0.97752374E-02 0.44168135E+03</pdfrwt>
<pdfrwt beam="2">  1       21 0.10789790E+00 0.44168135E+03</pdfrwt>
<totfact> 0.53091846E+04</totfact>
</mgrwt>
</event>
<event>
 7    0  0.4737014E-002  0.4694897E+03  0.7546771E-02  0.1022064E+00
         21   -1    0    0  502  501  0.00000000000E+00  0.00000000000E+00  0.37976996784E+03  0.37976996784E+03  0.00000000000E+00 0.  1.
         21   -1    0    0  501  502 -0.00000000000E+00 -0.00000000000E+00 -0.14510135802E+03  0.14510135802E+03  0.00000000000E+00 0.  1.
      99926    2    1    2    0    0  0.00000000000E+00  0.00000000000E+00  0.23466860982E+03  0.52487132586E+03  0.46948967218E+03 0.  0.
      99925    2    3    3    0    0 -0.10728849593E+03  0.60076772931E+02  0.11219233575E+03  0.31093678958E+03  0.26263001906E+03 0.  0.
         25    1    3    3    0    0  0.10728849593E+03 -0.60076772931E+02  0.12247627407E+03  0.21393453628E+03  0.12509000000E+03 0.  0.
         25    1    4    4    0    0 -0.46010323862E+02 -0.76082174400E+01  0.68368416216E+02  0.14998861060E+03  0.12509000000E+03 0.  0.
         25    1    4    4    0    0 -0.61278172066E+02  0.67684990371E+02  0.43823919530E+02  0.16094817898E+03  0.12509000000E+03 0.  0.
<mgrwt>
<rscale>  2 0.46948967E+03</rscale>
<asrwt>0</asrwt>
<pdfrwt beam="1">  1       21 0.55848525E-01 0.46948967E+03</pdfrwt>
<pdfrwt beam="2">  1       21 0.21338435E-01 0.46948967E+03</pdfrwt>
<totfact> 0.56746274E+04</totfact>
</mgrwt>
</event>
<event>
 7    0  0.4737014E-002  0.4539073E+03  0.7546771E-02  0.1026563E+00
         21   -1    0    0  502  501  0.00000000000E+00  0.00000000000E+00  0.11882595688E+03  0.11882595688E+03  0.00000000000E+00 0.  1.
         21   -1    0    0  501  502 -0.00000000000E+00 -0.00000000000E+00 -0.43347400281E+03  0.43347400281E+03  0.00000000000E+00 0.  1.
      99926    2    1    2    0    0  0.00000000000E+00  0.00000000000E+00 -0.31464804593E+03  0.55229995969E+03  0.45390731726E+03 0.  0.
      99925    2    3    3    0    0  0.40815318482E+02 -0.17339599398E+02 -0.72912758766E+02  0.27652829855E+03  0.26303056396E+03 0.  0.
         25    1    4    4    0    0  0.20107610471E+02  0.17070022346E+02 -0.68589997953E+02  0.14507859105E+03  0.12509000000E+03 0.  0.
         25    1    4    4    0    0  0.20707708010E+02 -0.34409621744E+02 -0.43227608138E+01  0.13144970750E+03  0.12509000000E+03 0.  0.
         25    1    3    3    0    0 -0.40815318482E+02  0.17339599398E+02 -0.24173528716E+03  0.27577166114E+03  0.12509000000E+03 0.  0.
<mgrwt>
<rscale>  2 0.45390732E+03</rscale>
<asrwt>0</asrwt>
<pdfrwt beam="1">  1       21 0.17474406E-01 0.45390732E+03</pdfrwt>
<pdfrwt beam="2">  1       21 0.63746176E-01 0.45390732E+03</pdfrwt>
<totfact> 0.62251183E+04</totfact>
</mgrwt>
</event>
<event>
 7    0  0.4737014E-002  0.4433859E+03  0.7546771E-02  0.1029713E+00
         21   -1    0    0  502  501  0.00000000000E+00  0.00000000000E+00  0.38173268894E+03  0.38173268894E+03  0.00000000000E+00 0.  1.
         21   -1    0    0  501  502 -0.00000000000E+00 -0.00000000000E+00 -0.12874913676E+03  0.12874913676E+03  0.00000000000E+00 0.  1.
      99926    2    1    2    0    0 -0.14210854715E-13 -0.44408920985E-15  0.25298355218E+03  0.51048182571E+03  0.44338585533E+03 0.  0.
      99925    2    3    3    0    0 -0.10185392003E+03  0.32843625891E+01  0.16124084347E+03  0.32487675906E+03  0.26298534353E+03 0.  0.
         25    1    4    4    0    0 -0.91509411216E+02 -0.20084849288E+01  0.72844362650E+02  0.17126533690E+03  0.12509000000E+03 0.  0.
         25    1    3    3    0    0  0.10185392003E+03 -0.32843625891E+01  0.91742708706E+02  0.18560506664E+03  0.12509000000E+03 0.  0.
         25    1    4    4    0    0 -0.10344508816E+02  0.52928475179E+01  0.88396480822E+02  0.15361142216E+03  0.12509000000E+03 0.  0.
<mgrwt>
<rscale>  2 0.44338586E+03</rscale>
<asrwt>0</asrwt>
<pdfrwt beam="1">  1       21 0.56137160E-01 0.44338586E+03</pdfrwt>
<pdfrwt beam="2">  1       21 0.18933697E-01 0.44338586E+03</pdfrwt>
<totfact> 0.70847432E+04</totfact>
</mgrwt>
</event>
<event>
 7    0  0.4737014E-002  0.4531104E+03  0.7546771E-02  0.1026799E+00
         21   -1    0    0  502  501  0.00000000000E+00  0.00000000000E+00  0.33799059485E+03  0.33799059485E+03  0.00000000000E+00 0. -1.
         21   -1    0    0  501  502 -0.00000000000E+00 -0.00000000000E+00 -0.15186004946E+03  0.15186004946E+03  0.00000000000E+00 0. -1.
      99926    2    1    2    0    0 -0.71054273576E-14  0.00000000000E+00  0.18613054539E+03  0.48985064431E+03  0.45311044328E+03 0.  0.
      99925    2    3    3    0    0 -0.58470580403E+02 -0.43907686908E+02  0.26456909168E+02  0.27423554293E+03  0.26297998255E+03 0.  0.
         25    1    4    4    0    0 -0.54118965376E+02 -0.55490871225E+01  0.41205587466E+02  0.14249583615E+03  0.12509000000E+03 0.  0.
         25    1    4    4    0    0 -0.43516150271E+01 -0.38358599785E+02 -0.14748678297E+02  0.13173970678E+03  0.12509000000E+03 0.  0.
         25    1    3    3    0    0  0.58470580403E+02  0.43907686908E+02  0.15967363622E+03  0.21561510138E+03  0.12509000000E+03 0.  0.
<mgrwt>
<rscale>  2 0.45311044E+03</rscale>
<asrwt>0</asrwt>
<pdfrwt beam="1">  1       21 0.49704499E-01 0.45311044E+03</pdfrwt>
<pdfrwt beam="2">  1       21 0.22332360E-01 0.45311044E+03</pdfrwt>
<totfact> 0.66988982E+04</totfact>
</mgrwt>
</event>
<event>
 7    0  0.4737014E-002  0.4553701E+03  0.7546771E-02  0.1026133E+00
         21   -1    0    0  502  501  0.00000000000E+00  0.00000000000E+00  0.40895143845E+03  0.40895143845E+03  0.00000000000E+00 0. -1.
         21   -1    0    0  501  502 -0.00000000000E+00 -0.00000000000E+00 -0.12676441808E+03  0.12676441808E+03  0.00000000000E+00 0. -1.
      99926    2    1    2    0    0  0.00000000000E+00  0.00000000000E+00  0.28218702037E+03  0.53571585654E+03  0.45537014008E+03 0.  0.
      99925    2    3    3    0    0 -0.85062046746E+02 -0.32557879697E+02  0.97917622450E+02  0.29509522892E+03  0.26305468256E+03 0.  0.
         25    1    4    4    0    0 -0.28455523300E+02  0.17667764610E+02  0.25662956588E+02  0.13201500730E+03  0.12509000000E+03 0.  0.
         25    1    4    4    0    0 -0.56606523446E+02 -0.50225644307E+02  0.72254665863E+02  0.16308022161E+03  0.12509000000E+03 0.  0.
         25    1    3    3    0    0  0.85062046746E+02  0.32557879697E+02  0.18426939792E+03  0.24062062762E+03  0.12509000000E+03 0.  0.
<mgrwt>
<rscale>  2 0.45537014E+03</rscale>
<asrwt>0</asrwt>
<pdfrwt beam="1">  1       21 0.60139917E-01 0.45537014E+03</pdfrwt>
<pdfrwt beam="2">  1       21 0.18641826E-01 0.45537014E+03</pdfrwt>
<totfact> 0.62636701E+04</totfact>
</mgrwt>
</event>
<event>
 7    0  0.4737014E-002  0.4537711E+03  0.7546771E-02  0.1026603E+00
         21   -1    0    0  502  501  0.00000000000E+00  0.00000000000E+00  0.21135312781E+03  0.21135312781E+03  0.00000000000E+00 0.  1.
         21   -1    0    0  501  502 -0.00000000000E+00 -0.00000000000E+00 -0.24355940614E+03  0.24355940614E+03  0.00000000000E+00 0.  1.
      99926    2    1    2    0    0  0.00000000000E+00  0.00000000000E+00 -0.32206278332E+02  0.45491253396E+03  0.45377105371E+03 0.  0.
      99925    2    3    3    0    0 -0.95205392282E+02  0.31122367231E+02 -0.70315083516E+02  0.29019320420E+03  0.26312585645E+03 0.  0.
         25    1    3    3    0    0  0.95205392282E+02 -0.31122367231E+02  0.38108805184E+02  0.16471932975E+03  0.12509000000E+03 0.  0.
         25    1    4    4    0    0 -0.40352057299E+02  0.32499234705E+01 -0.73746299668E+02  0.15074772086E+03  0.12509000000E+03 0.  0.
         25    1    4    4    0    0 -0.54853334984E+02  0.27872443761E+02  0.34312161523E+01  0.13944548334E+03  0.12509000000E+03 0.  0.
<mgrwt>
<rscale>  2 0.45377105E+03</rscale>
<asrwt>0</asrwt>
<pdfrwt beam="1">  1       21 0.31081342E-01 0.45377105E+03</pdfrwt>
<pdfrwt beam="2">  1       21 0.35817560E-01 0.45377105E+03</pdfrwt>
<totfact> 0.69228569E+04</totfact>
</mgrwt>
</event>
<event>
 7    0  0.4737014E-002  0.4560463E+03  0.7546771E-02  0.1025934E+00
         21   -1    0    0  502  501  0.00000000000E+00  0.00000000000E+00  0.55536474600E+02  0.55536474600E+02  0.00000000000E+00 0. -1.
         21   -1    0    0  501  502 -0.00000000000E+00 -0.00000000000E+00 -0.93622370176E+03  0.93622370176E+03  0.00000000000E+00 0. -1.
      99926    2    1    2    0    0  0.00000000000E+00  0.14210854715E-13 -0.88068722716E+03  0.99176017636E+03  0.45604633025E+03 0.  0.
      99925    2    3    3    0    0 -0.43291588470E+02 -0.10329304277E+03 -0.60119487955E+03  0.66571248846E+03  0.26304794196E+03 0.  0.
         25    1    3    3    0    0  0.43291588470E+02  0.10329304277E+03 -0.27949234761E+03  0.32604768790E+03  0.12509000000E+03 0.  0.
         25    1    4    4    0    0 -0.20023842026E+02 -0.85281143606E+02 -0.38540419655E+03  0.41455727050E+03  0.12509000000E+03 0.  0.
         25    1    4    4    0    0 -0.23267746444E+02 -0.18011899166E+02 -0.21579068300E+03  0.25115521795E+03  0.12509000000E+03 0.  0.
<mgrwt>
<rscale>  2 0.45604633E+03</rscale>
<asrwt>0</asrwt>
<pdfrwt beam="1">  1       21 0.81671295E-02 0.45604633E+03</pdfrwt>
<pdfrwt beam="2">  1       21 0.13767994E+00 0.45604633E+03</pdfrwt>
<totfact> 0.39167709E+04</totfact>
</mgrwt>
</event>
<event>
 7    0  0.4737014E-002  0.4550689E+03  0.7546771E-02  0.1026221E+00
         21   -1    0    0  502  501  0.00000000000E+00  0.00000000000E+00  0.28340694452E+03  0.28340694452E+03  0.00000000000E+00 0.  1.
         21   -1    0    0  501  502 -0.00000000000E+00 -0.00000000000E+00 -0.18267697306E+03  0.18267697306E+03  0.00000000000E+00 0.  1.
      99926    2    1    2    0    0  0.00000000000E+00 -0.14210854715E-13  0.10072997146E+03  0.46608391759E+03  0.45506888609E+03 0.  0.
      99925    2    3    3    0    0 -0.80427833586E+01  0.10850556154E+03  0.95663125303E+02  0.30021853760E+03  0.26294789127E+03 0.  0.
         25    1    4    4    0    0  0.76613542701E+01  0.36115815198E+02  0.84717071910E+01  0.13069937406E+03  0.12509000000E+03 0.  0.
         25    1    4    4    0    0 -0.15704137629E+02  0.72389746344E+02  0.87191418112E+02  0.16951916354E+03  0.12509000000E+03 0.  0.
         25    1    3    3    0    0  0.80427833586E+01 -0.10850556154E+03  0.50668461552E+01  0.16586537999E+03  0.12509000000E+03 0.  0.
<mgrwt>
<rscale>  2 0.45506889E+03</rscale>
<asrwt>0</asrwt>
<pdfrwt beam="1">  1       21 0.41677492E-01 0.45506889E+03</pdfrwt>
<pdfrwt beam="2">  1       21 0.26864261E-01 0.45506889E+03</pdfrwt>
<totfact> 0.67691530E+04</totfact>
</mgrwt>
</event>
<event>
 7    0  0.4737014E-002  0.4515207E+03  0.7546771E-02  0.1027270E+00
         21   -1    0    0  502  501  0.00000000000E+00  0.00000000000E+00  0.15453531787E+03  0.15453531787E+03  0.00000000000E+00 0. -1.
         21   -1    0    0  501  502 -0.00000000000E+00 -0.00000000000E+00 -0.32981279483E+03  0.32981279483E+03  0.00000000000E+00 0. -1.
      99926    2    1    2    0    0  0.00000000000E+00  0.00000000000E+00 -0.17527747696E+03  0.48434811270E+03  0.45152065329E+03 0.  0.
      99925    2    3    3    0    0  0.99720299793E+02  0.46012678196E+02 -0.11197900255E+03  0.30625962428E+03  0.26304820035E+03 0.  0.
         25    1    4    4    0    0  0.78101530685E+02  0.50720550021E+02 -0.79969659688E+02  0.17525717635E+03  0.12509000000E+03 0.  0.
         25    1    3    3    0    0 -0.99720299793E+02 -0.46012678196E+02 -0.63298474404E+02  0.17808848842E+03  0.12509000000E+03 0.  0.
         25    1    4    4    0    0  0.21618769108E+02 -0.47078718258E+01 -0.32009342864E+02  0.13100244794E+03  0.12509000000E+03 0.  0.
<mgrwt>
<rscale>  2 0.45152065E+03</rscale>
<asrwt>0</asrwt>
<pdfrwt beam="1">  1       21 0.22725783E-01 0.45152065E+03</pdfrwt>
<pdfrwt beam="2">  1       21 0.48501881E-01 0.45152065E+03</pdfrwt>
<totfact> 0.68250675E+04</totfact>
</mgrwt>
</event>
<event>
 7    0  0.4737014E-002  0.4602532E+03  0.7546771E-02  0.1024708E+00
         21   -1    0    0  502  501  0.00000000000E+00  0.00000000000E+00  0.18030540288E+04  0.18030540288E+04  0.00000000000E+00 0.  1.
         21   -1    0    0  501  502 -0.00000000000E+00 -0.00000000000E+00 -0.29371420402E+02  0.29371420402E+02  0.00000000000E+00 0.  1.
      99926    2    1    2    0    0  0.00000000000E+00  0.00000000000E+00  0.17736826084E+04  0.18324254492E+04  0.46025322546E+03 0.  0.
      99925    2    3    3    0    0  0.55236399766E+02 -0.10363766359E+03  0.10618369640E+04  0.11001935497E+04  0.26293779378E+03 0.  0.
         25    1    4    4    0    0  0.20303634445E+02 -0.13437602068E+02  0.54541085962E+03  0.56010116998E+03  0.12509000000E+03 0.  0.
         25    1    3    3    0    0 -0.55236399766E+02  0.10363766359E+03  0.71184564436E+03  0.73223189952E+03  0.12509000000E+03 0.  0.
         25    1    4    4    0    0  0.34932765321E+02 -0.90200061525E+02  0.51642610438E+03  0.54009237967E+03  0.12509000000E+03 0.  0.
<mgrwt>
<rscale>  2 0.46025323E+03</rscale>
<asrwt>0</asrwt>
<pdfrwt beam="1">  1       21 0.26515493E+00 0.46025323E+03</pdfrwt>
<pdfrwt beam="2">  1       21 0.43193278E-02 0.46025323E+03</pdfrwt>
<totfact> 0.15982868E+04</totfact>
</mgrwt>
</event>
<event>
 7    0  0.4737014E-002  0.4409801E+03  0.7546771E-02  0.1030447E+00
         21   -1    0    0  502  501  0.00000000000E+00  0.00000000000E+00  0.40271510803E+02  0.40271510803E+02  0.00000000000E+00 0.  1.
         21   -1    0    0  501  502 -0.00000000000E+00 -0.00000000000E+00 -0.12072022241E+04  0.12072022241E+04  0.00000000000E+00 0.  1.
      99926    2    1    2    0    0  0.00000000000E+00 -0.71054273576E-14 -0.11669307133E+04  0.12474737349E+04  0.44098007851E+03 0.  0.
      99925    2    3    3    0    0  0.88175767049E+02  0.39231614765E+02 -0.67557710161E+03  0.73134393988E+03  0.26295522944E+03 0.  0.
         25    1    4    4    0    0  0.27964554710E+02 -0.98870058246E+01 -0.37917560525E+03  0.40037659387E+03  0.12509000000E+03 0.  0.
         25    1    3    3    0    0 -0.88175767049E+02 -0.39231614765E+02 -0.49135361172E+03  0.51612979506E+03  0.12509000000E+03 0.  0.
         25    1    4    4    0    0  0.60211212340E+02  0.49118620589E+02 -0.29640149636E+03  0.33096734601E+03  0.12509000000E+03 0.  0.
<mgrwt>
<rscale>  2 0.44098008E+03</rscale>
<asrwt>0</asrwt>
<pdfrwt beam="1">  1       21 0.59222818E-02 0.44098008E+03</pdfrwt>
<pdfrwt beam="2">  1       21 0.17752971E+00 0.44098008E+03</pdfrwt>
<totfact> 0.34268147E+04</totfact>
</mgrwt>
</event>
<event>
 7    0  0.4737014E-002  0.4631136E+03  0.7546771E-02  0.1023882E+00
         21   -1    0    0  502  501  0.00000000000E+00  0.00000000000E+00  0.17188338601E+03  0.17188338601E+03  0.00000000000E+00 0. -1.
         21   -1    0    0  501  502 -0.00000000000E+00 -0.00000000000E+00 -0.31194727150E+03  0.31194727150E+03  0.00000000000E+00 0. -1.
      99926    2    1    2    0    0  0.35527136788E-14 -0.35527136788E-14 -0.14006388549E+03  0.48383065750E+03  0.46311360715E+03 0.  0.
      99925    2    3    3    0    0  0.20504151422E+02 -0.24266328721E+02  0.34118972088E+02  0.26704400914E+03  0.26294319468E+03 0.  0.
         25    1    3    3    0    0 -0.20504151422E+02  0.24266328721E+02 -0.17418285758E+03  0.21678664836E+03  0.12509000000E+03 0.  0.
         25    1    4    4    0    0 -0.15949000712E+02 -0.40835838658E+02  0.57612370964E+01  0.13267492715E+03  0.12509000000E+03 0.  0.
         25    1    4    4    0    0  0.36453152134E+02  0.16569509937E+02  0.28357734992E+02  0.13436908199E+03  0.12509000000E+03 0.  0.
<mgrwt>
<rscale>  2 0.46311361E+03</rscale>
<asrwt>0</asrwt>
<pdfrwt beam="1">  1       21 0.25276969E-01 0.46311361E+03</pdfrwt>
<pdfrwt beam="2">  1       21 0.45874599E-01 0.46311361E+03</pdfrwt>
<totfact> 0.62311753E+04</totfact>
</mgrwt>
</event>
<event>
 7    0  0.4737014E-002  0.4324279E+03  0.7546771E-02  0.1033096E+00
         21   -1    0    0  502  501  0.00000000000E+00  0.00000000000E+00  0.30835154459E+03  0.30835154459E+03  0.00000000000E+00 0. -1.
         21   -1    0    0  501  502 -0.00000000000E+00 -0.00000000000E+00 -0.15160768376E+03  0.15160768376E+03  0.00000000000E+00 0. -1.
      99926    2    1    2    0    0  0.35527136788E-14  0.00000000000E+00  0.15674386083E+03  0.45995922835E+03  0.43242785969E+03 0.  0.
      99925    2    3    3    0    0 -0.23936995447E+02  0.76854753760E+02  0.57390909236E+02  0.28107896108E+03  0.26311980726E+03 0.  0.
         25    1    4    4    0    0 -0.42651010974E+02  0.60420739912E+02  0.12460045267E+02  0.14585107259E+03  0.12509000000E+03 0.  0.
         25    1    4    4    0    0  0.18714015527E+02  0.16434013847E+02  0.44930863968E+02  0.13522788849E+03  0.12509000000E+03 0.  0.
         25    1    3    3    0    0  0.23936995447E+02 -0.76854753760E+02  0.99352951599E+02  0.17888026727E+03  0.12509000000E+03 0.  0.
<mgrwt>
<rscale>  2 0.43242786E+03</rscale>
<asrwt>0</asrwt>
<pdfrwt beam="1">  1       21 0.45345815E-01 0.43242786E+03</pdfrwt>
<pdfrwt beam="2">  1       21 0.22295248E-01 0.43242786E+03</pdfrwt>
<totfact> 0.81906249E+04</totfact>
</mgrwt>
</event>
<event>
 7    0  0.4737014E-002  0.4529789E+03  0.7546771E-02  0.1026837E+00
         21   -1    0    0  502  501  0.00000000000E+00  0.00000000000E+00  0.32830405676E+03  0.32830405676E+03  0.00000000000E+00 0.  1.
         21   -1    0    0  501  502 -0.00000000000E+00 -0.00000000000E+00 -0.15624990725E+03  0.15624990725E+03  0.00000000000E+00 0.  1.
      99926    2    1    2    0    0  0.00000000000E+00  0.00000000000E+00  0.17205414951E+03  0.48455396402E+03  0.45297893293E+03 0.  0.
      99925    2    3    3    0    0  0.51534965079E+02 -0.96510190210E+02  0.12992961523E+03  0.31311285480E+03  0.26303590152E+03 0.  0.
         25    1    4    4    0    0  0.50404357153E+02 -0.57333877264E+02  0.10344740718E+03  0.17937850165E+03  0.12509000000E+03 0.  0.
         25    1    4    4    0    0  0.11306079259E+01 -0.39176312946E+02  0.26482208045E+02  0.13373435315E+03  0.12509000000E+03 0.  0.
         25    1    3    3    0    0 -0.51534965079E+02  0.96510190210E+02  0.42124534284E+02  0.17144110921E+03  0.12509000000E+03 0.  0.
<mgrwt>
<rscale>  2 0.45297893E+03</rscale>
<asrwt>0</asrwt>
<pdfrwt beam="1">  1       21 0.48280008E-01 0.45297893E+03</pdfrwt>
<pdfrwt beam="2">  1       21 0.22977928E-01 0.45297893E+03</pdfrwt>
<totfact> 0.67445702E+04</totfact>
</mgrwt>
</event>
<event>
 7    0  0.4737014E-002  0.4568605E+03  0.7546771E-02  0.1025696E+00
         21   -1    0    0  502  501  0.00000000000E+00  0.00000000000E+00  0.67678960439E+03  0.67678960439E+03  0.00000000000E+00 0.  1.
         21   -1    0    0  501  502 -0.00000000000E+00 -0.00000000000E+00 -0.77099842844E+02  0.77099842844E+02  0.00000000000E+00 0.  1.
      99926    2    1    2    0    0 -0.14210854715E-13  0.00000000000E+00  0.59968976155E+03  0.75388944724E+03  0.45686046945E+03 0.  0.
      99925    2    3    3    0    0 -0.66053307664E+02  0.49249082619E+02  0.50889417057E+03  0.57873277727E+03  0.26300159516E+03 0.  0.
         25    1    3    3    0    0  0.66053307664E+02 -0.49249082619E+02  0.90795590980E+02  0.17515666997E+03  0.12509000000E+03 0.  0.
         25    1    4    4    0    0 -0.33289066092E+02  0.39648343478E+02  0.33883605771E+03  0.36488016548E+03  0.12509000000E+03 0.  0.
         25    1    4    4    0    0 -0.32764241573E+02  0.96007391409E+01  0.17005811286E+03  0.21385261179E+03  0.12509000000E+03 0.  0.
<mgrwt>
<rscale>  2 0.45686047E+03</rscale>
<asrwt>0</asrwt>
<pdfrwt beam="1">  1       21 0.99527880E-01 0.45686047E+03</pdfrwt>
<pdfrwt beam="2">  1       21 0.11338213E-01 0.45686047E+03</pdfrwt>
<totfact> 0.49347407E+04</totfact>
</mgrwt>
</event>
<event>
 7    0  0.4737014E-002  0.4575791E+03  0.7546771E-02  0.1025486E+00
         21   -1    0    0  502  501  0.00000000000E+00  0.00000000000E+00  0.50383983612E+03  0.50383983612E+03  0.00000000000E+00 0. -1.
         21   -1    0    0  501  502 -0.00000000000E+00 -0.00000000000E+00 -0.10389145130E+03  0.10389145130E+03  0.00000000000E+00 0. -1.
      99926    2    1    2    0    0  0.00000000000E+00  0.19984014443E-14  0.39994838482E+03  0.60773128742E+03  0.45757907206E+03 0.  0.
      99925    2    3    3    0    0  0.97912270025E+02 -0.86278203267E+00  0.17104360622E+03  0.32910526067E+03  0.26356555230E+03 0.  0.
         25    1    4    4    0    0  0.75844550983E+02  0.19960898869E+02  0.60953150156E+02  0.15972985949E+03  0.12509000000E+03 0.  0.
         25    1    3    3    0    0 -0.97912270025E+02  0.86278203267E+00  0.22890477860E+03  0.27862602675E+03  0.12509000000E+03 0.  0.
         25    1    4    4    0    0  0.22067719041E+02 -0.20823680902E+02  0.11009045606E+03  0.16937540118E+03  0.12509000000E+03 0.  0.
<mgrwt>
<rscale>  2 0.45757907E+03</rscale>
<asrwt>0</asrwt>
<pdfrwt beam="1">  1       21 0.74094093E-01 0.45757907E+03</pdfrwt>
<pdfrwt beam="2">  1       21 0.15278155E-01 0.45757907E+03</pdfrwt>
<totfact> 0.57033996E+04</totfact>
</mgrwt>
</event>
<event>
 7    0  0.4737014E-002  0.4554987E+03  0.7546771E-02  0.1026095E+00
         21   -1    0    0  502  501  0.00000000000E+00  0.00000000000E+00  0.94886718126E+02  0.94886718126E+02  0.00000000000E+00 0.  1.
         21   -1    0    0  501  502 -0.00000000000E+00 -0.00000000000E+00 -0.54664940627E+03  0.54664940627E+03  0.00000000000E+00 0.  1.
      99926    2    1    2    0    0  0.00000000000E+00  0.00000000000E+00 -0.45176268815E+03  0.64153612440E+03  0.45549870747E+03 0.  0.
      99925    2    3    3    0    0 -0.23323455113E+02 -0.11027033234E+03 -0.30493128647E+03  0.41812954802E+03  0.26295569913E+03 0.  0.
         25    1    3    3    0    0  0.23323455113E+02  0.11027033234E+03 -0.14683140167E+03  0.22340657638E+03  0.12509000000E+03 0.  0.
         25    1    4    4    0    0  0.21813577443E+02 -0.76527840361E+02 -0.14439527964E+03  0.20695373250E+03  0.12509000000E+03 0.  0.
         25    1    4    4    0    0 -0.45137032556E+02 -0.33742491975E+02 -0.16053600683E+03  0.21117581552E+03  0.12509000000E+03 0.  0.
<mgrwt>
<rscale>  2 0.45549871E+03</rscale>
<asrwt>0</asrwt>
<pdfrwt beam="1">  1       21 0.13953929E-01 0.45549871E+03</pdfrwt>
<pdfrwt beam="2">  1       21 0.80389617E-01 0.45549871E+03</pdfrwt>
<totfact> 0.55971150E+04</totfact>
</mgrwt>
</event>
<event>
 7    0  0.4737014E-002  0.4556841E+03  0.7546771E-02  0.1026040E+00
         21   -1    0    0  502  501  0.00000000000E+00  0.00000000000E+00  0.99344380002E+03  0.99344380002E+03  0.00000000000E+00 0.  1.
         21   -1    0    0  501  502 -0.00000000000E+00 -0.00000000000E+00 -0.52254588321E+02  0.52254588321E+02  0.00000000000E+00 0.  1.
      99926    2    1    2    0    0  0.00000000000E+00  0.00000000000E+00  0.94118921170E+03  0.10456983883E+04  0.45568408702E+03 0.  0.
      99925    2    3    3    0    0  0.57422547196E+02  0.59765058716E+02  0.77097733646E+03  0.81878694803E+03  0.26293877950E+03 0.  0.
         25    1    4    4    0    0  0.53513458565E+02  0.14790379879E+02  0.30692221500E+03  0.33605237649E+03  0.12509000000E+03 0.  0.
         25    1    3    3    0    0 -0.57422547196E+02 -0.59765058716E+02  0.17021187525E+03  0.22691144031E+03  0.12509000000E+03 0.  0.
         25    1    4    4    0    0  0.39090886305E+01  0.44974678837E+02  0.46405512146E+03  0.48273457155E+03  0.12509000000E+03 0.  0.
<mgrwt>
<rscale>  2 0.45568409E+03</rscale>
<asrwt>0</asrwt>
<pdfrwt beam="1">  1       21 0.14609466E+00 0.45568409E+03</pdfrwt>
<pdfrwt beam="2">  1       21 0.76844989E-02 0.45568409E+03</pdfrwt>
<totfact> 0.37236397E+04</totfact>
</mgrwt>
</event>
<event>
 7    0  0.4737014E-002  0.4606931E+03  0.7546771E-02  0.1024580E+00
         21   -1    0    0  502  501  0.00000000000E+00  0.00000000000E+00  0.59078988273E+02  0.59078988273E+02  0.00000000000E+00 0. -1.
         21   -1    0    0  501  502 -0.00000000000E+00 -0.00000000000E+00 -0.89811167122E+03  0.89811167122E+03  0.00000000000E+00 0. -1.
      99926    2    1    2    0    0  0.00000000000E+00  0.35527136788E-14 -0.83903268294E+03  0.95719065949E+03  0.46069308174E+03 0.  0.
      99925    2    3    3    0    0  0.80919417151E+02  0.26640382350E+02 -0.35389925643E+03  0.44899816479E+03  0.26286309411E+03 0.  0.
         25    1    4    4    0    0  0.32520676867E+02  0.20074591846E+01 -0.23439412459E+03  0.26767468699E+03  0.12509000000E+03 0.  0.
         25    1    3    3    0    0 -0.80919417151E+02 -0.26640382350E+02 -0.48513342651E+03  0.50819249470E+03  0.12509000000E+03 0.  0.
         25    1    4    4    0    0  0.48398740284E+02  0.24632923166E+02 -0.11950513184E+03  0.18132347780E+03  0.12509000000E+03 0.  0.
<mgrwt>
<rscale>  2 0.46069308E+03</rscale>
<asrwt>0</asrwt>
<pdfrwt beam="1">  1       21 0.86880864E-02 0.46069308E+03</pdfrwt>
<pdfrwt beam="2">  1       21 0.13207525E+00 0.46069308E+03</pdfrwt>
<totfact> 0.39082035E+04</totfact>
</mgrwt>
</event>
<event>
 7    0  0.4737014E-002  0.4810319E+03  0.7546771E-02  0.1018852E+00
         21   -1    0    0  502  501  0.00000000000E+00  0.00000000000E+00  0.12405225340E+03  0.12405225340E+03  0.00000000000E+00 0.  1.
         21   -1    0    0  501  502 -0.00000000000E+00 -0.00000000000E+00 -0.46631895520E+03  0.46631895520E+03  0.00000000000E+00 0.  1.
      99926    2    1    2    0    0  0.88817841970E-15  0.35527136788E-14 -0.34226670180E+03  0.59037120861E+03  0.48103187919E+03 0.  0.
      99925    2    3    3    0    0 -0.22678376982E+01  0.16467740997E+02 -0.44834213967E+02  0.26727691510E+03  0.26296485130E+03 0.  0.
         25    1    4    4    0    0  0.79679510184E+01 -0.31203834189E+02 -0.24926258101E+02  0.13155224800E+03  0.12509000000E+03 0.  0.
         25    1    3    3    0    0  0.22678376982E+01 -0.16467740997E+02 -0.29743248783E+03  0.32309429351E+03  0.12509000000E+03 0.  0.
         25    1    4    4    0    0 -0.10235788717E+02  0.47671575186E+02 -0.19907955866E+02  0.13572466710E+03  0.12509000000E+03 0.  0.
<mgrwt>
<rscale>  2 0.48103188E+03</rscale>
<asrwt>0</asrwt>
<pdfrwt beam="1">  1       21 0.18242978E-01 0.48103188E+03</pdfrwt>
<pdfrwt beam="2">  1       21 0.68576317E-01 0.48103188E+03</pdfrwt>
<totfact> 0.48498235E+04</totfact>
</mgrwt>
</event>
<event>
 7    0  0.4737014E-002  0.4577596E+03  0.7546771E-02  0.1025433E+00
         21   -1    0    0  502  501  0.00000000000E+00  0.00000000000E+00  0.99287968584E+02  0.99287968584E+02  0.00000000000E+00 0.  1.
         21   -1    0    0  501  502 -0.00000000000E+00 -0.00000000000E+00 -0.52761644961E+03  0.52761644961E+03  0.00000000000E+00 0.  1.
      99926    2    1    2    0    0  0.71054273576E-14  0.00000000000E+00 -0.42832848103E+03  0.62690441820E+03  0.45775961147E+03 0.  0.
      99925    2    3    3    0    0 -0.52813631449E+02 -0.30382938626E+02 -0.13359194558E+03  0.30097568971E+03  0.26273019477E+03 0.  0.
         25    1    3    3    0    0  0.52813631449E+02  0.30382938626E+02 -0.29473653545E+03  0.32592872849E+03  0.12509000000E+03 0.  0.
         25    1    4    4    0    0 -0.60330896989E+02 -0.12626504753E+02 -0.94702270860E+02  0.16856830651E+03  0.12509000000E+03 0.  0.
         25    1    4    4    0    0  0.75172655402E+01 -0.17756433872E+02 -0.38889674720E+02  0.13240738320E+03  0.12509000000E+03 0.  0.
<mgrwt>
<rscale>  2 0.45775961E+03</rscale>
<asrwt>0</asrwt>
<pdfrwt beam="1">  1       21 0.14601171E-01 0.45775961E+03</pdfrwt>
<pdfrwt beam="2">  1       21 0.77590656E-01 0.45775961E+03</pdfrwt>
<totfact> 0.55825791E+04</totfact>
</mgrwt>
</event>
<event>
 7    0  0.4737014E-002  0.4515091E+03  0.7546771E-02  0.1027273E+00
         21   -1    0    0  502  501  0.00000000000E+00  0.00000000000E+00  0.43370988815E+03  0.43370988815E+03  0.00000000000E+00 0. -1.
         21   -1    0    0  501  502 -0.00000000000E+00 -0.00000000000E+00 -0.11750968691E+03  0.11750968691E+03  0.00000000000E+00 0. -1.
      99926    2    1    2    0    0 -0.71054273576E-14  0.17763568394E-14  0.31620020124E+03  0.55121957506E+03  0.45150908370E+03 0.  0.
      99925    2    3    3    0    0 -0.42666896156E+02 -0.86270423106E+01  0.76861704472E+02  0.27767741373E+03  0.26325298592E+03 0.  0.
         25    1    4    4    0    0  0.10429337563E+01  0.26220451563E+02  0.54083409180E+02  0.13878444812E+03  0.12509000000E+03 0.  0.
         25    1    4    4    0    0 -0.43709829912E+02 -0.34847493873E+02  0.22778295292E+02  0.13889296561E+03  0.12509000000E+03 0.  0.
         25    1    3    3    0    0  0.42666896156E+02  0.86270423106E+01  0.23933849677E+03  0.27354216133E+03  0.12509000000E+03 0.  0.
<mgrwt>
<rscale>  2 0.45150908E+03</rscale>
<asrwt>0</asrwt>
<pdfrwt beam="1">  1       21 0.63780865E-01 0.45150908E+03</pdfrwt>
<pdfrwt beam="2">  1       21 0.17280836E-01 0.45150908E+03</pdfrwt>
<totfact> 0.63522305E+04</totfact>
</mgrwt>
</event>
<event>
 7    0  0.4737014E-002  0.4528066E+03  0.7546771E-02  0.1026888E+00
         21   -1    0    0  502  501  0.00000000000E+00  0.00000000000E+00  0.11583166423E+03  0.11583166423E+03  0.00000000000E+00 0. -1.
         21   -1    0    0  501  502 -0.00000000000E+00 -0.00000000000E+00 -0.44252537904E+03  0.44252537904E+03  0.00000000000E+00 0. -1.
      99926    2    1    2    0    0 -0.13322676296E-14  0.00000000000E+00 -0.32669371481E+03  0.55835704327E+03  0.45280658616E+03 0.  0.
      99925    2    3    3    0    0  0.24092802157E+01 -0.99475809731E+02 -0.14508131028E+03  0.31642355048E+03  0.26300957274E+03 0.  0.
         25    1    4    4    0    0 -0.19649376505E+02 -0.56475415689E+02 -0.11217705834E+03  0.17834452919E+03  0.12509000000E+03 0.  0.
         25    1    4    4    0    0  0.22058656721E+02 -0.43000394041E+02 -0.32904251942E+02  0.13807902129E+03  0.12509000000E+03 0.  0.
         25    1    3    3    0    0 -0.24092802157E+01  0.99475809731E+02 -0.18161240453E+03  0.24193349279E+03  0.12509000000E+03 0.  0.
<mgrwt>
<rscale>  2 0.45280659E+03</rscale>
<asrwt>0</asrwt>
<pdfrwt beam="1">  1       21 0.17034068E-01 0.45280659E+03</pdfrwt>
<pdfrwt beam="2">  1       21 0.65077264E-01 0.45280659E+03</pdfrwt>
<totfact> 0.62393140E+04</totfact>
</mgrwt>
</event>
<event>
 7    0  0.4737014E-002  0.4569174E+03  0.7546771E-02  0.1025679E+00
         21   -1    0    0  502  501  0.00000000000E+00  0.00000000000E+00  0.26996535003E+03  0.26996535003E+03  0.00000000000E+00 0. -1.
         21   -1    0    0  501  502 -0.00000000000E+00 -0.00000000000E+00 -0.19333360019E+03  0.19333360019E+03  0.00000000000E+00 0. -1.
      99926    2    1    2    0    0 -0.17763568394E-14  0.00000000000E+00  0.76631749847E+02  0.46329895022E+03  0.45691738005E+03 0.  0.
      99925    2    3    3    0    0 -0.14763668341E+02 -0.40017373119E+02 -0.59722677370E+02  0.27340583824E+03  0.26337159706E+03 0.  0.
         25    1    4    4    0    0  0.26567028352E+02 -0.37300825940E+02 -0.45982781126E+02  0.14092225825E+03  0.12509000000E+03 0.  0.
         25    1    4    4    0    0 -0.41330696694E+02 -0.27165471787E+01 -0.13739896244E+02  0.13248357999E+03  0.12509000000E+03 0.  0.
         25    1    3    3    0    0  0.14763668341E+02  0.40017373119E+02  0.13635442722E+03  0.18989311198E+03  0.12509000000E+03 0.  0.
<mgrwt>
<rscale>  2 0.45691738E+03</rscale>
<asrwt>0</asrwt>
<pdfrwt beam="1">  1       21 0.39700787E-01 0.45691738E+03</pdfrwt>
<pdfrwt beam="2">  1       21 0.28431412E-01 0.45691738E+03</pdfrwt>
<totfact> 0.66910860E+04</totfact>
</mgrwt>
</event>
<event>
 7    0  0.4737014E-002  0.4438690E+03  0.7546771E-02  0.1029566E+00
         21   -1    0    0  502  501  0.00000000000E+00  0.00000000000E+00  0.13957014506E+03  0.13957014506E+03  0.00000000000E+00 0. -1.
         21   -1    0    0  501  502 -0.00000000000E+00 -0.00000000000E+00 -0.35290444426E+03  0.35290444426E+03  0.00000000000E+00 0. -1.
      99926    2    1    2    0    0 -0.35527136788E-14  0.00000000000E+00 -0.21333429920E+03  0.49247458932E+03  0.44386900986E+03 0.  0.
      99925    2    3    3    0    0 -0.21778877901E+02  0.65296476666E+02 -0.21973888270E+03  0.34955336565E+03  0.26299131064E+03 0.  0.
         25    1    4    4    0    0  0.23125023421E+02  0.11657429201E+02 -0.90332625549E+02  0.15645495742E+03  0.12509000000E+03 0.  0.
         25    1    4    4    0    0 -0.44903901321E+02  0.53639047465E+02 -0.12940625716E+03  0.19309840822E+03  0.12509000000E+03 0.  0.
         25    1    3    3    0    0  0.21778877901E+02 -0.65296476666E+02  0.64045835067E+01  0.14292122368E+03  0.12509000000E+03 0.  0.
<mgrwt>
<rscale>  2 0.44386901E+03</rscale>
<asrwt>0</asrwt>
<pdfrwt beam="1">  1       21 0.20525021E-01 0.44386901E+03</pdfrwt>
<pdfrwt beam="2">  1       21 0.51897712E-01 0.44386901E+03</pdfrwt>
<totfact> 0.71953293E+04</totfact>
</mgrwt>
</event>
<event>
 7    0  0.4737014E-002  0.4551241E+03  0.7546771E-02  0.1026205E+00
         21   -1    0    0  502  501  0.00000000000E+00  0.00000000000E+00  0.60889386656E+03  0.60889386656E+03  0.00000000000E+00 0. -1.
         21   -1    0    0  501  502 -0.00000000000E+00 -0.00000000000E+00 -0.85046806560E+02  0.85046806560E+02  0.00000000000E+00 0. -1.
      99926    2    1    2    0    0  0.00000000000E+00  0.00000000000E+00  0.52384706000E+03  0.69394067312E+03  0.45512406609E+03 0.  0.
      99925    2    3    3    0    0 -0.53634789919E+02  0.63327489939E+02  0.21239739598E+03  0.34820166319E+03  0.26314384423E+03 0.  0.
         25    1    4    4    0    0 -0.24155252892E+01  0.52459228817E+02  0.74401808575E+02  0.15472860973E+03  0.12509000000E+03 0.  0.
         25    1    3    3    0    0  0.53634789919E+02 -0.63327489939E+02  0.31144966402E+03  0.34573900993E+03  0.12509000000E+03 0.  0.
         25    1    4    4    0    0 -0.51219264630E+02  0.10868261121E+02  0.13799558741E+03  0.19347305345E+03  0.12509000000E+03 0.  0.
<mgrwt>
<rscale>  2 0.45512407E+03</rscale>
<asrwt>0</asrwt>
<pdfrwt beam="1">  1       21 0.89543214E-01 0.45512407E+03</pdfrwt>
<pdfrwt beam="2">  1       21 0.12506884E-01 0.45512407E+03</pdfrwt>
<totfact> 0.53181266E+04</totfact>
</mgrwt>
</event>
<event>
 7    0  0.4737014E-002  0.4715342E+03  0.7546771E-02  0.1021488E+00
         21   -1    0    0  502  501  0.00000000000E+00  0.00000000000E+00  0.71520568429E+02  0.71520568429E+02  0.00000000000E+00 0.  1.
         21   -1    0    0  501  502 -0.00000000000E+00 -0.00000000000E+00 -0.77720464643E+03  0.77720464643E+03  0.00000000000E+00 0.  1.
      99926    2    1    2    0    0  0.00000000000E+00  0.00000000000E+00 -0.70568407801E+03  0.84872521486E+03  0.47153416885E+03 0.  0.
      99925    2    3    3    0    0 -0.71538744493E+02  0.45405259060E+02 -0.61068389652E+03  0.67025400683E+03  0.26291858567E+03 0.  0.
         25    1    3    3    0    0  0.71538744493E+02 -0.45405259060E+02 -0.95000181490E+02  0.17847120803E+03  0.12509000000E+03 0.  0.
         25    1    4    4    0    0 -0.50679909342E+02  0.61651942610E+02 -0.32782071290E+03  0.35983794011E+03  0.12509000000E+03 0.  0.
         25    1    4    4    0    0 -0.20858835151E+02 -0.16246683550E+02 -0.28286318362E+03  0.31041606672E+03  0.12509000000E+03 0.  0.
<mgrwt>
<rscale>  2 0.47153417E+03</rscale>
<asrwt>0</asrwt>
<pdfrwt beam="1">  1       21 0.10517730E-01 0.47153417E+03</pdfrwt>
<pdfrwt beam="2">  1       21 0.11429480E+00 0.47153417E+03</pdfrwt>
<totfact> 0.40044071E+04</totfact>
</mgrwt>
</event>
<event>
 7    0  0.4737014E-002  0.4567096E+03  0.7546771E-02  0.1025740E+00
         21   -1    0    0  502  501  0.00000000000E+00  0.00000000000E+00  0.77014535525E+03  0.77014535525E+03  0.00000000000E+00 0.  1.
         21   -1    0    0  501  502 -0.00000000000E+00 -0.00000000000E+00 -0.67709194395E+02  0.67709194395E+02  0.00000000000E+00 0.  1.
      99926    2    1    2    0    0  0.00000000000E+00 -0.14210854715E-13  0.70243616085E+03  0.83785454964E+03  0.45670963016E+03 0.  0.
      99925    2    3    3    0    0 -0.35522939275E+02  0.10457766692E+03  0.38373778534E+03  0.47811223869E+03  0.26294154722E+03 0.  0.
         25    1    4    4    0    0 -0.35009909889E+02  0.91853619388E+02  0.22632362800E+03  0.27664539374E+03  0.12509000000E+03 0.  0.
         25    1    3    3    0    0  0.35522939275E+02 -0.10457766692E+03  0.31869837551E+03  0.35974231095E+03  0.12509000000E+03 0.  0.
         25    1    4    4    0    0 -0.51302938600E+00  0.12724047530E+02  0.15741415734E+03  0.20146684495E+03  0.12509000000E+03 0.  0.
<mgrwt>
<rscale>  2 0.45670963E+03</rscale>
<asrwt>0</asrwt>
<pdfrwt beam="1">  1       21 0.11325666E+00 0.45670963E+03</pdfrwt>
<pdfrwt beam="2">  1       21 0.99572350E-02 0.45670963E+03</pdfrwt>
<totfact> 0.45375975E+04</totfact>
</mgrwt>
</event>
<event>
 7    0  0.4737014E-002  0.4228721E+03  0.7546771E-02  0.1036136E+00
         21   -1    0    0  502  501  0.00000000000E+00  0.00000000000E+00  0.14155054801E+04  0.14155054801E+04  0.00000000000E+00 0.  1.
         21   -1    0    0  501  502 -0.00000000000E+00 -0.00000000000E+00 -0.31582495102E+02  0.31582495102E+02  0.00000000000E+00 0.  1.
      99926    2    1    2    0    0  0.00000000000E+00  0.71054273576E-14  0.13839229850E+04  0.14470879752E+04  0.42287206053E+03 0.  0.
      99925    2    3    3    0    0  0.31382094254E+02 -0.47613088592E+02  0.10870858254E+04  0.11199616243E+04  0.26326147847E+03 0.  0.
         25    1    4    4    0    0  0.34055373196E+02 -0.23216274091E+02  0.70427787529E+03  0.71648698352E+03  0.12509000000E+03 0.  0.
         25    1    4    4    0    0 -0.26732789419E+01 -0.24396814501E+02  0.38280795013E+03  0.40347464079E+03  0.12509000000E+03 0.  0.
         25    1    3    3    0    0 -0.31382094254E+02  0.47613088592E+02  0.29683715960E+03  0.32712635092E+03  0.12509000000E+03 0.  0.
<mgrwt>
<rscale>  2 0.42287206E+03</rscale>
<asrwt>0</asrwt>
<pdfrwt beam="1">  1       21 0.20816253E+00 0.42287206E+03</pdfrwt>
<pdfrwt beam="2">  1       21 0.46444855E-02 0.42287206E+03</pdfrwt>
<totfact> 0.32488453E+04</totfact>
</mgrwt>
</event>
<event>
 7    0  0.4737014E-002  0.4077860E+03  0.7546771E-02  0.1041117E+00
         21   -1    0    0  502  501  0.00000000000E+00  0.00000000000E+00  0.44340445838E+03  0.44340445838E+03  0.00000000000E+00 0.  1.
         21   -1    0    0  501  502 -0.00000000000E+00 -0.00000000000E+00 -0.93757207149E+02  0.93757207149E+02  0.00000000000E+00 0.  1.
      99926    2    1    2    0    0  0.35527136788E-14 -0.35527136788E-14  0.34964725123E+03  0.53716166553E+03  0.40778604025E+03 0.  0.
      99925    2    3    3    0    0 -0.30652117018E+02  0.16374938580E+02  0.16793758302E+03  0.31383768000E+03  0.26283714864E+03 0.  0.
         25    1    4    4    0    0  0.95334103641E+01  0.39211284195E+02  0.75529528518E+02  0.15159362948E+03  0.12509000000E+03 0.  0.
         25    1    4    4    0    0 -0.40185527382E+02 -0.22836345614E+02  0.92408054505E+02  0.16224405052E+03  0.12509000000E+03 0.  0.
         25    1    3    3    0    0  0.30652117018E+02 -0.16374938580E+02  0.18170966821E+03  0.22332398553E+03  0.12509000000E+03 0.  0.
<mgrwt>
<rscale>  2 0.40778604E+03</rscale>
<asrwt>0</asrwt>
<pdfrwt beam="1">  1       21 0.65206537E-01 0.40778604E+03</pdfrwt>
<pdfrwt beam="2">  1       21 0.13787825E-01 0.40778604E+03</pdfrwt>
<totfact> 0.92853371E+04</totfact>
</mgrwt>
</event>
<event>
 7    0  0.4737014E-002  0.4546379E+03  0.7546771E-02  0.1026348E+00
         21   -1    0    0  502  501  0.00000000000E+00  0.00000000000E+00  0.37014478012E+03  0.37014478012E+03  0.00000000000E+00 0. -1.
         21   -1    0    0  501  502 -0.00000000000E+00 -0.00000000000E+00 -0.13960457976E+03  0.13960457976E+03  0.00000000000E+00 0. -1.
      99926    2    1    2    0    0  0.00000000000E+00 -0.71054273576E-14  0.23054020035E+03  0.50974935988E+03  0.45463790638E+03 0.  0.
      99925    2    3    3    0    0  0.56162338438E+02 -0.53968771027E+02  0.53606438882E+02  0.27948885403E+03  0.26300861722E+03 0.  0.
         25    1    4    4    0    0  0.64642691409E+02 -0.35013297412E+02  0.46995963691E+02  0.15251471159E+03  0.12509000000E+03 0.  0.
         25    1    3    3    0    0 -0.56162338438E+02  0.53968771027E+02  0.17693376147E+03  0.23026050585E+03  0.12509000000E+03 0.  0.
         25    1    4    4    0    0 -0.84803529716E+01 -0.18955473615E+02  0.66104751904E+01  0.12697414244E+03  0.12509000000E+03 0.  0.
<mgrwt>
<rscale>  2 0.45463791E+03</rscale>
<asrwt>0</asrwt>
<pdfrwt beam="1">  1       21 0.54433056E-01 0.45463791E+03</pdfrwt>
<pdfrwt beam="2">  1       21 0.20530085E-01 0.45463791E+03</pdfrwt>
<totfact> 0.64776972E+04</totfact>
</mgrwt>
</event>
<event>
 7    0  0.4737014E-002  0.4489978E+03  0.7546771E-02  0.1028021E+00
         21   -1    0    0  502  501  0.00000000000E+00  0.00000000000E+00  0.27321221370E+03  0.27321221370E+03  0.00000000000E+00 0.  1.
         21   -1    0    0  501  502 -0.00000000000E+00 -0.00000000000E+00 -0.18447107196E+03  0.18447107196E+03  0.00000000000E+00 0.  1.
      99926    2    1    2    0    0  0.00000000000E+00  0.00000000000E+00  0.88741141743E+02  0.45768328566E+03  0.44899777253E+03 0.  0.
      99925    2    3    3    0    0  0.99502219181E+02  0.35071702716E+02  0.35545117908E+02  0.28561341321E+03  0.26302252840E+03 0.  0.
         25    1    4    4    0    0  0.46129468915E+02 -0.20656988523E+02  0.23502916632E+01  0.13493580343E+03  0.12509000000E+03 0.  0.
         25    1    3    3    0    0 -0.99502219181E+02 -0.35071702716E+02  0.53196023835E+02  0.17206987245E+03  0.12509000000E+03 0.  0.
         25    1    4    4    0    0  0.53372750266E+02  0.55728691240E+02  0.33194826245E+02  0.15067760978E+03  0.12509000000E+03 0.  0.
<mgrwt>
<rscale>  2 0.44899777E+03</rscale>
<asrwt>0</asrwt>
<pdfrwt beam="1">  1       21 0.40178267E-01 0.44899777E+03</pdfrwt>
<pdfrwt beam="2">  1       21 0.27128099E-01 0.44899777E+03</pdfrwt>
<totfact> 0.71717872E+04</totfact>
</mgrwt>
</event>
<event>
 7    0  0.4737014E-002  0.4555540E+03  0.7546771E-02  0.1026079E+00
         21   -1    0    0  502  501  0.00000000000E+00  0.00000000000E+00  0.91671710589E+02  0.91671710589E+02  0.00000000000E+00 0. -1.
         21   -1    0    0  501  502 -0.00000000000E+00 -0.00000000000E+00 -0.56595833885E+03  0.56595833885E+03  0.00000000000E+00 0. -1.
      99926    2    1    2    0    0  0.00000000000E+00  0.00000000000E+00 -0.47428662826E+03  0.65763004944E+03  0.45555403212E+03 0.  0.
      99925    2    3    3    0    0  0.17092410523E+02  0.70811460866E+02 -0.17219644696E+03  0.32264885710E+03  0.26295295235E+03 0.  0.
         25    1    4    4    0    0 -0.19800235966E+02  0.50470907746E+02 -0.11671308503E+03  0.17946814255E+03  0.12509000000E+03 0.  0.
         25    1    3    3    0    0 -0.17092410523E+02 -0.70811460866E+02 -0.30209018130E+03  0.33498119234E+03  0.12509000000E+03 0.  0.
         25    1    4    4    0    0  0.36892646489E+02  0.20340553120E+02 -0.55483361932E+02  0.14318071454E+03  0.12509000000E+03 0.  0.
<mgrwt>
<rscale>  2 0.45555403E+03</rscale>
<asrwt>0</asrwt>
<pdfrwt beam="1">  1       21 0.13481133E-01 0.45555403E+03</pdfrwt>
<pdfrwt beam="2">  1       21 0.83229172E-01 0.45555403E+03</pdfrwt>
<totfact> 0.55023093E+04</totfact>
</mgrwt>
</event>
<event>
 7    0  0.4737014E-002  0.4591428E+03  0.7546771E-02  0.1025030E+00
         21   -1    0    0  502  501  0.00000000000E+00  0.00000000000E+00  0.12917974344E+03  0.12917974344E+03  0.00000000000E+00 0.  1.
         21   -1    0    0  501  502 -0.00000000000E+00 -0.00000000000E+00 -0.40798217205E+03  0.40798217205E+03  0.00000000000E+00 0.  1.
      99926    2    1    2    0    0  0.00000000000E+00  0.00000000000E+00 -0.27880242861E+03  0.53716191548E+03  0.45914282010E+03 0.  0.
      99925    2    3    3    0    0  0.11353835161E+03  0.93361511326E+01 -0.14656339358E+03  0.32242302405E+03  0.26362408293E+03 0.  0.
         25    1    4    4    0    0  0.46606118322E+02 -0.13730947688E+02 -0.30346912213E+02  0.13758311077E+03  0.12509000000E+03 0.  0.
         25    1    3    3    0    0 -0.11353835161E+03 -0.93361511326E+01 -0.13223903504E+03  0.21473889143E+03  0.12509000000E+03 0.  0.
         25    1    4    4    0    0  0.66932233291E+02  0.23067098821E+02 -0.11621648136E+03  0.18483991328E+03  0.12509000000E+03 0.  0.
<mgrwt>
<rscale>  2 0.45914282E+03</rscale>
<asrwt>0</asrwt>
<pdfrwt beam="1">  1       21 0.18997021E-01 0.45914282E+03</pdfrwt>
<pdfrwt beam="2">  1       21 0.59997379E-01 0.45914282E+03</pdfrwt>
<totfact> 0.60706499E+04</totfact>
</mgrwt>
</event>
<event>
 7    0  0.4737014E-002  0.4640536E+03  0.7546771E-02  0.1023612E+00
         21   -1    0    0  502  501  0.00000000000E+00  0.00000000000E+00  0.78988579085E+02  0.78988579085E+02  0.00000000000E+00 0.  1.
         21   -1    0    0  501  502 -0.00000000000E+00 -0.00000000000E+00 -0.68157227451E+03  0.68157227451E+03  0.00000000000E+00 0.  1.
      99926    2    1    2    0    0  0.00000000000E+00  0.00000000000E+00 -0.60258369543E+03  0.76056085360E+03  0.46405355513E+03 0.  0.
      99925    2    3    3    0    0 -0.43549236982E+02  0.70973144725E+02 -0.23144050224E+03  0.36015043757E+03  0.26307776092E+03 0.  0.
         25    1    4    4    0    0 -0.28086773244E+02  0.38992885172E+02 -0.65000512390E+02  0.14893584738E+03  0.12509000000E+03 0.  0.
         25    1    3    3    0    0  0.43549236982E+02 -0.70973144725E+02 -0.37114319319E+03  0.40041041603E+03  0.12509000000E+03 0.  0.
         25    1    4    4    0    0 -0.15462463738E+02  0.31980259554E+02 -0.16643998985E+03  0.21121459018E+03  0.12509000000E+03 0.  0.
<mgrwt>
<rscale>  2 0.46405356E+03</rscale>
<asrwt>0</asrwt>
<pdfrwt beam="1">  1       21 0.11615967E-01 0.46405356E+03</pdfrwt>
<pdfrwt beam="2">  1       21 0.10023122E+00 0.46405356E+03</pdfrwt>
<totfact> 0.46347845E+04</totfact>
</mgrwt>
</event>
<event>
 7    0  0.4737014E-002  0.4537797E+03  0.7546771E-02  0.1026601E+00
         21   -1    0    0  502  501  0.00000000000E+00  0.00000000000E+00  0.40108107822E+03  0.40108107822E+03  0.00000000000E+00 0.  1.
         21   -1    0    0  501  502 -0.00000000000E+00 -0.00000000000E+00 -0.12835060823E+03  0.12835060823E+03  0.00000000000E+00 0.  1.
      99926    2    1    2    0    0  0.00000000000E+00  0.00000000000E+00  0.27273047000E+03  0.52943168645E+03  0.45377968371E+03 0.  0.
      99925    2    3    3    0    0  0.15236177541E+02  0.63011365748E+02  0.27847387550E+03  0.38842435286E+03  0.26291292330E+03 0.  0.
         25    1    4    4    0    0  0.36252337830E+02  0.10942946174E+02  0.16468382877E+03  0.21024331530E+03  0.12509000000E+03 0.  0.
         25    1    4    4    0    0 -0.21016160289E+02  0.52068419574E+02  0.11379004673E+03  0.17818103756E+03  0.12509000000E+03 0.  0.
         25    1    3    3    0    0 -0.15236177541E+02 -0.63011365748E+02 -0.57434055066E+01  0.14100733359E+03  0.12509000000E+03 0.  0.
<mgrwt>
<rscale>  2 0.45377968E+03</rscale>
<asrwt>0</asrwt>
<pdfrwt beam="1">  1       21 0.58982511E-01 0.45377968E+03</pdfrwt>
<pdfrwt beam="2">  1       21 0.18875089E-01 0.45377968E+03</pdfrwt>
<totfact> 0.63860453E+04</totfact>
</mgrwt>
</event>
<event>
 7    0  0.4737014E-002  0.4506714E+03  0.7546771E-02  0.1027522E+00
         21   -1    0    0  502  501  0.00000000000E+00  0.00000000000E+00  0.28794585399E+03  0.28794585399E+03  0.00000000000E+00 0.  1.
         21   -1    0    0  501  502 -0.00000000000E+00 -0.00000000000E+00 -0.17633929550E+03  0.17633929550E+03  0.00000000000E+00 0.  1.
      99926    2    1    2    0    0 -0.35527136788E-14  0.00000000000E+00  0.11160655849E+03  0.46428514949E+03  0.45067136157E+03 0.  0.
      99925    2    3    3    0    0  0.29089111408E+02 -0.76458961673E+02 -0.37553831036E+01  0.27547827755E+03  0.26302476932E+03 0.  0.
         25    1    4    4    0    0  0.33252120769E+02 -0.27979041327E+02 -0.36419169308E+02  0.13734043207E+03  0.12509000000E+03 0.  0.
         25    1    3    3    0    0 -0.29089111408E+02  0.76458961673E+02  0.11536194159E+03  0.18880687194E+03  0.12509000000E+03 0.  0.
         25    1    4    4    0    0 -0.41630093610E+01 -0.48479920346E+02  0.32663786204E+02  0.13813784548E+03  0.12509000000E+03 0.  0.
<mgrwt>
<rscale>  2 0.45067136E+03</rscale>
<asrwt>0</asrwt>
<pdfrwt beam="1">  1       21 0.42344979E-01 0.45067136E+03</pdfrwt>
<pdfrwt beam="2">  1       21 0.25932249E-01 0.45067136E+03</pdfrwt>
<totfact> 0.70244362E+04</totfact>
</mgrwt>
</event>
<event>
 7    0  0.4737014E-002  0.4520843E+03  0.7546771E-02  0.1027102E+00
         21   -1    0    0  502  501  0.00000000000E+00  0.00000000000E+00  0.76398395380E+03  0.76398395380E+03  0.00000000000E+00 0. -1.
         21   -1    0    0  501  502 -0.00000000000E+00 -0.00000000000E+00 -0.66879752254E+02  0.66879752254E+02  0.00000000000E+00 0. -1.
      99926    2    1    2    0    0 -0.35527136788E-14  0.35527136788E-14  0.69710420155E+03  0.83086370606E+03  0.45208431761E+03 0.  0.
      99925    2    3    3    0    0 -0.25263198292E+02 -0.21095815825E+02  0.24596524094E+03  0.36154810595E+03  0.26293510706E+03 0.  0.
         25    1    4    4    0    0  0.15410643033E+02 -0.32860370476E+02  0.14777736785E+03  0.19698464513E+03  0.12509000000E+03 0.  0.
         25    1    4    4    0    0 -0.40673841324E+02  0.11764554651E+02  0.98187873091E+02  0.16456346082E+03  0.12509000000E+03 0.  0.
         25    1    3    3    0    0  0.25263198292E+02  0.21095815825E+02  0.45113896061E+03  0.46931560011E+03  0.12509000000E+03 0.  0.
<mgrwt>
<rscale>  2 0.45208432E+03</rscale>
<asrwt>0</asrwt>
<pdfrwt beam="1">  1       21 0.11235058E+00 0.45208432E+03</pdfrwt>
<pdfrwt beam="2">  1       21 0.98352581E-02 0.45208432E+03</pdfrwt>
<totfact> 0.47382600E+04</totfact>
</mgrwt>
</event>
<event>
 7    0  0.4737014E-002  0.4650288E+03  0.7546771E-02  0.1023333E+00
         21   -1    0    0  502  501  0.00000000000E+00  0.00000000000E+00  0.86892503624E+02  0.86892503624E+02  0.00000000000E+00 0.  1.
         21   -1    0    0  501  502 -0.00000000000E+00 -0.00000000000E+00 -0.62218184141E+03  0.62218184141E+03  0.00000000000E+00 0.  1.
      99926    2    1    2    0    0  0.00000000000E+00  0.00000000000E+00 -0.53528933778E+03  0.70907434503E+03  0.46502876431E+03 0.  0.
      99925    2    3    3    0    0  0.95744123411E+02 -0.49163101111E+02 -0.42272535767E+03  0.50931923146E+03  0.26291710450E+03 0.  0.
         25    1    4    4    0    0  0.42429331279E+02 -0.28578628770E+02 -0.13818575447E+03  0.19328682576E+03  0.12509000000E+03 0.  0.
         25    1    4    4    0    0  0.53314792132E+02 -0.20584472342E+02 -0.28453960320E+03  0.31603240570E+03  0.12509000000E+03 0.  0.
         25    1    3    3    0    0 -0.95744123411E+02  0.49163101111E+02 -0.11256398011E+03  0.19975511357E+03  0.12509000000E+03 0.  0.
<mgrwt>
<rscale>  2 0.46502876E+03</rscale>
<asrwt>0</asrwt>
<pdfrwt beam="1">  1       21 0.12778309E-01 0.46502876E+03</pdfrwt>
<pdfrwt beam="2">  1       21 0.91497330E-01 0.46502876E+03</pdfrwt>
<totfact> 0.48473388E+04</totfact>
</mgrwt>
</event>
<event>
 6    0  0.4737014E-002  0.4515684E+03  0.7546771E-02  0.1027255E+00
         21   -1    0    0  502  501  0.00000000000E+00  0.00000000000E+00  0.13227950680E+03  0.13227950680E+03  0.00000000000E+00 0. -1.
         21   -1    0    0  501  502 -0.00000000000E+00 -0.00000000000E+00 -0.38538481489E+03  0.38538481489E+03  0.00000000000E+00 0. -1.
      99926    2    1    2    0    0  0.00000000000E+00  0.00000000000E+00 -0.25310530809E+03  0.51766432169E+03  0.45156843664E+03 0.  0.
         25    1    3    3    0    0  0.97425187214E+01 -0.16597826814E+01 -0.60326739091E+02  0.13922821230E+03  0.12509000000E+03 0.  0.
         25    1    3    3    0    0 -0.10650862649E+03 -0.16592071410E+02 -0.81070076499E+02  0.18395447739E+03  0.12509000000E+03 0.  0.
         25    1    3    3    0    0  0.96766107767E+02  0.18251854092E+02 -0.11170849250E+03  0.19448163200E+03  0.12509000000E+03 0.  0.
<mgrwt>
<rscale>  2 0.45156844E+03</rscale>
<asrwt>0</asrwt>
<pdfrwt beam="1">  1       21 0.19452868E-01 0.45156844E+03</pdfrwt>
<pdfrwt beam="2">  1       21 0.56674238E-01 0.45156844E+03</pdfrwt>
<totfact> 0.65820504E+04</totfact>
</mgrwt>
</event>
<event>
 7    0  0.4737014E-002  0.4542192E+03  0.7546771E-02  0.1026471E+00
         21   -1    0    0  502  501  0.00000000000E+00  0.00000000000E+00  0.17371118242E+03  0.17371118242E+03  0.00000000000E+00 0.  1.
         21   -1    0    0  501  502 -0.00000000000E+00 -0.00000000000E+00 -0.29692257141E+03  0.29692257141E+03  0.00000000000E+00 0.  1.
      99926    2    1    2    0    0  0.00000000000E+00  0.00000000000E+00 -0.12321138899E+03  0.47063375384E+03  0.45421920245E+03 0.  0.
      99925    2    3    3    0    0 -0.10717729624E+03 -0.33174365189E+02 -0.69249773574E+02  0.29414898006E+03  0.26294596402E+03 0.  0.
         25    1    3    3    0    0  0.10717729624E+03  0.33174365189E+02 -0.53961615419E+02  0.17648477377E+03  0.12509000000E+03 0.  0.
         25    1    4    4    0    0 -0.50333597374E+02 -0.31010723598E+02 -0.73496595690E+02  0.15666650465E+03  0.12509000000E+03 0.  0.
         25    1    4    4    0    0 -0.56843698868E+02 -0.21636415904E+01  0.42468221164E+01  0.13748247541E+03  0.12509000000E+03 0.  0.
<mgrwt>
<rscale>  2 0.45421920E+03</rscale>
<asrwt>0</asrwt>
<pdfrwt beam="1">  1       21 0.25545763E-01 0.45421920E+03</pdfrwt>
<pdfrwt beam="2">  1       21 0.43665083E-01 0.45421920E+03</pdfrwt>
<totfact> 0.67807665E+04</totfact>
</mgrwt>
</event>
<event>
 7    0  0.4737014E-002  0.4532349E+03  0.7546771E-02  0.1026762E+00
         21   -1    0    0  502  501  0.00000000000E+00  0.00000000000E+00  0.11268190335E+03  0.11268190335E+03  0.00000000000E+00 0. -1.
         21   -1    0    0  501  502 -0.00000000000E+00 -0.00000000000E+00 -0.45575610895E+03  0.45575610895E+03  0.00000000000E+00 0. -1.
      99926    2    1    2    0    0  0.00000000000E+00  0.00000000000E+00 -0.34307420560E+03  0.56843801229E+03  0.45323488753E+03 0.  0.
      99925    2    3    3    0    0 -0.10239466480E+03  0.41090816479E+02 -0.23691725219E+03  0.37072627912E+03  0.26293548080E+03 0.  0.
         25    1    3    3    0    0  0.10239466480E+03 -0.41090816479E+02 -0.10615695341E+03  0.19771173318E+03  0.12509000000E+03 0.  0.
         25    1    4    4    0    0 -0.23135997646E+02 -0.11168049883E+02 -0.96421532073E+02  0.16001443583E+03  0.12509000000E+03 0.  0.
         25    1    4    4    0    0 -0.79258667157E+02  0.52258866362E+02 -0.14049572012E+03  0.21071184329E+03  0.12509000000E+03 0.  0.
<mgrwt>
<rscale>  2 0.45323489E+03</rscale>
<asrwt>0</asrwt>
<pdfrwt beam="1">  1       21 0.16570868E-01 0.45323489E+03</pdfrwt>
<pdfrwt beam="2">  1       21 0.67022957E-01 0.45323489E+03</pdfrwt>
<totfact> 0.61518538E+04</totfact>
</mgrwt>
</event>
<event>
 7    0  0.4737014E-002  0.4589706E+03  0.7546771E-02  0.1025080E+00
         21   -1    0    0  502  501  0.00000000000E+00  0.00000000000E+00  0.10968852201E+03  0.10968852201E+03  0.00000000000E+00 0.  1.
         21   -1    0    0  501  502 -0.00000000000E+00 -0.00000000000E+00 -0.48011868781E+03  0.48011868781E+03  0.00000000000E+00 0.  1.
      99926    2    1    2    0    0  0.00000000000E+00  0.00000000000E+00 -0.37043016580E+03  0.58980720982E+03  0.45897062763E+03 0.  0.
      99925    2    3    3    0    0 -0.56627210591E+02  0.10015968775E+03 -0.25697806265E+03  0.38546071037E+03  0.26325582715E+03 0.  0.
         25    1    4    4    0    0 -0.35909649824E+02  0.11321255455E+02 -0.95991243539E+02  0.16210953307E+03  0.12509000000E+03 0.  0.
         25    1    3    3    0    0  0.56627210591E+02 -0.10015968775E+03 -0.11345210315E+03  0.20434649945E+03  0.12509000000E+03 0.  0.
         25    1    4    4    0    0 -0.20717560767E+02  0.88838432290E+02 -0.16098681911E+03  0.22335117731E+03  0.12509000000E+03 0.  0.
<mgrwt>
<rscale>  2 0.45897063E+03</rscale>
<asrwt>0</asrwt>
<pdfrwt beam="1">  1       21 0.16130665E-01 0.45897063E+03</pdfrwt>
<pdfrwt beam="2">  1       21 0.70605688E-01 0.45897063E+03</pdfrwt>
<totfact> 0.57484713E+04</totfact>
</mgrwt>
</event>
<event>
 7    0  0.4737014E-002  0.4591539E+03  0.7546771E-02  0.1025027E+00
         21   -1    0    0  502  501  0.00000000000E+00  0.00000000000E+00  0.11305462727E+04  0.11305462727E+04  0.00000000000E+00 0. -1.
         21   -1    0    0  501  502 -0.00000000000E+00 -0.00000000000E+00 -0.46619561199E+02  0.46619561199E+02  0.00000000000E+00 0. -1.
      99926    2    1    2    0    0  0.00000000000E+00  0.00000000000E+00  0.10839267115E+04  0.11771658339E+04  0.45915387899E+03 0.  0.
      99925    2    3    3    0    0 -0.48394577451E+02  0.10532838799E+03  0.63690919956E+03  0.69872224420E+03  0.26291318264E+03 0.  0.
         25    1    4    4    0    0 -0.97512738030E+01  0.87549650732E+02  0.29825719704E+03  0.33520872955E+03  0.12509000000E+03 0.  0.
         25    1    4    4    0    0 -0.38643303648E+02  0.17778737262E+02  0.33865200252E+03  0.36351351464E+03  0.12509000000E+03 0.  0.
         25    1    3    3    0    0  0.48394577451E+02 -0.10532838799E+03  0.44701751191E+03  0.47844358968E+03  0.12509000000E+03 0.  0.
<mgrwt>
<rscale>  2 0.45915388E+03</rscale>
<asrwt>0</asrwt>
<pdfrwt beam="1">  1       21 0.16625679E+00 0.45915388E+03</pdfrwt>
<pdfrwt beam="2">  1       21 0.68558185E-02 0.45915388E+03</pdfrwt>
<totfact> 0.31844960E+04</totfact>
</mgrwt>
</event>
<event>
 7    0  0.4737014E-002  0.4534018E+03  0.7546771E-02  0.1026712E+00
         21   -1    0    0  502  501  0.00000000000E+00  0.00000000000E+00  0.63740477666E+03  0.63740477666E+03  0.00000000000E+00 0.  1.
         21   -1    0    0  501  502 -0.00000000000E+00 -0.00000000000E+00 -0.80628964754E+02  0.80628964754E+02  0.00000000000E+00 0.  1.
      99926    2    1    2    0    0  0.00000000000E+00  0.35527136788E-14  0.55677581191E+03  0.71803374142E+03  0.45340175241E+03 0.  0.
      99925    2    3    3    0    0 -0.82138591687E+02  0.20870959904E+02  0.23509179833E+03  0.36263191544E+03  0.26277634453E+03 0.  0.
         25    1    3    3    0    0  0.82138591687E+02 -0.20870959904E+02  0.32168401358E+03  0.35540182597E+03  0.12509000000E+03 0.  0.
         25    1    4    4    0    0 -0.65685592902E+02 -0.15485600036E+02  0.14724798805E+03  0.20465551302E+03  0.12509000000E+03 0.  0.
         25    1    4    4    0    0 -0.16452998785E+02  0.36356559940E+02  0.87843810276E+02  0.15797640243E+03  0.12509000000E+03 0.  0.
<mgrwt>
<rscale>  2 0.45340175E+03</rscale>
<asrwt>0</asrwt>
<pdfrwt beam="1">  1       21 0.93735994E-01 0.45340175E+03</pdfrwt>
<pdfrwt beam="2">  1       21 0.11857201E-01 0.45340175E+03</pdfrwt>
<totfact> 0.52592864E+04</totfact>
</mgrwt>
</event>
<event>
 7    0  0.4737014E-002  0.4541119E+03  0.7546771E-02  0.1026503E+00
         21   -1    0    0  502  501  0.00000000000E+00  0.00000000000E+00  0.50224278951E+02  0.50224278951E+02  0.00000000000E+00 0. -1.
         21   -1    0    0  501  502 -0.00000000000E+00 -0.00000000000E+00 -0.10264836143E+04  0.10264836143E+04  0.00000000000E+00 0. -1.
      99926    2    1    2    0    0  0.00000000000E+00  0.00000000000E+00 -0.97625933534E+03  0.10767078932E+04  0.45411187777E+03 0.  0.
      99925    2    3    3    0    0  0.32052519088E+02 -0.60672530957E+02 -0.40386283675E+03  0.48679791732E+03  0.26298003994E+03 0.  0.
         25    1    4    4    0    0  0.41006990130E+02 -0.63861837310E+02 -0.22048363163E+03  0.26461377028E+03  0.12509000000E+03 0.  0.
         25    1    4    4    0    0 -0.89544710418E+01  0.31893063531E+01 -0.18337920512E+03  0.22218414704E+03  0.12509000000E+03 0.  0.
         25    1    3    3    0    0 -0.32052519088E+02  0.60672530957E+02 -0.57239649859E+03  0.58990997592E+03  0.12509000000E+03 0.  0.
<mgrwt>
<rscale>  2 0.45411188E+03</rscale>
<asrwt>0</asrwt>
<pdfrwt beam="1">  1       21 0.73859239E-02 0.45411188E+03</pdfrwt>
<pdfrwt beam="2">  1       21 0.15095346E+00 0.45411188E+03</pdfrwt>
<totfact> 0.36565146E+04</totfact>
</mgrwt>
</event>
<event>
 7    0  0.4737014E-002  0.4533399E+03  0.7546771E-02  0.1026731E+00
         21   -1    0    0  502  501  0.00000000000E+00  0.00000000000E+00  0.99360888499E+02  0.99360888499E+02  0.00000000000E+00 0. -1.
         21   -1    0    0  501  502 -0.00000000000E+00 -0.00000000000E+00 -0.51709757328E+03  0.51709757328E+03  0.00000000000E+00 0. -1.
      99926    2    1    2    0    0  0.00000000000E+00  0.00000000000E+00 -0.41773668478E+03  0.61645846177E+03  0.45333993568E+03 0.  0.
      99925    2    3    3    0    0  0.18591259488E+02  0.99256851645E+02 -0.32801171717E+03  0.43235078828E+03  0.26294098196E+03 0.  0.
         25    1    4    4    0    0 -0.11481504790E+02  0.59168823272E+02 -0.11499422307E+03  0.18028852997E+03  0.12509000000E+03 0.  0.
         25    1    3    3    0    0 -0.18591259488E+02 -0.99256851645E+02 -0.89724967602E+02  0.18410767349E+03  0.12509000000E+03 0.  0.
         25    1    4    4    0    0  0.30072764278E+02  0.40088028373E+02 -0.21301749411E+03  0.25206225831E+03  0.12509000000E+03 0.  0.
<mgrwt>
<rscale>  2 0.45333994E+03</rscale>
<asrwt>0</asrwt>
<pdfrwt beam="1">  1       21 0.14611896E-01 0.45333994E+03</pdfrwt>
<pdfrwt beam="2">  1       21 0.76043760E-01 0.45333994E+03</pdfrwt>
<totfact> 0.58438851E+04</totfact>
</mgrwt>
</event>
<event>
 7    0  0.4737014E-002  0.4593939E+03  0.7546771E-02  0.1024957E+00
         21   -1    0    0  502  501  0.00000000000E+00  0.00000000000E+00  0.76599191413E+02  0.76599191413E+02  0.00000000000E+00 0.  1.
         21   -1    0    0  501  502 -0.00000000000E+00 -0.00000000000E+00 -0.68878907578E+03  0.68878907578E+03  0.00000000000E+00 0.  1.
      99926    2    1    2    0    0 -0.71054273576E-14  0.00000000000E+00 -0.61218988437E+03  0.76538826719E+03  0.45939388877E+03 0.  0.
      99925    2    3    3    0    0 -0.57633416893E+02  0.93837495311E+01 -0.21431744347E+03  0.34424737293E+03  0.26299167609E+03 0.  0.
         25    1    4    4    0    0  0.26393406374E+00  0.24016341817E+02 -0.13001158332E+03  0.18200926963E+03  0.12509000000E+03 0.  0.
         25    1    3    3    0    0  0.57633416893E+02 -0.93837495311E+01 -0.39787244089E+03  0.42114089426E+03  0.12509000000E+03 0.  0.
         25    1    4    4    0    0 -0.57897350957E+02 -0.14632592286E+02 -0.84305860153E+02  0.16223810330E+03  0.12509000000E+03 0.  0.
<mgrwt>
<rscale>  2 0.45939389E+03</rscale>
<asrwt>0</asrwt>
<pdfrwt beam="1">  1       21 0.11264587E-01 0.45939389E+03</pdfrwt>
<pdfrwt beam="2">  1       21 0.10129251E+00 0.45939389E+03</pdfrwt>
<totfact> 0.47813544E+04</totfact>
</mgrwt>
</event>
<event>
 7    0  0.4737014E-002  0.4459147E+03  0.7546771E-02  0.1028947E+00
         21   -1    0    0  502  501  0.00000000000E+00  0.00000000000E+00  0.16539822285E+03  0.16539822285E+03  0.00000000000E+00 0.  1.
         21   -1    0    0  501  502 -0.00000000000E+00 -0.00000000000E+00 -0.30054729898E+03  0.30054729898E+03  0.00000000000E+00 0.  1.
      99926    2    1    2    0    0  0.00000000000E+00  0.00000000000E+00 -0.13514907613E+03  0.46594552183E+03  0.44591474133E+03 0.  0.
      99925    2    3    3    0    0 -0.47505838343E+02  0.19778553038E+02 -0.18071018734E+03  0.32321739288E+03  0.26299299499E+03 0.  0.
         25    1    4    4    0    0 -0.15944866947E+01 -0.23318875027E+02 -0.74564431592E+02  0.14749127052E+03  0.12509000000E+03 0.  0.
         25    1    3    3    0    0  0.47505838343E+02 -0.19778553038E+02  0.45561111218E+02  0.14272812895E+03  0.12509000000E+03 0.  0.
         25    1    4    4    0    0 -0.45911351648E+02  0.43097428066E+02 -0.10614575575E+03  0.17572612236E+03  0.12509000000E+03 0.  0.
<mgrwt>
<rscale>  2 0.44591474E+03</rscale>
<asrwt>0</asrwt>
<pdfrwt beam="1">  1       21 0.24323268E-01 0.44591474E+03</pdfrwt>
<pdfrwt beam="2">  1       21 0.44198132E-01 0.44591474E+03</pdfrwt>
<totfact> 0.72849708E+04</totfact>
</mgrwt>
</event>
<event>
 7    0  0.4737014E-002  0.4495660E+03  0.7546771E-02  0.1027852E+00
         21   -1    0    0  502  501  0.00000000000E+00  0.00000000000E+00  0.92098877666E+02  0.92098877666E+02  0.00000000000E+00 0. -1.
         21   -1    0    0  501  502 -0.00000000000E+00 -0.00000000000E+00 -0.54862113376E+03  0.54862113376E+03  0.00000000000E+00 0. -1.
      99926    2    1    2    0    0  0.00000000000E+00  0.00000000000E+00 -0.45652225609E+03  0.64072001143E+03  0.44956597150E+03 0.  0.
      99925    2    3    3    0    0 -0.96577740749E+02  0.44238791704E+02 -0.31521377950E+03  0.42415610779E+03  0.26318120429E+03 0.  0.
         25    1    4    4    0    0 -0.55543581642E+02  0.11498500907E+02 -0.10055484795E+03  0.17022364856E+03  0.12509000000E+03 0.  0.
         25    1    4    4    0    0 -0.41034159107E+02  0.32740290797E+02 -0.21465893155E+03  0.25393245923E+03  0.12509000000E+03 0.  0.
         25    1    3    3    0    0  0.96577740749E+02 -0.44238791704E+02 -0.14130847660E+03  0.21656390364E+03  0.12509000000E+03 0.  0.
<mgrwt>
<rscale>  2 0.44956597E+03</rscale>
<asrwt>0</asrwt>
<pdfrwt beam="1">  1       21 0.13543953E-01 0.44956597E+03</pdfrwt>
<pdfrwt beam="2">  1       21 0.80679579E-01 0.44956597E+03</pdfrwt>
<totfact> 0.58716860E+04</totfact>
</mgrwt>
</event>
<event>
 7    0  0.4737014E-002  0.4502112E+03  0.7546771E-02  0.1027659E+00
         21   -1    0    0  502  501  0.00000000000E+00  0.00000000000E+00  0.23599908601E+03  0.23599908601E+03  0.00000000000E+00 0.  1.
         21   -1    0    0  501  502 -0.00000000000E+00 -0.00000000000E+00 -0.21471491507E+03  0.21471491507E+03  0.00000000000E+00 0.  1.
      99926    2    1    2    0    0  0.71054273576E-14  0.14210854715E-13  0.21284170936E+02  0.45071400108E+03  0.45021116694E+03 0.  0.
      99925    2    3    3    0    0 -0.51005280082E+02 -0.95311735844E+02  0.43279201252E+01  0.28451866984E+03  0.26314687345E+03 0.  0.
         25    1    4    4    0    0 -0.54113705775E+02 -0.80571989729E+02 -0.23934083238E+01  0.15834574571E+03  0.12509000000E+03 0.  0.
         25    1    4    4    0    0  0.31084256929E+01 -0.14739746115E+02  0.67213284490E+01  0.12617292412E+03  0.12509000000E+03 0.  0.
         25    1    3    3    0    0  0.51005280082E+02  0.95311735844E+02  0.16956250811E+02  0.16619533124E+03  0.12509000000E+03 0.  0.
<mgrwt>
<rscale>  2 0.45021117E+03</rscale>
<asrwt>0</asrwt>
<pdfrwt beam="1">  1       21 0.34705748E-01 0.45021117E+03</pdfrwt>
<pdfrwt beam="2">  1       21 0.31575723E-01 0.45021117E+03</pdfrwt>
<totfact> 0.71556243E+04</totfact>
</mgrwt>
</event>
<event>
 7    0  0.4737014E-002  0.4518629E+03  0.7546771E-02  0.1027168E+00
         21   -1    0    0  502  501  0.00000000000E+00  0.00000000000E+00  0.17827264699E+03  0.17827264699E+03  0.00000000000E+00 0. -1.
         21   -1    0    0  501  502 -0.00000000000E+00 -0.00000000000E+00 -0.28633114184E+03  0.28633114184E+03  0.00000000000E+00 0. -1.
      99926    2    1    2    0    0  0.00000000000E+00  0.00000000000E+00 -0.10805849485E+03  0.46460378883E+03  0.45186285783E+03 0.  0.
      99925    2    3    3    0    0  0.33872306349E+02  0.10338468017E+03 -0.50426151453E+02  0.28909105329E+03  0.26304964381E+03 0.  0.
         25    1    3    3    0    0 -0.33872306349E+02 -0.10338468017E+03 -0.57632343393E+02  0.17551273554E+03  0.12509000000E+03 0.  0.
         25    1    4    4    0    0  0.50299903957E+02  0.38175437980E+02 -0.58767551311E+01  0.14024795454E+03  0.12509000000E+03 0.  0.
         25    1    4    4    0    0 -0.16427597609E+02  0.65209242194E+02 -0.44549396322E+02  0.14884309874E+03  0.12509000000E+03 0.  0.
<mgrwt>
<rscale>  2 0.45186286E+03</rscale>
<asrwt>0</asrwt>
<pdfrwt beam="1">  1       21 0.26216566E-01 0.45186286E+03</pdfrwt>
<pdfrwt beam="2">  1       21 0.42107521E-01 0.45186286E+03</pdfrwt>
<totfact> 0.69554132E+04</totfact>
</mgrwt>
</event>
<event>
 7    0  0.4737014E-002  0.4517043E+03  0.7546771E-02  0.1027215E+00
         21   -1    0    0  502  501  0.00000000000E+00  0.00000000000E+00  0.41186170605E+03  0.41186170605E+03  0.00000000000E+00 0.  1.
         21   -1    0    0  501  502 -0.00000000000E+00 -0.00000000000E+00 -0.12385027435E+03  0.12385027435E+03  0.00000000000E+00 0.  1.
      99926    2    1    2    0    0  0.71054273576E-14 -0.14210854715E-13  0.28801143170E+03  0.53571198041E+03  0.45170426294E+03 0.  0.
      99925    2    3    3    0    0 -0.34717356446E+02  0.10279062773E+03  0.20459421641E+03  0.35030122588E+03  0.26283254646E+03 0.  0.
         25    1    3    3    0    0  0.34717356446E+02 -0.10279062773E+03  0.83417215292E+02  0.18541075453E+03  0.12509000000E+03 0.  0.
         25    1    4    4    0    0 -0.20237300097E+02  0.12126352654E+02  0.11235478624E+03  0.16978722813E+03  0.12509000000E+03 0.  0.
         25    1    4    4    0    0 -0.14480056349E+02  0.90664275074E+02  0.92239430167E+02  0.18051399775E+03  0.12509000000E+03 0.  0.
<mgrwt>
<rscale>  2 0.45170426E+03</rscale>
<asrwt>0</asrwt>
<pdfrwt beam="1">  1       21 0.60567898E-01 0.45170426E+03</pdfrwt>
<pdfrwt beam="2">  1       21 0.18213276E-01 0.45170426E+03</pdfrwt>
<totfact> 0.64486395E+04</totfact>
</mgrwt>
</event>
<event>
 7    0  0.4737014E-002  0.4511250E+03  0.7546771E-02  0.1027387E+00
         21   -1    0    0  502  501  0.00000000000E+00  0.00000000000E+00  0.12315829996E+04  0.12315829996E+04  0.00000000000E+00 0. -1.
         21   -1    0    0  501  502 -0.00000000000E+00 -0.00000000000E+00 -0.41311414357E+02  0.41311414357E+02  0.00000000000E+00 0. -1.
      99926    2    1    2    0    0  0.00000000000E+00  0.00000000000E+00  0.11902715852E+04  0.12728944140E+04  0.45112497431E+03 0.  0.
      99925    2    3    3    0    0  0.30515655188E+02 -0.66399147333E+02  0.52421303023E+03  0.59126287216E+03  0.26353829123E+03 0.  0.
         25    1    4    4    0    0  0.41577018630E+02 -0.15108801216E+01  0.26689157817E+03  0.29767356926E+03  0.12509000000E+03 0.  0.
         25    1    3    3    0    0 -0.30515655188E+02  0.66399147333E+02  0.66605855501E+03  0.68163154180E+03  0.12509000000E+03 0.  0.
         25    1    4    4    0    0 -0.11061363442E+02 -0.64888267212E+02  0.25732145207E+03  0.29358930290E+03  0.12509000000E+03 0.  0.
<mgrwt>
<rscale>  2 0.45112497E+03</rscale>
<asrwt>0</asrwt>
<pdfrwt beam="1">  1       21 0.18111512E+00 0.45112497E+03</pdfrwt>
<pdfrwt beam="2">  1       21 0.60752088E-02 0.45112497E+03</pdfrwt>
<totfact> 0.30831326E+04</totfact>
</mgrwt>
</event>
<event>
 6    0  0.4737014E-002  0.4587317E+03  0.7546771E-02  0.1025150E+00
         21   -1    0    0  502  501  0.00000000000E+00  0.00000000000E+00  0.11826815676E+03  0.11826815676E+03  0.00000000000E+00 0. -1.
         21   -1    0    0  501  502 -0.00000000000E+00 -0.00000000000E+00 -0.44482552175E+03  0.44482552175E+03  0.00000000000E+00 0. -1.
      99926    2    1    2    0    0  0.00000000000E+00  0.00000000000E+00 -0.32655736500E+03  0.56309367851E+03  0.45873170606E+03 0.  0.
         25    1    3    3    0    0 -0.92193476069E+02  0.73996805562E+02 -0.13760330335E+03  0.22035730407E+03  0.12509000000E+03 0.  0.
         25    1    3    3    0    0  0.68162419366E+02 -0.37766116983E+02 -0.64040173053E+02  0.16068928673E+03  0.12509000000E+03 0.  0.
         25    1    3    3    0    0  0.24031056703E+02 -0.36230688580E+02 -0.12491388859E+03  0.18204708771E+03  0.12509000000E+03 0.  0.
<mgrwt>
<rscale>  2 0.45873171E+03</rscale>
<asrwt>0</asrwt>
<pdfrwt beam="1">  1       21 0.17392376E-01 0.45873171E+03</pdfrwt>
<pdfrwt beam="2">  1       21 0.65415518E-01 0.45873171E+03</pdfrwt>
<totfact> 0.59241487E+04</totfact>
</mgrwt>
</event>
<event>
 7    0  0.4737014E-002  0.4565274E+03  0.7546771E-02  0.1025793E+00
         21   -1    0    0  502  501  0.00000000000E+00  0.00000000000E+00  0.36018036719E+03  0.36018036719E+03  0.00000000000E+00 0.  1.
         21   -1    0    0  501  502 -0.00000000000E+00 -0.00000000000E+00 -0.14466173232E+03  0.14466173232E+03  0.00000000000E+00 0.  1.
      99926    2    1    2    0    0  0.00000000000E+00  0.00000000000E+00  0.21551863486E+03  0.50484209951E+03  0.45652739618E+03 0.  0.
      99925    2    3    3    0    0 -0.24344362070E+02 -0.47543897789E+02  0.24787075355E+03  0.36503066269E+03  0.26259170600E+03 0.  0.
         25    1    4    4    0    0 -0.36604679944E+02 -0.56275397848E+02  0.13296646623E+03  0.19451069955E+03  0.12509000000E+03 0.  0.
         25    1    4    4    0    0  0.12260317874E+02  0.87315000584E+01  0.11490428731E+03  0.17051996314E+03  0.12509000000E+03 0.  0.
         25    1    3    3    0    0  0.24344362070E+02  0.47543897789E+02 -0.32352118683E+02  0.13981143682E+03  0.12509000000E+03 0.  0.
<mgrwt>
<rscale>  2 0.45652740E+03</rscale>
<asrwt>0</asrwt>
<pdfrwt beam="1">  1       21 0.52967701E-01 0.45652740E+03</pdfrwt>
<pdfrwt beam="2">  1       21 0.21273784E-01 0.45652740E+03</pdfrwt>
<totfact> 0.64150538E+04</totfact>
</mgrwt>
</event>
<event>
 7    0  0.4737014E-002  0.4526223E+03  0.7546771E-02  0.1026943E+00
         21   -1    0    0  502  501  0.00000000000E+00  0.00000000000E+00  0.28145966696E+03  0.28145966696E+03  0.00000000000E+00 0.  1.
         21   -1    0    0  501  502 -0.00000000000E+00 -0.00000000000E+00 -0.18196829162E+03  0.18196829162E+03  0.00000000000E+00 0.  1.
      99926    2    1    2    0    0  0.00000000000E+00 -0.71054273576E-14  0.99491375333E+02  0.46342795858E+03  0.45262229179E+03 0.  0.
      99925    2    3    3    0    0 -0.55735172922E+02 -0.45353557006E+02  0.14922330490E+03  0.31083658414E+03  0.26303694167E+03 0.  0.
         25    1    4    4    0    0 -0.69485141341E+01 -0.72408519971E+01  0.10728365377E+03  0.16509997654E+03  0.12509000000E+03 0.  0.
         25    1    4    4    0    0 -0.48786658788E+02 -0.38112705009E+02  0.41939651128E+02  0.14573660760E+03  0.12509000000E+03 0.  0.
         25    1    3    3    0    0  0.55735172922E+02  0.45353557006E+02 -0.49731929570E+02  0.15259137444E+03  0.12509000000E+03 0.  0.
<mgrwt>
<rscale>  2 0.45262229E+03</rscale>
<asrwt>0</asrwt>
<pdfrwt beam="1">  1       21 0.41391128E-01 0.45262229E+03</pdfrwt>
<pdfrwt beam="2">  1       21 0.26760043E-01 0.45262229E+03</pdfrwt>
<totfact> 0.69224532E+04</totfact>
</mgrwt>
</event>
<event>
 7    0  0.4737014E-002  0.4704114E+03  0.7546771E-02  0.1021804E+00
         21   -1    0    0  502  501  0.00000000000E+00  0.00000000000E+00  0.75915505351E+02  0.75915505351E+02  0.00000000000E+00 0.  1.
         21   -1    0    0  501  502 -0.00000000000E+00 -0.00000000000E+00 -0.72872756956E+03  0.72872756956E+03  0.00000000000E+00 0.  1.
      99926    2    1    2    0    0  0.17763568394E-14  0.00000000000E+00 -0.65281206421E+03  0.80464307492E+03  0.47041140168E+03 0.  0.
      99925    2    3    3    0    0  0.80057921444E+01  0.11811713374E+03 -0.48470603132E+03  0.56397131424E+03  0.26288392209E+03 0.  0.
         25    1    3    3    0    0 -0.80057921444E+01 -0.11811713374E+03 -0.16810603289E+03  0.24067176067E+03  0.12509000000E+03 0.  0.
         25    1    4    4    0    0 -0.15050705419E+02  0.46477126456E+02 -0.29885710762E+03  0.32764268021E+03  0.12509000000E+03 0.  0.
         25    1    4    4    0    0  0.23056497563E+02  0.71640007287E+02 -0.18584892370E+03  0.23632863403E+03  0.12509000000E+03 0.  0.
<mgrwt>
<rscale>  2 0.47041140E+03</rscale>
<asrwt>0</asrwt>
<pdfrwt beam="1">  1       21 0.11164045E-01 0.47041140E+03</pdfrwt>
<pdfrwt beam="2">  1       21 0.10716582E+00 0.47041140E+03</pdfrwt>
<totfact> 0.42201007E+04</totfact>
</mgrwt>
</event>
<event>
 7    0  0.4737014E-002  0.4551736E+03  0.7546771E-02  0.1026190E+00
         21   -1    0    0  502  501  0.00000000000E+00  0.00000000000E+00  0.23861463645E+03  0.23861463645E+03  0.00000000000E+00 0. -1.
         21   -1    0    0  501  502 -0.00000000000E+00 -0.00000000000E+00 -0.21706864832E+03  0.21706864832E+03  0.00000000000E+00 0. -1.
      99926    2    1    2    0    0  0.00000000000E+00  0.00000000000E+00  0.21545988129E+02  0.45568328477E+03  0.45517362227E+03 0.  0.
      99925    2    3    3    0    0  0.96747651513E+02 -0.40423092184E+02  0.56864017929E+02  0.28868326745E+03  0.26288852755E+03 0.  0.
         25    1    4    4    0    0  0.31766316296E+02 -0.29434244166E+02 -0.90530344005E+01  0.13268360529E+03  0.12509000000E+03 0.  0.
         25    1    4    4    0    0  0.64981335217E+02 -0.10988848018E+02  0.65917052330E+02  0.15599966216E+03  0.12509000000E+03 0.  0.
         25    1    3    3    0    0 -0.96747651513E+02  0.40423092184E+02 -0.35318029800E+02  0.16700001732E+03  0.12509000000E+03 0.  0.
<mgrwt>
<rscale>  2 0.45517362E+03</rscale>
<asrwt>0</asrwt>
<pdfrwt beam="1">  1       21 0.35090388E-01 0.45517362E+03</pdfrwt>
<pdfrwt beam="2">  1       21 0.31921860E-01 0.45517362E+03</pdfrwt>
<totfact> 0.68400984E+04</totfact>
</mgrwt>
</event>
<event>
 7    0  0.4737014E-002  0.4635480E+03  0.7546771E-02  0.1023757E+00
         21   -1    0    0  502  501  0.00000000000E+00  0.00000000000E+00  0.14731541416E+03  0.14731541416E+03  0.00000000000E+00 0. -1.
         21   -1    0    0  501  502 -0.00000000000E+00 -0.00000000000E+00 -0.36465428660E+03  0.36465428660E+03  0.00000000000E+00 0. -1.
      99926    2    1    2    0    0  0.14210854715E-13  0.00000000000E+00 -0.21733887244E+03  0.51196970076E+03  0.46354804393E+03 0.  0.
      99925    2    3    3    0    0 -0.10570805365E+03 -0.38624832929E+02 -0.85877194606E+02  0.29843808446E+03  0.26272481302E+03 0.  0.
         25    1    4    4    0    0 -0.93138789050E+02 -0.26428696728E+02 -0.33439307415E+02  0.16167561788E+03  0.12509000000E+03 0.  0.
         25    1    3    3    0    0  0.10570805365E+03  0.38624832929E+02 -0.13146167783E+03  0.21353161631E+03  0.12509000000E+03 0.  0.
         25    1    4    4    0    0 -0.12569264597E+02 -0.12196136200E+02 -0.52437887191E+02  0.13676246658E+03  0.12509000000E+03 0.  0.
<mgrwt>
<rscale>  2 0.46354804E+03</rscale>
<asrwt>0</asrwt>
<pdfrwt beam="1">  1       21 0.21664031E-01 0.46354804E+03</pdfrwt>
<pdfrwt beam="2">  1       21 0.53625631E-01 0.46354804E+03</pdfrwt>
<totfact> 0.60245403E+04</totfact>
</mgrwt>
</event>
<event>
 7    0  0.4737014E-002  0.4513812E+03  0.7546771E-02  0.1027311E+00
         21   -1    0    0  502  501  0.00000000000E+00  0.00000000000E+00  0.72923701345E+03  0.72923701345E+03  0.00000000000E+00 0.  1.
         21   -1    0    0  501  502 -0.00000000000E+00 -0.00000000000E+00 -0.69848672291E+02  0.69848672291E+02  0.00000000000E+00 0.  1.
      99926    2    1    2    0    0  0.00000000000E+00  0.00000000000E+00  0.65938834116E+03  0.79908568574E+03  0.45138115678E+03 0.  0.
      99925    2    3    3    0    0 -0.56294983694E+02  0.73602062343E+02  0.31337948829E+03  0.41967031555E+03  0.26330606014E+03 0.  0.
         25    1    4    4    0    0 -0.58339880192E+02  0.29199443351E+02  0.20196183460E+03  0.24635795065E+03  0.12509000000E+03 0.  0.
         25    1    3    3    0    0  0.56294983694E+02 -0.73602062343E+02  0.34600885287E+03  0.37941537019E+03  0.12509000000E+03 0.  0.
         25    1    4    4    0    0  0.20448964981E+01  0.44402618992E+02  0.11141765369E+03  0.17331236490E+03  0.12509000000E+03 0.  0.
<mgrwt>
<rscale>  2 0.45138116E+03</rscale>
<asrwt>0</asrwt>
<pdfrwt beam="1">  1       21 0.10724073E+00 0.45138116E+03</pdfrwt>
<pdfrwt beam="2">  1       21 0.10271864E-01 0.45138116E+03</pdfrwt>
<totfact> 0.49191303E+04</totfact>
</mgrwt>
</event>
<event>
 7    0  0.4737014E-002  0.4529569E+03  0.7546771E-02  0.1026844E+00
         21   -1    0    0  502  501  0.00000000000E+00  0.00000000000E+00  0.19385948430E+04  0.19385948430E+04  0.00000000000E+00 0. -1.
         21   -1    0    0  501  502 -0.00000000000E+00 -0.00000000000E+00 -0.26458591167E+02  0.26458591167E+02  0.00000000000E+00 0. -1.
      99926    2    1    2    0    0  0.00000000000E+00  0.00000000000E+00  0.19121362518E+04  0.19650534342E+04  0.45295690034E+03 0.  0.
      99925    2    3    3    0    0 -0.64106805235E+02  0.71329047971E+02  0.96104296308E+03  0.10009873225E+04  0.26301050826E+03 0.  0.
         25    1    4    4    0    0 -0.20424109472E+02  0.64555193739E+02  0.59113483587E+03  0.60800692395E+03  0.12509000000E+03 0.  0.
         25    1    3    3    0    0  0.64106805235E+02 -0.71329047971E+02  0.95109328877E+03  0.96406611164E+03  0.12509000000E+03 0.  0.
         25    1    4    4    0    0 -0.43682695763E+02  0.67738542325E+01  0.36990812721E+03  0.39298039860E+03  0.12509000000E+03 0.  0.
<mgrwt>
<rscale>  2 0.45295690E+03</rscale>
<asrwt>0</asrwt>
<pdfrwt beam="1">  1       21 0.28508738E+00 0.45295690E+03</pdfrwt>
<pdfrwt beam="2">  1       21 0.38909706E-02 0.45295690E+03</pdfrwt>
<totfact> 0.14517788E+04</totfact>
</mgrwt>
</event>
<event>
 7    0  0.4737014E-002  0.4570273E+03  0.7546771E-02  0.1025647E+00
         21   -1    0    0  502  501  0.00000000000E+00  0.00000000000E+00  0.38994399516E+03  0.38994399516E+03  0.00000000000E+00 0.  1.
         21   -1    0    0  501  502 -0.00000000000E+00 -0.00000000000E+00 -0.13391279655E+03  0.13391279655E+03  0.00000000000E+00 0.  1.
      99926    2    1    2    0    0 -0.35527136788E-14  0.00000000000E+00  0.25603119861E+03  0.52385679171E+03  0.45702731162E+03 0.  0.
      99925    2    3    3    0    0  0.29227461822E+02  0.72830698495E+02  0.25724770082E+03  0.37618301901E+03  0.26301849563E+03 0.  0.
         25    1    4    4    0    0 -0.22423576762E+02  0.52541871448E+02  0.13432681355E+03  0.19223596435E+03  0.12509000000E+03 0.  0.
         25    1    3    3    0    0 -0.29227461822E+02 -0.72830698495E+02 -0.12165022196E+01  0.14767377271E+03  0.12509000000E+03 0.  0.
         25    1    4    4    0    0  0.51651038585E+02  0.20288827047E+02  0.12292088728E+03  0.18394705466E+03  0.12509000000E+03 0.  0.
<mgrwt>
<rscale>  2 0.45702731E+03</rscale>
<asrwt>0</asrwt>
<pdfrwt beam="1">  1       21 0.57344705E-01 0.45702731E+03</pdfrwt>
<pdfrwt beam="2">  1       21 0.19693058E-01 0.45702731E+03</pdfrwt>
<totfact> 0.62611873E+04</totfact>
</mgrwt>
</event>
<event>
 7    0  0.4737014E-002  0.4536194E+03  0.7546771E-02  0.1026648E+00
         21   -1    0    0  502  501  0.00000000000E+00  0.00000000000E+00  0.42429725898E+02  0.42429725898E+02  0.00000000000E+00 0.  1.
         21   -1    0    0  501  502 -0.00000000000E+00 -0.00000000000E+00 -0.12124198324E+04  0.12124198324E+04  0.00000000000E+00 0.  1.
      99926    2    1    2    0    0 -0.14210854715E-13  0.17763568394E-14 -0.11699901065E+04  0.12548495583E+04  0.45361940506E+03 0.  0.
      99925    2    3    3    0    0 -0.11024748006E+03 -0.14004035390E+02 -0.77558105711E+03  0.82641446845E+03  0.26283888154E+03 0.  0.
         25    1    4    4    0    0 -0.82488936738E+02  0.14098316716E+02 -0.34764408063E+03  0.37882331253E+03  0.12509000000E+03 0.  0.
         25    1    4    4    0    0 -0.27758543325E+02 -0.28102352106E+02 -0.42793697648E+03  0.44759115593E+03  0.12509000000E+03 0.  0.
         25    1    3    3    0    0  0.11024748006E+03  0.14004035390E+02 -0.39440904937E+03  0.42843508982E+03  0.12509000000E+03 0.  0.
<mgrwt>
<rscale>  2 0.45361941E+03</rscale>
<asrwt>0</asrwt>
<pdfrwt beam="1">  1       21 0.62396653E-02 0.45361941E+03</pdfrwt>
<pdfrwt beam="2">  1       21 0.17829704E+00 0.45361941E+03</pdfrwt>
<totfact> 0.30784143E+04</totfact>
</mgrwt>
</event>
<event>
 7    0  0.4737014E-002  0.4547332E+03  0.7546771E-02  0.1026320E+00
         21   -1    0    0  502  501  0.00000000000E+00  0.00000000000E+00  0.13202788416E+04  0.13202788416E+04  0.00000000000E+00 0. -1.
         21   -1    0    0  501  502 -0.00000000000E+00 -0.00000000000E+00 -0.39155032764E+02  0.39155032764E+02  0.00000000000E+00 0. -1.
      99926    2    1    2    0    0 -0.35527136788E-14  0.14210854715E-13  0.12811238088E+04  0.13594338743E+04  0.45473315823E+03 0.  0.
      99925    2    3    3    0    0  0.19439775342E+02 -0.11183999687E+03  0.81436169197E+03  0.86304645349E+03  0.26225584027E+03 0.  0.
         25    1    4    4    0    0  0.42687236992E+02 -0.60462637314E+02  0.48310845582E+03  0.50449897810E+03  0.12509000000E+03 0.  0.
         25    1    3    3    0    0 -0.19439775342E+02  0.11183999687E+03  0.46676211683E+03  0.49638742084E+03  0.12509000000E+03 0.  0.
         25    1    4    4    0    0 -0.23247461651E+02 -0.51377359557E+02  0.33125323615E+03  0.35854747539E+03  0.12509000000E+03 0.  0.
<mgrwt>
<rscale>  2 0.45473316E+03</rscale>
<asrwt>0</asrwt>
<pdfrwt beam="1">  1       21 0.19415862E+00 0.45473316E+03</pdfrwt>
<pdfrwt beam="2">  1       21 0.57580939E-02 0.45473316E+03</pdfrwt>
<totfact> 0.27490343E+04</totfact>
</mgrwt>
</event>
<event>
 7    0  0.4737014E-002  0.4613999E+03  0.7546771E-02  0.1024376E+00
         21   -1    0    0  502  501  0.00000000000E+00  0.00000000000E+00  0.52495668774E+03  0.52495668774E+03  0.00000000000E+00 0. -1.
         21   -1    0    0  501  502 -0.00000000000E+00 -0.00000000000E+00 -0.10138448485E+03  0.10138448485E+03  0.00000000000E+00 0. -1.
      99926    2    1    2    0    0  0.00000000000E+00 -0.35527136788E-14  0.42357220289E+03  0.62634117258E+03  0.46139988450E+03 0.  0.
      99925    2    3    3    0    0  0.11266909020E+03  0.25941696755E+02  0.22668473321E+03  0.36599624882E+03  0.26305891044E+03 0.  0.
         25    1    3    3    0    0 -0.11266909020E+03 -0.25941696755E+02  0.19688746968E+03  0.26034492377E+03  0.12509000000E+03 0.  0.
         25    1    4    4    0    0  0.55667578636E+02  0.53493179320E+02  0.12193140024E+03  0.19098474811E+03  0.12509000000E+03 0.  0.
         25    1    4    4    0    0  0.57001511561E+02 -0.27551482565E+02  0.10475333297E+03  0.17501150071E+03  0.12509000000E+03 0.  0.
<mgrwt>
<rscale>  2 0.46139988E+03</rscale>
<asrwt>0</asrwt>
<pdfrwt beam="1">  1       21 0.77199512E-01 0.46139988E+03</pdfrwt>
<pdfrwt beam="2">  1       21 0.14909483E-01 0.46139988E+03</pdfrwt>
<totfact> 0.54289836E+04</totfact>
</mgrwt>
</event>
<event>
 7    0  0.4737014E-002  0.4570554E+03  0.7546771E-02  0.1025639E+00
         21   -1    0    0  502  501  0.00000000000E+00  0.00000000000E+00  0.15140140160E+03  0.15140140160E+03  0.00000000000E+00 0. -1.
         21   -1    0    0  501  502 -0.00000000000E+00 -0.00000000000E+00 -0.34494342142E+03  0.34494342142E+03  0.00000000000E+00 0. -1.
      99926    2    1    2    0    0  0.00000000000E+00  0.35527136788E-14 -0.19354201981E+03  0.49634482302E+03  0.45705543417E+03 0.  0.
      99925    2    3    3    0    0 -0.37476125605E+02 -0.11559241346E+02 -0.23905737946E+03  0.35757439348E+03  0.26300749066E+03 0.  0.
         25    1    3    3    0    0  0.37476125605E+02  0.11559241346E+02  0.45515359652E+02  0.13877042954E+03  0.12509000000E+03 0.  0.
         25    1    4    4    0    0 -0.14705298173E+02 -0.42827085638E+02 -0.98865106731E+02  0.16574746601E+03  0.12509000000E+03 0.  0.
         25    1    4    4    0    0 -0.22770827432E+02  0.31267844292E+02 -0.14019227273E+03  0.19182692747E+03  0.12509000000E+03 0.  0.
<mgrwt>
<rscale>  2 0.45705543E+03</rscale>
<asrwt>0</asrwt>
<pdfrwt beam="1">  1       21 0.22264912E-01 0.45705543E+03</pdfrwt>
<pdfrwt beam="2">  1       21 0.50726974E-01 0.45705543E+03</pdfrwt>
<totfact> 0.64469814E+04</totfact>
</mgrwt>
</event>
<event>
 7    0  0.4737014E-002  0.4559697E+03  0.7546771E-02  0.1025957E+00
         21   -1    0    0  502  501  0.00000000000E+00  0.00000000000E+00  0.22700056748E+03  0.22700056748E+03  0.00000000000E+00 0.  1.
         21   -1    0    0  501  502 -0.00000000000E+00 -0.00000000000E+00 -0.22897341601E+03  0.22897341601E+03  0.00000000000E+00 0.  1.
      99926    2    1    2    0    0 -0.71054273576E-14  0.71054273576E-14 -0.19728485310E+01  0.45597398348E+03  0.45596971553E+03 0.  0.
      99925    2    3    3    0    0 -0.62335801523E+02  0.60623852712E+02  0.72561924622E+02  0.28637461975E+03  0.26302886964E+03 0.  0.
         25    1    3    3    0    0  0.62335801523E+02 -0.60623852712E+02 -0.74534773153E+02  0.16959936373E+03  0.12509000000E+03 0.  0.
         25    1    4    4    0    0 -0.56195595305E+02  0.58976301328E+02  0.20275783905E+02  0.15064781632E+03  0.12509000000E+03 0.  0.
         25    1    4    4    0    0 -0.61402062182E+01  0.16475513836E+01  0.52286140717E+02  0.13572680343E+03  0.12509000000E+03 0.  0.
<mgrwt>
<rscale>  2 0.45596972E+03</rscale>
<asrwt>0</asrwt>
<pdfrwt beam="1">  1       21 0.33382436E-01 0.45596972E+03</pdfrwt>
<pdfrwt beam="2">  1       21 0.33672561E-01 0.45596972E+03</pdfrwt>
<totfact> 0.67947242E+04</totfact>
</mgrwt>
</event>
<event>
 7    0  0.4737014E-002  0.4557972E+03  0.7546771E-02  0.1026007E+00
         21   -1    0    0  502  501  0.00000000000E+00  0.00000000000E+00  0.31939786333E+04  0.31939786333E+04  0.00000000000E+00 0. -1.
         21   -1    0    0  501  502 -0.00000000000E+00 -0.00000000000E+00 -0.16261148729E+02  0.16261148729E+02  0.00000000000E+00 0. -1.
      99926    2    1    2    0    0  0.00000000000E+00 -0.14210854715E-13  0.31777174845E+04  0.32102397820E+04  0.45579715485E+03 0.  0.
      99925    2    3    3    0    0  0.11008723670E+02  0.11350647057E+03  0.19843466633E+04  0.20049239163E+04  0.26283705866E+03 0.  0.
         25    1    4    4    0    0  0.34218080958E+02  0.73993023293E+02  0.88084688286E+03  0.89341176604E+03  0.12509000000E+03 0.  0.
         25    1    3    3    0    0 -0.11008723670E+02 -0.11350647057E+03  0.11933708213E+04  0.12053158657E+04  0.12509000000E+03 0.  0.
         25    1    4    4    0    0 -0.23209357288E+02  0.39513447278E+02  0.11034997804E+04  0.11115121503E+04  0.12509000000E+03 0.  0.
<mgrwt>
<rscale>  2 0.45579715E+03</rscale>
<asrwt>0</asrwt>
<pdfrwt beam="1">  1       21 0.46970231E+00 0.45579715E+03</pdfrwt>
<pdfrwt beam="2">  1       21 0.23913476E-02 0.45579715E+03</pdfrwt>
<totfact> 0.22235858E+03</totfact>
</mgrwt>
</event>
<event>
 7    0  0.4737014E-002  0.4482034E+03  0.7546771E-02  0.1028259E+00
         21   -1    0    0  502  501  0.00000000000E+00  0.00000000000E+00  0.60995374290E+02  0.60995374290E+02  0.00000000000E+00 0. -1.
         21   -1    0    0  501  502 -0.00000000000E+00 -0.00000000000E+00 -0.82336703405E+03  0.82336703405E+03  0.00000000000E+00 0. -1.
      99926    2    1    2    0    0  0.17763568394E-14  0.00000000000E+00 -0.76237165976E+03  0.88436240834E+03  0.44820343783E+03 0.  0.
      99925    2    3    3    0    0 -0.14276155855E+02 -0.10154322669E+03 -0.42251095436E+03  0.50797478542E+03  0.26269381522E+03 0.  0.
         25    1    3    3    0    0  0.14276155855E+02  0.10154322669E+03 -0.33986070541E+03  0.37638762293E+03  0.12509000000E+03 0.  0.
         25    1    4    4    0    0  0.50490925165E+01 -0.29127339986E+02 -0.25725260630E+03  0.28757661035E+03  0.12509000000E+03 0.  0.
         25    1    4    4    0    0 -0.19325248371E+02 -0.72415886706E+02 -0.16525834805E+03  0.22039817507E+03  0.12509000000E+03 0.  0.
<mgrwt>
<rscale>  2 0.44820344E+03</rscale>
<asrwt>0</asrwt>
<pdfrwt beam="1">  1       21 0.89699081E-02 0.44820344E+03</pdfrwt>
<pdfrwt beam="2">  1       21 0.12108339E+00 0.44820344E+03</pdfrwt>
<totfact> 0.46334108E+04</totfact>
</mgrwt>
</event>
<event>
 7    0  0.4737014E-002  0.4534360E+03  0.7546771E-02  0.1026702E+00
         21   -1    0    0  502  501  0.00000000000E+00  0.00000000000E+00  0.48954916835E+03  0.48954916835E+03  0.00000000000E+00 0. -1.
         21   -1    0    0  501  502 -0.00000000000E+00 -0.00000000000E+00 -0.10499669434E+03  0.10499669434E+03  0.00000000000E+00 0. -1.
      99926    2    1    2    0    0 -0.35527136788E-14 -0.14210854715E-13  0.38455247400E+03  0.59454586269E+03  0.45343596856E+03 0.  0.
      99925    2    3    3    0    0  0.16862406258E+02  0.11045518519E+03  0.24276398638E+03  0.37491851467E+03  0.26295408511E+03 0.  0.
         25    1    3    3    0    0 -0.16862406258E+02 -0.11045518519E+03  0.14178848762E+03  0.21962734803E+03  0.12509000000E+03 0.  0.
         25    1    4    4    0    0  0.34127301829E+01  0.16216579125E+02  0.13208628612E+03  0.18267161588E+03  0.12509000000E+03 0.  0.
         25    1    4    4    0    0  0.13449676075E+02  0.94238606061E+02  0.11067770026E+03  0.19224689879E+03  0.12509000000E+03 0.  0.
<mgrwt>
<rscale>  2 0.45343597E+03</rscale>
<asrwt>0</asrwt>
<pdfrwt beam="1">  1       21 0.71992524E-01 0.45343597E+03</pdfrwt>
<pdfrwt beam="2">  1       21 0.15440691E-01 0.45343597E+03</pdfrwt>
<totfact> 0.59750322E+04</totfact>
</mgrwt>
</event>
<event>
 7    0  0.4737014E-002  0.4557969E+03  0.7546771E-02  0.1026007E+00
         21   -1    0    0  502  501  0.00000000000E+00  0.00000000000E+00  0.27459135264E+03  0.27459135264E+03  0.00000000000E+00 0.  1.
         21   -1    0    0  501  502 -0.00000000000E+00 -0.00000000000E+00 -0.18914541084E+03  0.18914541084E+03  0.00000000000E+00 0.  1.
      99926    2    1    2    0    0  0.14210854715E-13 -0.35527136788E-14  0.85445941806E+02  0.46373676348E+03  0.45579685918E+03 0.  0.
      99925    2    3    3    0    0  0.98090837934E+02 -0.18836157401E+02 -0.14537474610E+01  0.28159484791E+03  0.26328108872E+03 0.  0.
         25    1    4    4    0    0  0.82720395166E+02 -0.12774312317E+01 -0.25413723976E+02  0.15211068691E+03  0.12509000000E+03 0.  0.
         25    1    4    4    0    0  0.15370442768E+02 -0.17558726169E+02  0.23959976515E+02  0.12948416100E+03  0.12509000000E+03 0.  0.
         25    1    3    3    0    0 -0.98090837934E+02  0.18836157401E+02  0.86899689267E+02  0.18214191557E+03  0.12509000000E+03 0.  0.
<mgrwt>
<rscale>  2 0.45579686E+03</rscale>
<asrwt>0</asrwt>
<pdfrwt beam="1">  1       21 0.40381082E-01 0.45579686E+03</pdfrwt>
<pdfrwt beam="2">  1       21 0.27815501E-01 0.45579686E+03</pdfrwt>
<totfact> 0.67475599E+04</totfact>
</mgrwt>
</event>
<event>
 7    0  0.4737014E-002  0.4573868E+03  0.7546771E-02  0.1025542E+00
         21   -1    0    0  502  501  0.00000000000E+00  0.00000000000E+00  0.15741390488E+03  0.15741390488E+03  0.00000000000E+00 0. -1.
         21   -1    0    0  501  502 -0.00000000000E+00 -0.00000000000E+00 -0.33224936552E+03  0.33224936552E+03  0.00000000000E+00 0. -1.
      99926    2    1    2    0    0  0.00000000000E+00  0.35527136788E-14 -0.17483546064E+03  0.48966327040E+03  0.45738679483E+03 0.  0.
      99925    2    3    3    0    0 -0.18635112339E+02 -0.22731964643E+02  0.96642539225E+01  0.26482630190E+03  0.26301247641E+03 0.  0.
         25    1    4    4    0    0  0.22892282926E+01  0.14241511078E+02 -0.24708909715E+02  0.12832030051E+03  0.12509000000E+03 0.  0.
         25    1    4    4    0    0 -0.20924340632E+02 -0.36973475720E+02  0.34373163637E+02  0.13650600139E+03  0.12509000000E+03 0.  0.
         25    1    3    3    0    0  0.18635112339E+02  0.22731964643E+02 -0.18449971457E+03  0.22483696850E+03  0.12509000000E+03 0.  0.
<mgrwt>
<rscale>  2 0.45738679E+03</rscale>
<asrwt>0</asrwt>
<pdfrwt beam="1">  1       21 0.23149104E-01 0.45738679E+03</pdfrwt>
<pdfrwt beam="2">  1       21 0.48860201E-01 0.45738679E+03</pdfrwt>
<totfact> 0.64767201E+04</totfact>
</mgrwt>
</event>
<event>
 7    0  0.4737014E-002  0.4545571E+03  0.7546771E-02  0.1026372E+00
         21   -1    0    0  502  501  0.00000000000E+00  0.00000000000E+00  0.56687488737E+02  0.56687488737E+02  0.00000000000E+00 0.  1.
         21   -1    0    0  501  502 -0.00000000000E+00 -0.00000000000E+00 -0.91123360959E+03  0.91123360959E+03  0.00000000000E+00 0.  1.
      99926    2    1    2    0    0  0.00000000000E+00  0.00000000000E+00 -0.85454612085E+03  0.96792109832E+03  0.45455712504E+03 0.  0.
      99925    2    3    3    0    0 -0.41333226503E+02  0.91872754668E+02 -0.64586028757E+03  0.70458419666E+03  0.26297212869E+03 0.  0.
         25    1    3    3    0    0  0.41333226503E+02 -0.91872754668E+02 -0.20868583328E+03  0.26333690166E+03  0.12509000000E+03 0.  0.
         25    1    4    4    0    0 -0.65368432484E+01  0.76085553598E+02 -0.40164454730E+03  0.42754835079E+03  0.12509000000E+03 0.  0.
         25    1    4    4    0    0 -0.34796383254E+02  0.15787201070E+02 -0.24421574027E+03  0.27703584588E+03  0.12509000000E+03 0.  0.
<mgrwt>
<rscale>  2 0.45455713E+03</rscale>
<asrwt>0</asrwt>
<pdfrwt beam="1">  1       21 0.83363959E-02 0.45455713E+03</pdfrwt>
<pdfrwt beam="2">  1       21 0.13400493E+00 0.45455713E+03</pdfrwt>
<totfact> 0.40563817E+04</totfact>
</mgrwt>
</event>
<event>
 7    0  0.4737014E-002  0.4488338E+03  0.7546771E-02  0.1028070E+00
         21   -1    0    0  502  501  0.00000000000E+00  0.00000000000E+00  0.14576226821E+04  0.14576226821E+04  0.00000000000E+00 0.  1.
         21   -1    0    0  501  502 -0.00000000000E+00 -0.00000000000E+00 -0.34551425361E+02  0.34551425361E+02  0.00000000000E+00 0.  1.
      99926    2    1    2    0    0  0.71054273576E-14  0.14210854715E-13  0.14230712568E+04  0.14921741075E+04  0.44883378352E+03 0.  0.
      99925    2    3    3    0    0  0.57900010431E+02  0.88645607544E+02  0.83877051057E+03  0.88532542367E+03  0.26278257448E+03 0.  0.
         25    1    3    3    0    0 -0.57900010431E+02 -0.88645607544E+02  0.58430074619E+03  0.60684868381E+03  0.12509000000E+03 0.  0.
         25    1    4    4    0    0  0.67084892773E+01  0.55595228085E+02  0.31777653407E+03  0.34607118764E+03  0.12509000000E+03 0.  0.
         25    1    4    4    0    0  0.51191521153E+02  0.33050379459E+02  0.52099397650E+03  0.53925423603E+03  0.12509000000E+03 0.  0.
<mgrwt>
<rscale>  2 0.44883378E+03</rscale>
<asrwt>0</asrwt>
<pdfrwt beam="1">  1       21 0.21435624E+00 0.44883378E+03</pdfrwt>
<pdfrwt beam="2">  1       21 0.50810929E-02 0.44883378E+03</pdfrwt>
<totfact> 0.25155029E+04</totfact>
</mgrwt>
</event>
<event>
 7    0  0.4737014E-002  0.4571913E+03  0.7546771E-02  0.1025599E+00
         21   -1    0    0  502  501  0.00000000000E+00  0.00000000000E+00  0.67406277638E+02  0.67406277638E+02  0.00000000000E+00 0. -1.
         21   -1    0    0  501  502 -0.00000000000E+00 -0.00000000000E+00 -0.77523881021E+03  0.77523881021E+03  0.00000000000E+00 0. -1.
      99926    2    1    2    0    0  0.00000000000E+00 -0.62172489379E-14 -0.70783253258E+03  0.84264508785E+03  0.45719126185E+03 0.  0.
      99925    2    3    3    0    0  0.11184837285E+03  0.49110891300E+01 -0.39478748520E+03  0.48742841159E+03  0.26304965434E+03 0.  0.
         25    1    4    4    0    0  0.67297241447E+02  0.41801623586E+02 -0.20398257728E+03  0.25205692685E+03  0.12509000000E+03 0.  0.
         25    1    3    3    0    0 -0.11184837285E+03 -0.49110891300E+01 -0.31304504738E+03  0.35521667626E+03  0.12509000000E+03 0.  0.
         25    1    4    4    0    0  0.44551131406E+02 -0.36890534456E+02 -0.19080490791E+03  0.23537148473E+03  0.12509000000E+03 0.  0.
<mgrwt>
<rscale>  2 0.45719126E+03</rscale>
<asrwt>0</asrwt>
<pdfrwt beam="1">  1       21 0.99126881E-02 0.45719126E+03</pdfrwt>
<pdfrwt beam="2">  1       21 0.11400571E+00 0.45719126E+03</pdfrwt>
<totfact> 0.44991752E+04</totfact>
</mgrwt>
</event>
<event>
 7    0  0.4737014E-002  0.4542355E+03  0.7546771E-02  0.1026466E+00
         21   -1    0    0  502  501  0.00000000000E+00  0.00000000000E+00  0.62053776402E+03  0.62053776402E+03  0.00000000000E+00 0.  1.
         21   -1    0    0  501  502 -0.00000000000E+00 -0.00000000000E+00 -0.83125431938E+02  0.83125431938E+02  0.00000000000E+00 0.  1.
      99926    2    1    2    0    0  0.00000000000E+00  0.00000000000E+00  0.53741233209E+03  0.70366319596E+03  0.45423548813E+03 0.  0.
      99925    2    3    3    0    0  0.72715701701E+02 -0.16937433480E+02  0.46872602319E+03  0.54260492372E+03  0.26294784370E+03 0.  0.
         25    1    4    4    0    0  0.76578087046E+02 -0.94130399639E+01  0.27588060505E+03  0.31258666811E+03  0.12509000000E+03 0.  0.
         25    1    4    4    0    0 -0.38623853453E+01 -0.75243935159E+01  0.19284541813E+03  0.23001825561E+03  0.12509000000E+03 0.  0.
         25    1    3    3    0    0 -0.72715701701E+02  0.16937433480E+02  0.68686308898E+02  0.16105827224E+03  0.12509000000E+03 0.  0.
<mgrwt>
<rscale>  2 0.45423549E+03</rscale>
<asrwt>0</asrwt>
<pdfrwt beam="1">  1       21 0.91255552E-01 0.45423549E+03</pdfrwt>
<pdfrwt beam="2">  1       21 0.12224328E-01 0.45423549E+03</pdfrwt>
<totfact> 0.53022779E+04</totfact>
</mgrwt>
</event>
<event>
 7    0  0.4737014E-002  0.4515764E+03  0.7546771E-02  0.1027253E+00
         21   -1    0    0  502  501  0.00000000000E+00  0.00000000000E+00  0.20441108692E+03  0.20441108692E+03  0.00000000000E+00 0.  1.
         21   -1    0    0  501  502 -0.00000000000E+00 -0.00000000000E+00 -0.24940091875E+03  0.24940091875E+03  0.00000000000E+00 0.  1.
      99926    2    1    2    0    0  0.00000000000E+00  0.00000000000E+00 -0.44989831829E+02  0.45381200568E+03  0.45157640719E+03 0.  0.
      99925    2    3    3    0    0 -0.56246676669E+02 -0.63253029623E+02  0.42219833965E+02  0.27940538797E+03  0.26290724990E+03 0.  0.
         25    1    3    3    0    0  0.56246676669E+02  0.63253029623E+02 -0.87209665794E+02  0.17440661771E+03  0.12509000000E+03 0.  0.
         25    1    4    4    0    0 -0.33158888030E+02 -0.67708273108E+02  0.25116277258E+01  0.14607442787E+03  0.12509000000E+03 0.  0.
         25    1    4    4    0    0 -0.23087788639E+02  0.44552434852E+01  0.39708206239E+02  0.13333096010E+03  0.12509000000E+03 0.  0.
<mgrwt>
<rscale>  2 0.45157641E+03</rscale>
<asrwt>0</asrwt>
<pdfrwt beam="1">  1       21 0.30060454E-01 0.45157641E+03</pdfrwt>
<pdfrwt beam="2">  1       21 0.36676606E-01 0.45157641E+03</pdfrwt>
<totfact> 0.70540129E+04</totfact>
</mgrwt>
</event>
<event>
 7    0  0.4737014E-002  0.4374335E+03  0.7546771E-02  0.1031537E+00
         21   -1    0    0  502  501  0.00000000000E+00  0.00000000000E+00  0.75718819193E+03  0.75718819193E+03  0.00000000000E+00 0. -1.
         21   -1    0    0  501  502 -0.00000000000E+00 -0.00000000000E+00 -0.63177189997E+02  0.63177189997E+02  0.00000000000E+00 0. -1.
      99926    2    1    2    0    0  0.00000000000E+00  0.00000000000E+00  0.69401100193E+03  0.82036538193E+03  0.43743352531E+03 0.  0.
      99925    2    3    3    0    0 -0.22374627569E+02 -0.65405726832E+02  0.31978419150E+03  0.41977613244E+03  0.26300482727E+03 0.  0.
         25    1    3    3    0    0  0.22374627569E+02  0.65405726832E+02  0.37422681043E+03  0.40058924949E+03  0.12509000000E+03 0.  0.
         25    1    4    4    0    0 -0.24575909664E+02 -0.17901541925E+02  0.10235760796E+03  0.16446588870E+03  0.12509000000E+03 0.  0.
         25    1    4    4    0    0  0.22012820953E+01 -0.47504184907E+02  0.21742658354E+03  0.25531024374E+03  0.12509000000E+03 0.  0.
<mgrwt>
<rscale>  2 0.43743353E+03</rscale>
<asrwt>0</asrwt>
<pdfrwt beam="1">  1       21 0.11135120E+00 0.43743353E+03</pdfrwt>
<pdfrwt beam="2">  1       21 0.92907637E-02 0.43743353E+03</pdfrwt>
<totfact> 0.53842109E+04</totfact>
</mgrwt>
</event>
<event>
 7    0  0.4737014E-002  0.4586675E+03  0.7546771E-02  0.1025168E+00
         21   -1    0    0  502  501  0.00000000000E+00  0.00000000000E+00  0.59133091880E+03  0.59133091880E+03  0.00000000000E+00 0. -1.
         21   -1    0    0  501  502 -0.00000000000E+00 -0.00000000000E+00 -0.88941677695E+02  0.88941677695E+02  0.00000000000E+00 0. -1.
      99926    2    1    2    0    0  0.00000000000E+00  0.35527136788E-14  0.50238924111E+03  0.68027259649E+03  0.45866747864E+03 0.  0.
      99925    2    3    3    0    0 -0.72105211787E+02  0.19384946969E+02  0.18206020564E+03  0.32837326885E+03  0.26288428534E+03 0.  0.
         25    1    4    4    0    0 -0.24346201269E+02  0.41806080683E+02  0.64666585569E+02  0.14889513520E+03  0.12509000000E+03 0.  0.
         25    1    4    4    0    0 -0.47759010517E+02 -0.22421133714E+02  0.11739362007E+03  0.17947813364E+03  0.12509000000E+03 0.  0.
         25    1    3    3    0    0  0.72105211787E+02 -0.19384946969E+02  0.32032903547E+03  0.35189932765E+03  0.12509000000E+03 0.  0.
<mgrwt>
<rscale>  2 0.45866748E+03</rscale>
<asrwt>0</asrwt>
<pdfrwt beam="1">  1       21 0.86960428E-01 0.45866748E+03</pdfrwt>
<pdfrwt beam="2">  1       21 0.13079659E-01 0.45866748E+03</pdfrwt>
<totfact> 0.52455396E+04</totfact>
</mgrwt>
</event>
<event>
 7    0  0.4737014E-002  0.4533220E+03  0.7546771E-02  0.1026736E+00
         21   -1    0    0  502  501  0.00000000000E+00  0.00000000000E+00  0.57455734963E+03  0.57455734963E+03  0.00000000000E+00 0.  1.
         21   -1    0    0  501  502 -0.00000000000E+00 -0.00000000000E+00 -0.89417024174E+02  0.89417024174E+02  0.00000000000E+00 0.  1.
      99926    2    1    2    0    0  0.00000000000E+00  0.00000000000E+00  0.48514032545E+03  0.66397437380E+03  0.45332199780E+03 0.  0.
      99925    2    3    3    0    0 -0.81560063316E+02 -0.64894067855E+02  0.24755468569E+03  0.37595054095E+03  0.26304410820E+03 0.  0.
         25    1    4    4    0    0 -0.49763520489E+02 -0.38526628532E+02  0.74972179440E+02  0.15883653505E+03  0.12509000000E+03 0.  0.
         25    1    4    4    0    0 -0.31796542827E+02 -0.26367439323E+02  0.17258250625E+03  0.21711400590E+03  0.12509000000E+03 0.  0.
         25    1    3    3    0    0  0.81560063316E+02  0.64894067855E+02  0.23758563976E+03  0.28802383285E+03  0.12509000000E+03 0.  0.
<mgrwt>
<rscale>  2 0.45332200E+03</rscale>
<asrwt>0</asrwt>
<pdfrwt beam="1">  1       21 0.84493726E-01 0.45332200E+03</pdfrwt>
<pdfrwt beam="2">  1       21 0.13149563E-01 0.45332200E+03</pdfrwt>
<totfact> 0.55635084E+04</totfact>
</mgrwt>
</event>
<event>
 7    0  0.4737014E-002  0.4492001E+03  0.7546771E-02  0.1027961E+00
         21   -1    0    0  502  501  0.00000000000E+00  0.00000000000E+00  0.20933164924E+02  0.20933164924E+02  0.00000000000E+00 0.  1.
         21   -1    0    0  501  502 -0.00000000000E+00 -0.00000000000E+00 -0.24098216218E+04  0.24098216218E+04  0.00000000000E+00 0.  1.
      99926    2    1    2    0    0 -0.88817841970E-15  0.14210854715E-13 -0.23888884569E+04  0.24307547867E+04  0.44920014892E+03 0.  0.
      99925    2    3    3    0    0  0.67695432485E+01  0.93093511535E+02 -0.18014660254E+04  0.18229514882E+04  0.26298300140E+03 0.  0.
         25    1    4    4    0    0  0.81883571495E+01  0.80934820814E+02 -0.81941812019E+03  0.83289318535E+03  0.12509000000E+03 0.  0.
         25    1    4    4    0    0 -0.14188139010E+01  0.12158690722E+02 -0.98204790520E+03  0.99005830283E+03  0.12509000000E+03 0.  0.
         25    1    3    3    0    0 -0.67695432485E+01 -0.93093511535E+02 -0.58742243151E+03  0.60780329857E+03  0.12509000000E+03 0.  0.
<mgrwt>
<rscale>  2 0.44920015E+03</rscale>
<asrwt>0</asrwt>
<pdfrwt beam="1">  1       21 0.30784067E-02 0.44920015E+03</pdfrwt>
<pdfrwt beam="2">  1       21 0.35438553E+00 0.44920015E+03</pdfrwt>
<totfact> 0.82313504E+03</totfact>
</mgrwt>
</event>
<event>
 7    0  0.4737014E-002  0.4541699E+03  0.7546771E-02  0.1026486E+00
         21   -1    0    0  502  501  0.00000000000E+00  0.00000000000E+00  0.47669332277E+03  0.47669332277E+03  0.00000000000E+00 0.  1.
         21   -1    0    0  501  502 -0.00000000000E+00 -0.00000000000E+00 -0.10817766381E+03  0.10817766381E+03  0.00000000000E+00 0.  1.
      99926    2    1    2    0    0 -0.35527136788E-14  0.26645352591E-14  0.36851565896E+03  0.58487098658E+03  0.45416988016E+03 0.  0.
      99925    2    3    3    0    0 -0.26378438742E+02  0.66337471156E+01  0.91635897492E+02  0.27983043347E+03  0.26299829877E+03 0.  0.
         25    1    4    4    0    0 -0.40932023718E+02  0.33057124660E+02  0.48781481593E+02  0.14420591216E+03  0.12509000000E+03 0.  0.
         25    1    4    4    0    0  0.14553584976E+02 -0.26423377545E+02  0.42854415899E+02  0.13562452130E+03  0.12509000000E+03 0.  0.
         25    1    3    3    0    0  0.26378438742E+02 -0.66337471156E+01  0.27687976147E+03  0.30504055311E+03  0.12509000000E+03 0.  0.
<mgrwt>
<rscale>  2 0.45416988E+03</rscale>
<asrwt>0</asrwt>
<pdfrwt beam="1">  1       21 0.70101958E-01 0.45416988E+03</pdfrwt>
<pdfrwt beam="2">  1       21 0.15908480E-01 0.45416988E+03</pdfrwt>
<totfact> 0.60012113E+04</totfact>
</mgrwt>
</event>
<event>
 7    0  0.4737014E-002  0.4584927E+03  0.7546771E-02  0.1025219E+00
         21   -1    0    0  502  501  0.00000000000E+00  0.00000000000E+00  0.41569698452E+02  0.41569698452E+02  0.00000000000E+00 0.  1.
         21   -1    0    0  501  502 -0.00000000000E+00 -0.00000000000E+00 -0.12642356653E+04  0.12642356653E+04  0.00000000000E+00 0.  1.
      99926    2    1    2    0    0  0.00000000000E+00  0.14210854715E-13 -0.12226659669E+04  0.13058053638E+04  0.45849272788E+03 0.  0.
      99925    2    3    3    0    0  0.44855392268E+02  0.10517657693E+03 -0.70565566046E+03  0.76172698377E+03  0.26306647091E+03 0.  0.
         25    1    4    4    0    0  0.52053551548E+01  0.90936314447E+02 -0.39126041313E+03  0.42074781994E+03  0.12509000000E+03 0.  0.
         25    1    4    4    0    0  0.39650037113E+02  0.14240262487E+02 -0.31439524733E+03  0.34097916383E+03  0.12509000000E+03 0.  0.
         25    1    3    3    0    0 -0.44855392268E+02 -0.10517657693E+03 -0.51701030641E+03  0.54407838000E+03  0.12509000000E+03 0.  0.
<mgrwt>
<rscale>  2 0.45849273E+03</rscale>
<asrwt>0</asrwt>
<pdfrwt beam="1">  1       21 0.61131906E-02 0.45849273E+03</pdfrwt>
<pdfrwt beam="2">  1       21 0.18591702E+00 0.45849273E+03</pdfrwt>
<totfact> 0.28173483E+04</totfact>
</mgrwt>
</event>
<event>
 7    0  0.4737014E-002  0.4382935E+03  0.7546771E-02  0.1031272E+00
         21   -1    0    0  502  501  0.00000000000E+00  0.00000000000E+00  0.27771734682E+02  0.27771734682E+02  0.00000000000E+00 0.  1.
         21   -1    0    0  501  502 -0.00000000000E+00 -0.00000000000E+00 -0.17292872980E+04  0.17292872980E+04  0.00000000000E+00 0.  1.
      99926    2    1    2    0    0 -0.14210854715E-13  0.00000000000E+00 -0.17015155634E+04  0.17570590327E+04  0.43829354561E+03 0.  0.
      99925    2    3    3    0    0 -0.88351287900E+02  0.34096721885E+02 -0.99239937068E+03  0.10307933655E+04  0.26212576178E+03 0.  0.
         25    1    3    3    0    0  0.88351287900E+02 -0.34096721885E+02 -0.70911619269E+03  0.72626566720E+03  0.12509000000E+03 0.  0.
         25    1    4    4    0    0 -0.76490542116E+02  0.76444363210E+01 -0.60960591925E+03  0.62703757888E+03  0.12509000000E+03 0.  0.
         25    1    4    4    0    0 -0.11860745783E+02  0.26452285564E+02 -0.38279345142E+03  0.40375578665E+03  0.12509000000E+03 0.  0.
<mgrwt>
<rscale>  2 0.43829355E+03</rscale>
<asrwt>0</asrwt>
<pdfrwt beam="1">  1       21 0.40840790E-02 0.43829355E+03</pdfrwt>
<pdfrwt beam="2">  1       21 0.25430693E+00 0.43829355E+03</pdfrwt>
<totfact> 0.20650204E+04</totfact>
</mgrwt>
</event>
<event>
 7    0  0.4737014E-002  0.4570430E+03  0.7546771E-02  0.1025642E+00
         21   -1    0    0  502  501  0.00000000000E+00  0.00000000000E+00  0.30548155348E+02  0.30548155348E+02  0.00000000000E+00 0. -1.
         21   -1    0    0  501  502 -0.00000000000E+00 -0.00000000000E+00 -0.17095000273E+04  0.17095000273E+04  0.00000000000E+00 0. -1.
      99926    2    1    2    0    0  0.00000000000E+00  0.00000000000E+00 -0.16789518719E+04  0.17400481826E+04  0.45704298442E+03 0.  0.
      99925    2    3    3    0    0  0.10469675121E+03 -0.16532368936E+02 -0.88339660736E+03  0.92777334243E+03  0.26294311188E+03 0.  0.
         25    1    4    4    0    0  0.11658529624E+02 -0.76702130138E+01 -0.44197416714E+03  0.45954697910E+03  0.12509000000E+03 0.  0.
         25    1    3    3    0    0 -0.10469675121E+03  0.16532368936E+02 -0.79555526457E+03  0.81227484020E+03  0.12509000000E+03 0.  0.
         25    1    4    4    0    0  0.93038221590E+02 -0.88621559218E+01 -0.44142244022E+03  0.46822636332E+03  0.12509000000E+03 0.  0.
<mgrwt>
<rscale>  2 0.45704298E+03</rscale>
<asrwt>0</asrwt>
<pdfrwt beam="1">  1       21 0.44923744E-02 0.45704298E+03</pdfrwt>
<pdfrwt beam="2">  1       21 0.25139714E+00 0.45704298E+03</pdfrwt>
<totfact> 0.18150787E+04</totfact>
</mgrwt>
</event>
<event>
 7    0  0.4737014E-002  0.4577353E+03  0.7546771E-02  0.1025440E+00
         21   -1    0    0  502  501  0.00000000000E+00  0.00000000000E+00  0.25448758657E+03  0.25448758657E+03  0.00000000000E+00 0.  1.
         21   -1    0    0  501  502 -0.00000000000E+00 -0.00000000000E+00 -0.20582696999E+03  0.20582696999E+03  0.00000000000E+00 0.  1.
      99926    2    1    2    0    0  0.00000000000E+00 -0.71054273576E-14  0.48660616582E+02  0.46031455657E+03  0.45773533333E+03 0.  0.
      99925    2    3    3    0    0 -0.76516795212E+02 -0.35611516743E+02  0.11013010229E+03  0.29737589987E+03  0.26302240649E+03 0.  0.
         25    1    3    3    0    0  0.76516795212E+02  0.35611516743E+02 -0.61469485712E+02  0.16293865670E+03  0.12509000000E+03 0.  0.
         25    1    4    4    0    0 -0.42883878901E+02 -0.22805583421E+02  0.12703722523E+02  0.13478877687E+03  0.12509000000E+03 0.  0.
         25    1    4    4    0    0 -0.33632916311E+02 -0.12805933322E+02  0.97426379771E+02  0.16258712299E+03  0.12509000000E+03 0.  0.
<mgrwt>
<rscale>  2 0.45773533E+03</rscale>
<asrwt>0</asrwt>
<pdfrwt beam="1">  1       21 0.37424645E-01 0.45773533E+03</pdfrwt>
<pdfrwt beam="2">  1       21 0.30268672E-01 0.45773533E+03</pdfrwt>
<totfact> 0.66690778E+04</totfact>
</mgrwt>
</event>
<event>
 7    0  0.4737014E-002  0.4105093E+03  0.7546771E-02  0.1040200E+00
         21   -1    0    0  502  501  0.00000000000E+00  0.00000000000E+00  0.25956516123E+03  0.25956516123E+03  0.00000000000E+00 0. -1.
         21   -1    0    0  501  502 -0.00000000000E+00 -0.00000000000E+00 -0.16230790860E+03  0.16230790860E+03  0.00000000000E+00 0. -1.
      99926    2    1    2    0    0  0.00000000000E+00  0.71054273576E-14  0.97257252638E+02  0.42187306983E+03  0.41050933468E+03 0.  0.
      99925    2    3    3    0    0  0.27668981928E+02  0.56804980010E+02  0.64285327386E+02  0.27790420420E+03  0.26287975403E+03 0.  0.
         25    1    4    4    0    0  0.32026667059E+02  0.24679926547E+02 -0.44509980839E+01  0.13153754468E+03  0.12509000000E+03 0.  0.
         25    1    3    3    0    0 -0.27668981928E+02 -0.56804980010E+02  0.32971925253E+02  0.14396886563E+03  0.12509000000E+03 0.  0.
         25    1    4    4    0    0 -0.43576851311E+01  0.32125053463E+02  0.68736325470E+02  0.14636665952E+03  0.12509000000E+03 0.  0.
<mgrwt>
<rscale>  2 0.41050933E+03</rscale>
<asrwt>0</asrwt>
<pdfrwt beam="1">  1       21 0.38171347E-01 0.41050933E+03</pdfrwt>
<pdfrwt beam="2">  1       21 0.23868810E-01 0.41050933E+03</pdfrwt>
<totfact> 0.10301153E+05</totfact>
</mgrwt>
</event>
<event>
 7    0  0.4737014E-002  0.4546130E+03  0.7546771E-02  0.1026355E+00
         21   -1    0    0  502  501  0.00000000000E+00  0.00000000000E+00  0.36946373229E+03  0.36946373229E+03  0.00000000000E+00 0. -1.
         21   -1    0    0  501  502 -0.00000000000E+00 -0.00000000000E+00 -0.13984658279E+03  0.13984658279E+03  0.00000000000E+00 0. -1.
      99926    2    1    2    0    0  0.00000000000E+00  0.00000000000E+00  0.22961714950E+03  0.50931031508E+03  0.45461298013E+03 0.  0.
      99925    2    3    3    0    0  0.18113844446E+02 -0.10140825042E+03  0.95023331208E+02  0.29865716738E+03  0.26373267818E+03 0.  0.
         25    1    4    4    0    0  0.42135580064E+02 -0.42399415606E+02  0.21846783109E+02  0.14034923435E+03  0.12509000000E+03 0.  0.
         25    1    4    4    0    0 -0.24021735618E+02 -0.59008834812E+02  0.73176548099E+02  0.15830793303E+03  0.12509000000E+03 0.  0.
         25    1    3    3    0    0 -0.18113844446E+02  0.10140825042E+03  0.13459381829E+03  0.21065314770E+03  0.12509000000E+03 0.  0.
<mgrwt>
<rscale>  2 0.45461298E+03</rscale>
<asrwt>0</asrwt>
<pdfrwt beam="1">  1       21 0.54332902E-01 0.45461298E+03</pdfrwt>
<pdfrwt beam="2">  1       21 0.20565674E-01 0.45461298E+03</pdfrwt>
<totfact> 0.64820277E+04</totfact>
</mgrwt>
</event>
<event>
 7    0  0.4737014E-002  0.4538452E+03  0.7546771E-02  0.1026582E+00
         21   -1    0    0  502  501  0.00000000000E+00  0.00000000000E+00  0.16918677393E+04  0.16918677393E+04  0.00000000000E+00 0.  1.
         21   -1    0    0  501  502 -0.00000000000E+00 -0.00000000000E+00 -0.30436107698E+02  0.30436107698E+02  0.00000000000E+00 0.  1.
      99926    2    1    2    0    0 -0.14210854715E-13  0.00000000000E+00  0.16614316316E+04  0.17223038470E+04  0.45384521028E+03 0.  0.
      99925    2    3    3    0    0  0.61286953417E+02  0.33455220615E+02  0.13789011920E+04  0.14055290061E+04  0.26318804525E+03 0.  0.
         25    1    3    3    0    0 -0.61286953417E+02 -0.33455220615E+02  0.28253043965E+03  0.31677484098E+03  0.12509000000E+03 0.  0.
         25    1    4    4    0    0 -0.61178998157E+01  0.16600829799E+02  0.74898782200E+03  0.75956782571E+03  0.12509000000E+03 0.  0.
         25    1    4    4    0    0  0.67404853233E+02  0.16854390815E+02  0.62991336998E+03  0.64596118034E+03  0.12509000000E+03 0.  0.
<mgrwt>
<rscale>  2 0.45384521E+03</rscale>
<asrwt>0</asrwt>
<pdfrwt beam="1">  1       21 0.24880402E+00 0.45384521E+03</pdfrwt>
<pdfrwt beam="2">  1       21 0.44758993E-02 0.45384521E+03</pdfrwt>
<totfact> 0.18970775E+04</totfact>
</mgrwt>
</event>
<event>
 7    0  0.4737014E-002  0.4703105E+03  0.7546771E-02  0.1021833E+00
         21   -1    0    0  502  501  0.00000000000E+00  0.00000000000E+00  0.12578305485E+04  0.12578305485E+04  0.00000000000E+00 0.  1.
         21   -1    0    0  501  502 -0.00000000000E+00 -0.00000000000E+00 -0.43962985098E+02  0.43962985098E+02  0.00000000000E+00 0.  1.
      99926    2    1    2    0    0  0.35527136788E-14  0.00000000000E+00  0.12138675634E+04  0.13017935336E+04  0.47031047473E+03 0.  0.
      99925    2    3    3    0    0 -0.20451527669E+02  0.85768181464E+02  0.10066442971E+04  0.10441825165E+04  0.26307782295E+03 0.  0.
         25    1    4    4    0    0  0.78220145667E+01  0.37484036825E+02  0.35627627855E+03  0.37953462515E+03  0.12509000000E+03 0.  0.
         25    1    3    3    0    0  0.20451527669E+02 -0.85768181464E+02  0.20722326627E+03  0.25761101708E+03  0.12509000000E+03 0.  0.
         25    1    4    4    0    0 -0.28273542236E+02  0.48284144639E+02  0.65036801859E+03  0.66464789138E+03  0.12509000000E+03 0.  0.
<mgrwt>
<rscale>  2 0.47031047E+03</rscale>
<asrwt>0</asrwt>
<pdfrwt beam="1">  1       21 0.18497506E+00 0.47031047E+03</pdfrwt>
<pdfrwt beam="2">  1       21 0.64651457E-02 0.47031047E+03</pdfrwt>
<totfact> 0.25844153E+04</totfact>
</mgrwt>
</event>
<event>
 7    0  0.4737014E-002  0.4471319E+03  0.7546771E-02  0.1028581E+00
         21   -1    0    0  502  501  0.00000000000E+00  0.00000000000E+00  0.18477215287E+03  0.18477215287E+03  0.00000000000E+00 0.  1.
         21   -1    0    0  501  502 -0.00000000000E+00 -0.00000000000E+00 -0.27050474058E+03  0.27050474058E+03  0.00000000000E+00 0.  1.
      99926    2    1    2    0    0  0.00000000000E+00  0.00000000000E+00 -0.85732587709E+02  0.45527689346E+03  0.44713194151E+03 0.  0.
      99925    2    3    3    0    0  0.70514615809E+02  0.76574562580E+02 -0.72409233897E+02  0.29199494548E+03  0.26302466872E+03 0.  0.
         25    1    3    3    0    0 -0.70514615809E+02 -0.76574562580E+02 -0.13323353812E+02  0.16328194797E+03  0.12509000000E+03 0.  0.
         25    1    4    4    0    0  0.53669145546E+02  0.73428552521E+02 -0.56868750658E+02  0.16478377472E+03  0.12509000000E+03 0.  0.
         25    1    4    4    0    0  0.16845470263E+02  0.31460100592E+01 -0.15540483239E+02  0.12721117076E+03  0.12509000000E+03 0.  0.
<mgrwt>
<rscale>  2 0.44713194E+03</rscale>
<asrwt>0</asrwt>
<pdfrwt beam="1">  1       21 0.27172376E-01 0.44713194E+03</pdfrwt>
<pdfrwt beam="2">  1       21 0.39780109E-01 0.44713194E+03</pdfrwt>
<totfact> 0.72998031E+04</totfact>
</mgrwt>
</event>
<event>
 7    0  0.4737014E-002  0.4537810E+03  0.7546771E-02  0.1026600E+00
         21   -1    0    0  502  501  0.00000000000E+00  0.00000000000E+00  0.12820965276E+03  0.12820965276E+03  0.00000000000E+00 0. -1.
         21   -1    0    0  501  502 -0.00000000000E+00 -0.00000000000E+00 -0.40152441155E+03  0.40152441155E+03  0.00000000000E+00 0. -1.
      99926    2    1    2    0    0  0.00000000000E+00  0.00000000000E+00 -0.27331475880E+03  0.52973406431E+03  0.45378102815E+03 0.  0.
      99925    2    3    3    0    0 -0.38058279736E+02  0.99249287462E+02 -0.13062437001E+03  0.31223254966E+03  0.26292125306E+03 0.  0.
         25    1    4    4    0    0 -0.17041385279E+02  0.75906500642E+02 -0.34272635070E+02  0.15124261062E+03  0.12509000000E+03 0.  0.
         25    1    3    3    0    0  0.38058279736E+02 -0.99249287462E+02 -0.14269038879E+03  0.21750151464E+03  0.12509000000E+03 0.  0.
         25    1    4    4    0    0 -0.21016894457E+02  0.23342786820E+02 -0.96351734935E+02  0.16098993905E+03  0.12509000000E+03 0.  0.
<mgrwt>
<rscale>  2 0.45378103E+03</rscale>
<asrwt>0</asrwt>
<pdfrwt beam="1">  1       21 0.18854361E-01 0.45378103E+03</pdfrwt>
<pdfrwt beam="2">  1       21 0.59047708E-01 0.45378103E+03</pdfrwt>
<totfact> 0.63839080E+04</totfact>
</mgrwt>
</event>
<event>
 7    0  0.4737014E-002  0.4406794E+03  0.7546771E-02  0.1030539E+00
         21   -1    0    0  502  501  0.00000000000E+00  0.00000000000E+00  0.31341538290E+03  0.31341538290E+03  0.00000000000E+00 0. -1.
         21   -1    0    0  501  502 -0.00000000000E+00 -0.00000000000E+00 -0.15490490809E+03  0.15490490809E+03  0.00000000000E+00 0. -1.
      99926    2    1    2    0    0  0.00000000000E+00  0.00000000000E+00  0.15851047481E+03  0.46832029099E+03  0.44067938950E+03 0.  0.
      99925    2    3    3    0    0  0.79935710346E+02 -0.45884716824E+02  0.13848032419E+03  0.31165555323E+03  0.26354745045E+03 0.  0.
         25    1    4    4    0    0  0.49911084684E+02 -0.59156816864E+02  0.95474077470E+02  0.17536662432E+03  0.12509000000E+03 0.  0.
         25    1    3    3    0    0 -0.79935710346E+02  0.45884716824E+02  0.20030150616E+02  0.15666473777E+03  0.12509000000E+03 0.  0.
         25    1    4    4    0    0  0.30024625662E+02  0.13272100039E+02  0.43006246723E+02  0.13628892891E+03  0.12509000000E+03 0.  0.
<mgrwt>
<rscale>  2 0.44067939E+03</rscale>
<asrwt>0</asrwt>
<pdfrwt beam="1">  1       21 0.46090498E-01 0.44067939E+03</pdfrwt>
<pdfrwt beam="2">  1       21 0.22780133E-01 0.44067939E+03</pdfrwt>
<totfact> 0.75818042E+04</totfact>
</mgrwt>
</event>
<event>
 7    0  0.4737014E-002  0.4414316E+03  0.7546771E-02  0.1030308E+00
         21   -1    0    0  502  501  0.00000000000E+00  0.00000000000E+00  0.17199444415E+04  0.17199444415E+04  0.00000000000E+00 0. -1.
         21   -1    0    0  501  502 -0.00000000000E+00 -0.00000000000E+00 -0.28323856477E+02  0.28323856477E+02  0.00000000000E+00 0. -1.
      99926    2    1    2    0    0  0.00000000000E+00 -0.14210854715E-13  0.16916205850E+04  0.17482682979E+04  0.44143157798E+03 0.  0.
      99925    2    3    3    0    0  0.32801105125E+02  0.94259225525E+02  0.10640740417E+04  0.11006396342E+04  0.26304623911E+03 0.  0.
         25    1    4    4    0    0  0.36727937834E+02  0.53393559530E+02  0.41238661035E+03  0.43578668877E+03  0.12509000000E+03 0.  0.
         25    1    3    3    0    0 -0.32801105125E+02 -0.94259225525E+02  0.62754654325E+03  0.64762866377E+03  0.12509000000E+03 0.  0.
         25    1    4    4    0    0 -0.39268327085E+01  0.40865665995E+02  0.65168743139E+03  0.66485294539E+03  0.12509000000E+03 0.  0.
<mgrwt>
<rscale>  2 0.44143158E+03</rscale>
<asrwt>0</asrwt>
<pdfrwt beam="1">  1       21 0.25293293E+00 0.44143158E+03</pdfrwt>
<pdfrwt beam="2">  1       21 0.41652742E-02 0.44143158E+03</pdfrwt>
<totfact> 0.20333899E+04</totfact>
</mgrwt>
</event>
<event>
 7    0  0.4737014E-002  0.4677524E+03  0.7546771E-02  0.1022557E+00
         21   -1    0    0  502  501  0.00000000000E+00  0.00000000000E+00  0.83310125179E+02  0.83310125179E+02  0.00000000000E+00 0. -1.
         21   -1    0    0  501  502 -0.00000000000E+00 -0.00000000000E+00 -0.65655971579E+03  0.65655971579E+03  0.00000000000E+00 0. -1.
      99926    2    1    2    0    0  0.00000000000E+00  0.00000000000E+00 -0.57324959062E+03  0.73986984097E+03  0.46775237941E+03 0.  0.
      99925    2    3    3    0    0 -0.28582915490E+02 -0.22240542837E+02 -0.16789956212E+03  0.31411430254E+03  0.26299412027E+03 0.  0.
         25    1    4    4    0    0 -0.43383700422E+02 -0.33031174131E+02 -0.10897958353E+03  0.17463465193E+03  0.12509000000E+03 0.  0.
         25    1    3    3    0    0  0.28582915490E+02  0.22240542837E+02 -0.40535002850E+03  0.42575553844E+03  0.12509000000E+03 0.  0.
         25    1    4    4    0    0  0.14800784932E+02  0.10790631294E+02 -0.58919978583E+02  0.13947965061E+03  0.12509000000E+03 0.  0.
<mgrwt>
<rscale>  2 0.46775238E+03</rscale>
<asrwt>0</asrwt>
<pdfrwt beam="1">  1       21 0.12251489E-01 0.46775238E+03</pdfrwt>
<pdfrwt beam="2">  1       21 0.96552897E-01 0.46775238E+03</pdfrwt>
<totfact> 0.46002698E+04</totfact>
</mgrwt>
</event>
<event>
 7    0  0.4737014E-002  0.4578170E+03  0.7546771E-02  0.1025416E+00
         21   -1    0    0  502  501  0.00000000000E+00  0.00000000000E+00  0.79312016203E+02  0.79312016203E+02  0.00000000000E+00 0. -1.
         21   -1    0    0  501  502 -0.00000000000E+00 -0.00000000000E+00 -0.66067034300E+03  0.66067034300E+03  0.00000000000E+00 0. -1.
      99926    2    1    2    0    0  0.14210854715E-13  0.00000000000E+00 -0.58135832680E+03  0.73998235920E+03  0.45781698068E+03 0.  0.
      99925    2    3    3    0    0 -0.11332764869E+03 -0.17840854340E+02 -0.39049989398E+03  0.48456916158E+03  0.26297462447E+03 0.  0.
         25    1    3    3    0    0  0.11332764869E+03  0.17840854340E+02 -0.19085843282E+03  0.25541319762E+03  0.12509000000E+03 0.  0.
         25    1    4    4    0    0 -0.10070580126E+03 -0.81059333335E+01 -0.21651890298E+03  0.26969484238E+03  0.12509000000E+03 0.  0.
         25    1    4    4    0    0 -0.12621847434E+02 -0.97349210069E+01 -0.17398099100E+03  0.21487431920E+03  0.12509000000E+03 0.  0.
<mgrwt>
<rscale>  2 0.45781698E+03</rscale>
<asrwt>0</asrwt>
<pdfrwt beam="1">  1       21 0.11663532E-01 0.45781698E+03</pdfrwt>
<pdfrwt beam="2">  1       21 0.97157404E-01 0.45781698E+03</pdfrwt>
<totfact> 0.49676064E+04</totfact>
</mgrwt>
</event>
<event>
 7    0  0.4737014E-002  0.4551702E+03  0.7546771E-02  0.1026191E+00
         21   -1    0    0  502  501  0.00000000000E+00  0.00000000000E+00  0.19516636126E+03  0.19516636126E+03  0.00000000000E+00 0. -1.
         21   -1    0    0  501  502 -0.00000000000E+00 -0.00000000000E+00 -0.26538891523E+03  0.26538891523E+03  0.00000000000E+00 0. -1.
      99926    2    1    2    0    0  0.00000000000E+00  0.71054273576E-14 -0.70222553970E+02  0.46055527650E+03  0.45517024906E+03 0.  0.
      99925    2    3    3    0    0  0.10194499466E+03 -0.38194409686E+02 -0.12130610081E+02  0.28484592299E+03  0.26294191996E+03 0.  0.
         25    1    3    3    0    0 -0.10194499466E+03  0.38194409686E+02 -0.58091943889E+02  0.17570935351E+03  0.12509000000E+03 0.  0.
         25    1    4    4    0    0  0.56004547080E+02  0.15650553126E+02  0.14386702600E+02  0.13869367116E+03  0.12509000000E+03 0.  0.
         25    1    4    4    0    0  0.45940447576E+02 -0.53844962813E+02 -0.26517312681E+02  0.14615225183E+03  0.12509000000E+03 0.  0.
<mgrwt>
<rscale>  2 0.45517025E+03</rscale>
<asrwt>0</asrwt>
<pdfrwt beam="1">  1       21 0.28700936E-01 0.45517025E+03</pdfrwt>
<pdfrwt beam="2">  1       21 0.39027781E-01 0.45517025E+03</pdfrwt>
<totfact> 0.68047675E+04</totfact>
</mgrwt>
</event>
<event>
 7    0  0.4737014E-002  0.4538278E+03  0.7546771E-02  0.1026587E+00
         21   -1    0    0  502  501  0.00000000000E+00  0.00000000000E+00  0.11729754989E+03  0.11729754989E+03  0.00000000000E+00 0.  1.
         21   -1    0    0  501  502 -0.00000000000E+00 -0.00000000000E+00 -0.43896833037E+03  0.43896833037E+03  0.00000000000E+00 0.  1.
      99926    2    1    2    0    0 -0.71054273576E-14 -0.71054273576E-14 -0.32167078048E+03  0.55626588026E+03  0.45382776307E+03 0.  0.
      99925    2    3    3    0    0  0.38985171125E+02  0.50786752263E+02 -0.89820787027E+02  0.28515508126E+03  0.26295723761E+03 0.  0.
         25    1    3    3    0    0 -0.38985171125E+02 -0.50786752263E+02 -0.23184999345E+03  0.27111079900E+03  0.12509000000E+03 0.  0.
         25    1    4    4    0    0  0.22128046018E+01  0.50431887502E+02 -0.17401485547E+02  0.13600952754E+03  0.12509000000E+03 0.  0.
         25    1    4    4    0    0  0.36772366523E+02  0.35486476099E+00 -0.72419301480E+02  0.14914555372E+03  0.12509000000E+03 0.  0.
<mgrwt>
<rscale>  2 0.45382776E+03</rscale>
<asrwt>0</asrwt>
<pdfrwt beam="1">  1       21 0.17249640E-01 0.45382776E+03</pdfrwt>
<pdfrwt beam="2">  1       21 0.64554166E-01 0.45382776E+03</pdfrwt>
<totfact> 0.62027538E+04</totfact>
</mgrwt>
</event>
<event>
 7    0  0.4737014E-002  0.4526265E+03  0.7546771E-02  0.1026942E+00
         21   -1    0    0  502  501  0.00000000000E+00  0.00000000000E+00  0.12491442121E+03  0.12491442121E+03  0.00000000000E+00 0.  1.
         21   -1    0    0  501  502 -0.00000000000E+00 -0.00000000000E+00 -0.41002214970E+03  0.41002214970E+03  0.00000000000E+00 0.  1.
      99926    2    1    2    0    0  0.00000000000E+00 -0.22204460493E-15 -0.28510772850E+03  0.53493657091E+03  0.45262646636E+03 0.  0.
      99925    2    3    3    0    0 -0.87959306017E+02  0.12881112777E+00 -0.99979989605E+02  0.29481859176E+03  0.26303069710E+03 0.  0.
         25    1    4    4    0    0 -0.82442590786E+02  0.86746301759E+01 -0.70997993167E+02  0.16601281010E+03  0.12509000000E+03 0.  0.
         25    1    4    4    0    0 -0.55167152313E+01 -0.85458190481E+01 -0.28981996438E+02  0.12880578165E+03  0.12509000000E+03 0.  0.
         25    1    3    3    0    0  0.87959306017E+02 -0.12881112777E+00 -0.18512773889E+03  0.24011797916E+03  0.12509000000E+03 0.  0.
<mgrwt>
<rscale>  2 0.45262647E+03</rscale>
<asrwt>0</asrwt>
<pdfrwt beam="1">  1       21 0.18369768E-01 0.45262647E+03</pdfrwt>
<pdfrwt beam="2">  1       21 0.60297375E-01 0.45262647E+03</pdfrwt>
<totfact> 0.64068172E+04</totfact>
</mgrwt>
</event>
<event>
 7    0  0.4737014E-002  0.4503623E+03  0.7546771E-02  0.1027614E+00
         21   -1    0    0  502  501  0.00000000000E+00  0.00000000000E+00  0.32995001748E+03  0.32995001748E+03  0.00000000000E+00 0.  1.
         21   -1    0    0  501  502 -0.00000000000E+00 -0.00000000000E+00 -0.15367946626E+03  0.15367946626E+03  0.00000000000E+00 0.  1.
      99926    2    1    2    0    0  0.00000000000E+00  0.00000000000E+00  0.17627055123E+03  0.48362948374E+03  0.45036226564E+03 0.  0.
      99925    2    3    3    0    0  0.99847002072E+02  0.13066982830E+02  0.15612430574E+03  0.32178527108E+03  0.26273711572E+03 0.  0.
         25    1    4    4    0    0  0.90298178937E+01  0.17272174909E+02  0.65311010275E+02  0.14245315651E+03  0.12509000000E+03 0.  0.
         25    1    3    3    0    0 -0.99847002072E+02 -0.13066982830E+02  0.20146245486E+02  0.16184421266E+03  0.12509000000E+03 0.  0.
         25    1    4    4    0    0  0.90817184178E+02 -0.42051920786E+01  0.90813295464E+02  0.17933211457E+03  0.12509000000E+03 0.  0.
<mgrwt>
<rscale>  2 0.45036227E+03</rscale>
<asrwt>0</asrwt>
<pdfrwt beam="1">  1       21 0.48522061E-01 0.45036227E+03</pdfrwt>
<pdfrwt beam="2">  1       21 0.22599922E-01 0.45036227E+03</pdfrwt>
<totfact> 0.68940235E+04</totfact>
</mgrwt>
</event>
<event>
 7    0  0.4737014E-002  0.4613198E+03  0.7546771E-02  0.1024399E+00
         21   -1    0    0  502  501  0.00000000000E+00  0.00000000000E+00  0.19528585374E+03  0.19528585374E+03  0.00000000000E+00 0. -1.
         21   -1    0    0  501  502 -0.00000000000E+00 -0.00000000000E+00 -0.27244156492E+03  0.27244156492E+03  0.00000000000E+00 0. -1.
      99926    2    1    2    0    0  0.71054273576E-14  0.00000000000E+00 -0.77155711181E+02  0.46772741865E+03  0.46131977455E+03 0.  0.
      99925    2    3    3    0    0 -0.34328989036E+02 -0.97194995764E+02 -0.10827734760E+03  0.30267769571E+03  0.26318141422E+03 0.  0.
         25    1    3    3    0    0  0.34328989036E+02  0.97194995764E+02  0.31121636414E+02  0.16504972294E+03  0.12509000000E+03 0.  0.
         25    1    4    4    0    0 -0.42413384326E+02 -0.62920294605E+02 -0.89144061412E+02  0.17132434278E+03  0.12509000000E+03 0.  0.
         25    1    4    4    0    0  0.80843952892E+01 -0.34274701158E+02 -0.19133286183E+02  0.13135335293E+03  0.12509000000E+03 0.  0.
<mgrwt>
<rscale>  2 0.46131977E+03</rscale>
<asrwt>0</asrwt>
<pdfrwt beam="1">  1       21 0.28718508E-01 0.46131977E+03</pdfrwt>
<pdfrwt beam="2">  1       21 0.40064936E-01 0.46131977E+03</pdfrwt>
<totfact> 0.64315776E+04</totfact>
</mgrwt>
</event>
<event>
 7    0  0.4737014E-002  0.4526155E+03  0.7546771E-02  0.1026945E+00
         21   -1    0    0  502  501  0.00000000000E+00  0.00000000000E+00  0.22082437765E+03  0.22082437765E+03  0.00000000000E+00 0.  1.
         21   -1    0    0  501  502 -0.00000000000E+00 -0.00000000000E+00 -0.23192725771E+03  0.23192725771E+03  0.00000000000E+00 0.  1.
      99926    2    1    2    0    0  0.00000000000E+00  0.00000000000E+00 -0.11102880065E+02  0.45275163536E+03  0.45261547629E+03 0.  0.
      99925    2    3    3    0    0 -0.23252942014E+02 -0.40806557445E+02  0.93547025921E+02  0.28303132024E+03  0.26296351027E+03 0.  0.
         25    1    4    4    0    0 -0.21543596569E+02  0.19136391671E+02  0.47331940662E+02  0.13681428561E+03  0.12509000000E+03 0.  0.
         25    1    3    3    0    0  0.23252942014E+02  0.40806557445E+02 -0.10464990599E+03  0.16972031512E+03  0.12509000000E+03 0.  0.
         25    1    4    4    0    0 -0.17093454455E+01 -0.59942949116E+02  0.46215085259E+02  0.14621703463E+03  0.12509000000E+03 0.  0.
<mgrwt>
<rscale>  2 0.45261548E+03</rscale>
<asrwt>0</asrwt>
<pdfrwt beam="1">  1       21 0.32474173E-01 0.45261548E+03</pdfrwt>
<pdfrwt beam="2">  1       21 0.34106949E-01 0.45261548E+03</pdfrwt>
<totfact> 0.70033833E+04</totfact>
</mgrwt>
</event>
<event>
 7    0  0.4737014E-002  0.4594923E+03  0.7546771E-02  0.1024929E+00
         21   -1    0    0  502  501  0.00000000000E+00  0.00000000000E+00  0.70488148297E+03  0.70488148297E+03  0.00000000000E+00 0. -1.
         21   -1    0    0  501  502 -0.00000000000E+00 -0.00000000000E+00 -0.74882514142E+02  0.74882514142E+02  0.00000000000E+00 0. -1.
      99926    2    1    2    0    0  0.00000000000E+00  0.00000000000E+00  0.62999896883E+03  0.77976399711E+03  0.45949231818E+03 0.  0.
      99925    2    3    3    0    0 -0.35672507072E+02 -0.10636297521E+03  0.44847118942E+03  0.53240706260E+03  0.26409328335E+03 0.  0.
         25    1    4    4    0    0 -0.57167060480E+02 -0.72527532595E+02  0.24980148310E+03  0.29423902673E+03  0.12509000000E+03 0.  0.
         25    1    4    4    0    0  0.21494553408E+02 -0.33835442612E+02  0.19866970632E+03  0.23816803587E+03  0.12509000000E+03 0.  0.
         25    1    3    3    0    0  0.35672507072E+02  0.10636297521E+03  0.18152777941E+03  0.24735693452E+03  0.12509000000E+03 0.  0.
<mgrwt>
<rscale>  2 0.45949232E+03</rscale>
<asrwt>0</asrwt>
<pdfrwt beam="1">  1       21 0.10365904E+00 0.45949232E+03</pdfrwt>
<pdfrwt beam="2">  1       21 0.11012135E-01 0.45949232E+03</pdfrwt>
<totfact> 0.47077150E+04</totfact>
</mgrwt>
</event>
<event>
 7    0  0.4737014E-002  0.4507928E+03  0.7546771E-02  0.1027486E+00
         21   -1    0    0  502  501  0.00000000000E+00  0.00000000000E+00  0.49428078915E+02  0.49428078915E+02  0.00000000000E+00 0.  1.
         21   -1    0    0  501  502 -0.00000000000E+00 -0.00000000000E+00 -0.10278272442E+04  0.10278272442E+04  0.00000000000E+00 0.  1.
      99926    2    1    2    0    0  0.71054273576E-14 -0.14210854715E-13 -0.97839916533E+03  0.10772553232E+04  0.45079275123E+03 0.  0.
      99925    2    3    3    0    0  0.48787350165E+02 -0.66324139951E+02 -0.44652805353E+03  0.52470352944E+03  0.26295892101E+03 0.  0.
         25    1    4    4    0    0  0.44411415829E+02 -0.88248902021E+01 -0.17090348283E+03  0.21657737898E+03  0.12509000000E+03 0.  0.
         25    1    4    4    0    0  0.43759343354E+01 -0.57499249749E+02 -0.27562457070E+03  0.30812615046E+03  0.12509000000E+03 0.  0.
         25    1    3    3    0    0 -0.48787350165E+02  0.66324139951E+02 -0.53187111180E+03  0.55255179372E+03  0.12509000000E+03 0.  0.
<mgrwt>
<rscale>  2 0.45079275E+03</rscale>
<asrwt>0</asrwt>
<pdfrwt beam="1">  1       21 0.72688355E-02 0.45079275E+03</pdfrwt>
<pdfrwt beam="2">  1       21 0.15115106E+00 0.45079275E+03</pdfrwt>
<totfact> 0.37509275E+04</totfact>
</mgrwt>
</event>
<event>
 7    0  0.4737014E-002  0.4426629E+03  0.7546771E-02  0.1029933E+00
         21   -1    0    0  502  501  0.00000000000E+00  0.00000000000E+00  0.92687691551E+02  0.92687691551E+02  0.00000000000E+00 0.  1.
         21   -1    0    0  501  502 -0.00000000000E+00 -0.00000000000E+00 -0.52852329693E+03  0.52852329693E+03  0.00000000000E+00 0.  1.
      99926    2    1    2    0    0 -0.35527136788E-14 -0.14210854715E-13 -0.43583560538E+03  0.62121098848E+03  0.44266287092E+03 0.  0.
      99925    2    3    3    0    0  0.30107431540E+02  0.88750562517E+02 -0.22441176487E+03  0.35828387269E+03  0.26310373133E+03 0.  0.
         25    1    4    4    0    0  0.54869091473E+02  0.36849911799E+02 -0.10798148921E+03  0.17797764835E+03  0.12509000000E+03 0.  0.
         25    1    3    3    0    0 -0.30107431540E+02 -0.88750562517E+02 -0.21142384051E+03  0.26292711579E+03  0.12509000000E+03 0.  0.
         25    1    4    4    0    0 -0.24761659933E+02  0.51900650718E+02 -0.11643027566E+03  0.18030622434E+03  0.12509000000E+03 0.  0.
<mgrwt>
<rscale>  2 0.44266287E+03</rscale>
<asrwt>0</asrwt>
<pdfrwt beam="1">  1       21 0.13630543E-01 0.44266287E+03</pdfrwt>
<pdfrwt beam="2">  1       21 0.77724016E-01 0.44266287E+03</pdfrwt>
<totfact> 0.63339295E+04</totfact>
</mgrwt>
</event>
<event>
 7    0  0.4737014E-002  0.4417588E+03  0.7546771E-02  0.1030209E+00
         21   -1    0    0  502  501  0.00000000000E+00  0.00000000000E+00  0.16523008464E+03  0.16523008464E+03  0.00000000000E+00 0.  1.
         21   -1    0    0  501  502 -0.00000000000E+00 -0.00000000000E+00 -0.29527141063E+03  0.29527141063E+03  0.00000000000E+00 0.  1.
      99926    2    1    2    0    0  0.14210854715E-13  0.00000000000E+00 -0.13004132598E+03  0.46050149527E+03  0.44175884902E+03 0.  0.
      99925    2    3    3    0    0  0.65938020929E+02  0.72640157066E+02 -0.10420876150E+03  0.29944484527E+03  0.26302725023E+03 0.  0.
         25    1    4    4    0    0 -0.42395644609E+01  0.51338093111E+02 -0.58692490380E+02  0.14746487798E+03  0.12509000000E+03 0.  0.
         25    1    4    4    0    0  0.70177585390E+02  0.21302063954E+02 -0.45516271125E+02  0.15197996729E+03  0.12509000000E+03 0.  0.
         25    1    3    3    0    0 -0.65938020929E+02 -0.72640157066E+02 -0.25832564478E+02  0.16105665000E+03  0.12509000000E+03 0.  0.
<mgrwt>
<rscale>  2 0.44175885E+03</rscale>
<asrwt>0</asrwt>
<pdfrwt beam="1">  1       21 0.24298542E-01 0.44175885E+03</pdfrwt>
<pdfrwt beam="2">  1       21 0.43422266E-01 0.44175885E+03</pdfrwt>
<totfact> 0.75804095E+04</totfact>
</mgrwt>
</event>
<event>
 7    0  0.4737014E-002  0.4475568E+03  0.7546771E-02  0.1028453E+00
         21   -1    0    0  502  501  0.00000000000E+00  0.00000000000E+00  0.68522283114E+02  0.68522283114E+02  0.00000000000E+00 0. -1.
         21   -1    0    0  501  502 -0.00000000000E+00 -0.00000000000E+00 -0.73081005188E+03  0.73081005188E+03  0.00000000000E+00 0. -1.
      99926    2    1    2    0    0  0.17763568394E-14  0.14210854715E-13 -0.66228776876E+03  0.79933233499E+03  0.44755680434E+03 0.  0.
      99925    2    3    3    0    0 -0.84508043742E+01 -0.10557984958E+03 -0.41008413397E+03  0.49854552970E+03  0.26298313163E+03 0.  0.
         25    1    3    3    0    0  0.84508043742E+01  0.10557984958E+03 -0.25220363479E+03  0.30078680529E+03  0.12509000000E+03 0.  0.
         25    1    4    4    0    0  0.98681394160E+01 -0.89624051892E+02 -0.25284456664E+03  0.29615491526E+03  0.12509000000E+03 0.  0.
         25    1    4    4    0    0 -0.18318943790E+02 -0.15955797686E+02 -0.15723956733E+03  0.20239061445E+03  0.12509000000E+03 0.  0.
<mgrwt>
<rscale>  2 0.44755680E+03</rscale>
<asrwt>0</asrwt>
<pdfrwt beam="1">  1       21 0.10076806E-01 0.44755680E+03</pdfrwt>
<pdfrwt beam="2">  1       21 0.10747207E+00 0.44755680E+03</pdfrwt>
<totfact> 0.50694103E+04</totfact>
</mgrwt>
</event>
<event>
 7    0  0.4737014E-002  0.4550204E+03  0.7546771E-02  0.1026235E+00
         21   -1    0    0  502  501  0.00000000000E+00  0.00000000000E+00  0.17911811668E+03  0.17911811668E+03  0.00000000000E+00 0. -1.
         21   -1    0    0  501  502 -0.00000000000E+00 -0.00000000000E+00 -0.28897632080E+03  0.28897632080E+03  0.00000000000E+00 0. -1.
      99926    2    1    2    0    0  0.00000000000E+00 -0.35527136788E-14 -0.10985820412E+03  0.46809443748E+03  0.45502041425E+03 0.  0.
      99925    2    3    3    0    0 -0.47012733853E+02  0.16708938661E+02 -0.17369467913E+03  0.31905756480E+03  0.26294201324E+03 0.  0.
         25    1    4    4    0    0 -0.24825002659E+02 -0.24597997600E+02 -0.11369295043E+03  0.17261210074E+03  0.12509000000E+03 0.  0.
         25    1    3    3    0    0  0.47012733853E+02 -0.16708938661E+02  0.63836475010E+02  0.14903687268E+03  0.12509000000E+03 0.  0.
         25    1    4    4    0    0 -0.22187731194E+02  0.41306936261E+02 -0.60001728701E+02  0.14644546407E+03  0.12509000000E+03 0.  0.
<mgrwt>
<rscale>  2 0.45502041E+03</rscale>
<asrwt>0</asrwt>
<pdfrwt beam="1">  1       21 0.26340900E-01 0.45502041E+03</pdfrwt>
<pdfrwt beam="2">  1       21 0.42496517E-01 0.45502041E+03</pdfrwt>
<totfact> 0.67566875E+04</totfact>
</mgrwt>
</event>
<event>
 7    0  0.4737014E-002  0.4558794E+03  0.7546771E-02  0.1025983E+00
         21   -1    0    0  502  501  0.00000000000E+00  0.00000000000E+00  0.13021181242E+04  0.13021181242E+04  0.00000000000E+00 0. -1.
         21   -1    0    0  501  502 -0.00000000000E+00 -0.00000000000E+00 -0.39901532482E+02  0.39901532482E+02  0.00000000000E+00 0. -1.
      99926    2    1    2    0    0  0.00000000000E+00  0.00000000000E+00  0.12622165917E+04  0.13420196567E+04  0.45587940786E+03 0.  0.
      99925    2    3    3    0    0  0.19241791267E+02 -0.10951550941E+03  0.71874812905E+03  0.77336389847E+03  0.26292385421E+03 0.  0.
         25    1    4    4    0    0  0.13772013626E+02 -0.13329816169E+02  0.28744140908E+03  0.31406595504E+03  0.12509000000E+03 0.  0.
         25    1    4    4    0    0  0.54697776409E+01 -0.96185693241E+02  0.43130671997E+03  0.45929794343E+03  0.12509000000E+03 0.  0.
         25    1    3    3    0    0 -0.19241791267E+02  0.10951550941E+03  0.54346846266E+03  0.56865575821E+03  0.12509000000E+03 0.  0.
<mgrwt>
<rscale>  2 0.45587941E+03</rscale>
<asrwt>0</asrwt>
<pdfrwt beam="1">  1       21 0.19148793E+00 0.45587941E+03</pdfrwt>
<pdfrwt beam="2">  1       21 0.58678733E-02 0.45587941E+03</pdfrwt>
<totfact> 0.27728340E+04</totfact>
</mgrwt>
</event>
<event>
 7    0  0.4737014E-002  0.4426495E+03  0.7546771E-02  0.1029937E+00
         21   -1    0    0  502  501  0.00000000000E+00  0.00000000000E+00  0.86952531352E+02  0.86952531352E+02  0.00000000000E+00 0. -1.
         21   -1    0    0  501  502 -0.00000000000E+00 -0.00000000000E+00 -0.56334914442E+03  0.56334914442E+03  0.00000000000E+00 0. -1.
      99926    2    1    2    0    0  0.00000000000E+00  0.14210854715E-13 -0.47639661306E+03  0.65030167577E+03  0.44264945111E+03 0.  0.
      99925    2    3    3    0    0  0.19508833700E+02 -0.95873570597E+02 -0.26532404492E+03  0.38615877268E+03  0.26296275928E+03 0.  0.
         25    1    3    3    0    0 -0.19508833700E+02  0.95873570597E+02 -0.21107256814E+03  0.26414290309E+03  0.12509000000E+03 0.  0.
         25    1    4    4    0    0  0.22598367239E+02 -0.93486744797E+01 -0.10493126326E+03  0.16509440337E+03  0.12509000000E+03 0.  0.
         25    1    4    4    0    0 -0.30895335388E+01 -0.86524896117E+02 -0.16039278167E+03  0.22106436931E+03  0.12509000000E+03 0.  0.
<mgrwt>
<rscale>  2 0.44264945E+03</rscale>
<asrwt>0</asrwt>
<pdfrwt beam="1">  1       21 0.12787136E-01 0.44264945E+03</pdfrwt>
<pdfrwt beam="2">  1       21 0.82845466E-01 0.44264945E+03</pdfrwt>
<totfact> 0.61455211E+04</totfact>
</mgrwt>
</event>
<event>
 7    0  0.4737014E-002  0.4560600E+03  0.7546771E-02  0.1025930E+00
         21   -1    0    0  502  501  0.00000000000E+00  0.00000000000E+00  0.49251057020E+02  0.49251057020E+02  0.00000000000E+00 0.  1.
         21   -1    0    0  501  502 -0.00000000000E+00 -0.00000000000E+00 -0.10557679875E+04  0.10557679875E+04  0.00000000000E+00 0.  1.
      99926    2    1    2    0    0 -0.14210854715E-13  0.00000000000E+00 -0.10065169305E+04  0.11050190445E+04  0.45606003707E+03 0.  0.
      99925    2    3    3    0    0 -0.10223431276E+03  0.23511590460E+02 -0.74154549038E+03  0.79379240402E+03  0.26308176824E+03 0.  0.
         25    1    3    3    0    0  0.10223431276E+03 -0.23511590460E+02 -0.26497144011E+03  0.31122664051E+03  0.12509000000E+03 0.  0.
         25    1    4    4    0    0 -0.17125998090E+02 -0.40212204463E+01 -0.39371285936E+03  0.41348131004E+03  0.12509000000E+03 0.  0.
         25    1    4    4    0    0 -0.85108314667E+02  0.27532810906E+02 -0.34783263102E+03  0.38031109398E+03  0.12509000000E+03 0.  0.
<mgrwt>
<rscale>  2 0.45606004E+03</rscale>
<asrwt>0</asrwt>
<pdfrwt beam="1">  1       21 0.72428027E-02 0.45606004E+03</pdfrwt>
<pdfrwt beam="2">  1       21 0.15525999E+00 0.45606004E+03</pdfrwt>
<totfact> 0.35029564E+04</totfact>
</mgrwt>
</event>
<event>
 7    0  0.4737014E-002  0.4707933E+03  0.7546771E-02  0.1021697E+00
         21   -1    0    0  502  501  0.00000000000E+00  0.00000000000E+00  0.19508691999E+03  0.19508691999E+03  0.00000000000E+00 0.  1.
         21   -1    0    0  501  502 -0.00000000000E+00 -0.00000000000E+00 -0.28403530574E+03  0.28403530574E+03  0.00000000000E+00 0.  1.
      99926    2    1    2    0    0  0.00000000000E+00  0.00000000000E+00 -0.88948385752E+02  0.47912222573E+03  0.47079325809E+03 0.  0.
      99925    2    3    3    0    0  0.76106026139E+02  0.84970934265E+02  0.29767618657E+01  0.28648285346E+03  0.26277628761E+03 0.  0.
         25    1    4    4    0    0  0.74836240169E+02  0.65668172930E+02  0.30996954229E+01  0.15990587228E+03  0.12509000000E+03 0.  0.
         25    1    3    3    0    0 -0.76106026139E+02 -0.84970934265E+02 -0.91925147618E+02  0.19263937227E+03  0.12509000000E+03 0.  0.
         25    1    4    4    0    0  0.12697859696E+01  0.19302761335E+02 -0.12293355715E+00  0.12657698118E+03  0.12509000000E+03 0.  0.
<mgrwt>
<rscale>  2 0.47079326E+03</rscale>
<asrwt>0</asrwt>
<pdfrwt beam="1">  1       21 0.28689253E-01 0.47079326E+03</pdfrwt>
<pdfrwt beam="2">  1       21 0.41769898E-01 0.47079326E+03</pdfrwt>
<totfact> 0.59010755E+04</totfact>
</mgrwt>
</event>
<event>
 7    0  0.4737014E-002  0.4607115E+03  0.7546771E-02  0.1024575E+00
         21   -1    0    0  502  501  0.00000000000E+00  0.00000000000E+00  0.17650424391E+03  0.17650424391E+03  0.00000000000E+00 0. -1.
         21   -1    0    0  501  502 -0.00000000000E+00 -0.00000000000E+00 -0.30063742000E+03  0.30063742000E+03  0.00000000000E+00 0. -1.
      99926    2    1    2    0    0  0.71054273576E-14 -0.14210854715E-13 -0.12413317610E+03  0.47714166391E+03  0.46071153885E+03 0.  0.
      99925    2    3    3    0    0 -0.40008864323E+02  0.10382072317E+03 -0.11982806655E+03  0.30967377489E+03  0.26298218483E+03 0.  0.
         25    1    4    4    0    0 -0.55215063482E+02  0.70979013292E+02 -0.50351539599E+02  0.16207871299E+03  0.12509000000E+03 0.  0.
         25    1    3    3    0    0  0.40008864323E+02 -0.10382072317E+03 -0.43051095507E+01  0.16746788902E+03  0.12509000000E+03 0.  0.
         25    1    4    4    0    0  0.15206199159E+02  0.32841709881E+02 -0.69476526946E+02  0.14759506190E+03  0.12509000000E+03 0.  0.
<mgrwt>
<rscale>  2 0.46071154E+03</rscale>
<asrwt>0</asrwt>
<pdfrwt beam="1">  1       21 0.25956507E-01 0.46071154E+03</pdfrwt>
<pdfrwt beam="2">  1       21 0.44211385E-01 0.46071154E+03</pdfrwt>
<totfact> 0.63960410E+04</totfact>
</mgrwt>
</event>
<event>
 7    0  0.4737014E-002  0.4564656E+03  0.7546771E-02  0.1025811E+00
         21   -1    0    0  502  501  0.00000000000E+00  0.00000000000E+00  0.21148977550E+03  0.21148977550E+03  0.00000000000E+00 0. -1.
         21   -1    0    0  501  502 -0.00000000000E+00 -0.00000000000E+00 -0.24630129769E+03  0.24630129769E+03  0.00000000000E+00 0. -1.
      99926    2    1    2    0    0  0.00000000000E+00  0.00000000000E+00 -0.34811522195E+02  0.45779107319E+03  0.45646557879E+03 0.  0.
      99925    2    3    3    0    0 -0.11045227432E+03 -0.22619432066E+02 -0.12267339370E+01  0.28607389376E+03  0.26291714323E+03 0.  0.
         25    1    4    4    0    0 -0.59989010067E+02 -0.41536228712E+02 -0.27378799860E+02  0.14738061747E+03  0.12509000000E+03 0.  0.
         25    1    3    3    0    0  0.11045227432E+03  0.22619432066E+02 -0.33584788258E+02  0.17171717943E+03  0.12509000000E+03 0.  0.
         25    1    4    4    0    0 -0.50463264258E+02  0.18916796646E+02  0.26152065923E+02  0.13869327629E+03  0.12509000000E+03 0.  0.
<mgrwt>
<rscale>  2 0.45646558E+03</rscale>
<asrwt>0</asrwt>
<pdfrwt beam="1">  1       21 0.31101438E-01 0.45646558E+03</pdfrwt>
<pdfrwt beam="2">  1       21 0.36220779E-01 0.45646558E+03</pdfrwt>
<totfact> 0.67548500E+04</totfact>
</mgrwt>
</event>
<event>
 7    0  0.4737014E-002  0.4538626E+03  0.7546771E-02  0.1026576E+00
         21   -1    0    0  502  501  0.00000000000E+00  0.00000000000E+00  0.10040636392E+03  0.10040636392E+03  0.00000000000E+00 0. -1.
         21   -1    0    0  501  502 -0.00000000000E+00 -0.00000000000E+00 -0.51289398342E+03  0.51289398342E+03  0.00000000000E+00 0. -1.
      99926    2    1    2    0    0  0.77715611724E-15 -0.22204460493E-14 -0.41248761951E+03  0.61330034734E+03  0.45386262216E+03 0.  0.
      99925    2    3    3    0    0  0.92281898420E+00 -0.30345014116E+01 -0.41093798926E+03  0.48816054852E+03  0.26347795036E+03 0.  0.
         25    1    3    3    0    0 -0.92281898420E+00  0.30345014116E+01 -0.15496302479E+01  0.12513979882E+03  0.12509000000E+03 0.  0.
         25    1    4    4    0    0  0.20793892345E+02 -0.30114638936E+02 -0.16564919418E+03  0.21077580760E+03  0.12509000000E+03 0.  0.
         25    1    4    4    0    0 -0.19871073361E+02  0.27080137524E+02 -0.24528879508E+03  0.27738474092E+03  0.12509000000E+03 0.  0.
<mgrwt>
<rscale>  2 0.45386262E+03</rscale>
<asrwt>0</asrwt>
<pdfrwt beam="1">  1       21 0.14765641E-01 0.45386262E+03</pdfrwt>
<pdfrwt beam="2">  1       21 0.75425587E-01 0.45386262E+03</pdfrwt>
<totfact> 0.58389734E+04</totfact>
</mgrwt>
</event>
<event>
 7    0  0.4737014E-002  0.4352965E+03  0.7546771E-02  0.1032200E+00
         21   -1    0    0  502  501  0.00000000000E+00  0.00000000000E+00  0.15517819732E+03  0.15517819732E+03  0.00000000000E+00 0. -1.
         21   -1    0    0  501  502 -0.00000000000E+00 -0.00000000000E+00 -0.30526679065E+03  0.30526679065E+03  0.00000000000E+00 0. -1.
      99926    2    1    2    0    0 -0.71054273576E-14 -0.88817841970E-15 -0.15008859333E+03  0.46044498797E+03  0.43529645197E+03 0.  0.
      99925    2    3    3    0    0  0.61295207011E+02  0.59682283136E+01 -0.17063024961E+03  0.31951170625E+03  0.26302153182E+03 0.  0.
         25    1    4    4    0    0  0.60517407347E+02 -0.23746730709E+02 -0.99743277068E+02  0.17269190262E+03  0.12509000000E+03 0.  0.
         25    1    3    3    0    0 -0.61295207011E+02 -0.59682283136E+01  0.20541656276E+02  0.14093328171E+03  0.12509000000E+03 0.  0.
         25    1    4    4    0    0  0.77779966442E+00  0.29714959022E+02 -0.70886972542E+02  0.14681980363E+03  0.12509000000E+03 0.  0.
<mgrwt>
<rscale>  2 0.43529645E+03</rscale>
<asrwt>0</asrwt>
<pdfrwt beam="1">  1       21 0.22820323E-01 0.43529645E+03</pdfrwt>
<pdfrwt beam="2">  1       21 0.44892175E-01 0.43529645E+03</pdfrwt>
<totfact> 0.79938604E+04</totfact>
</mgrwt>
</event>
<event>
 7    0  0.4737014E-002  0.4476035E+03  0.7546771E-02  0.1028439E+00
         21   -1    0    0  502  501  0.00000000000E+00  0.00000000000E+00  0.45296007996E+02  0.45296007996E+02  0.00000000000E+00 0.  1.
         21   -1    0    0  501  502 -0.00000000000E+00 -0.00000000000E+00 -0.11057758207E+04  0.11057758207E+04  0.00000000000E+00 0.  1.
      99926    2    1    2    0    0  0.00000000000E+00  0.00000000000E+00 -0.10604798127E+04  0.11510718287E+04  0.44760353179E+03 0.  0.
      99925    2    3    3    0    0 -0.84374061132E+02 -0.41788829444E+02 -0.54578203403E+03  0.61308800001E+03  0.26293265036E+03 0.  0.
         25    1    4    4    0    0 -0.40613787340E+02 -0.14329789484E+02 -0.35764390573E+03  0.38132859058E+03  0.12509000000E+03 0.  0.
         25    1    3    3    0    0  0.84374061132E+02  0.41788829444E+02 -0.51469777867E+03  0.53798382869E+03  0.12509000000E+03 0.  0.
         25    1    4    4    0    0 -0.43760273792E+02 -0.27459039960E+02 -0.18813812830E+03  0.23175940943E+03  0.12509000000E+03 0.  0.
<mgrwt>
<rscale>  2 0.44760353E+03</rscale>
<asrwt>0</asrwt>
<pdfrwt beam="1">  1       21 0.66611774E-02 0.44760353E+03</pdfrwt>
<pdfrwt beam="2">  1       21 0.16261410E+00 0.44760353E+03</pdfrwt>
<totfact> 0.35764170E+04</totfact>
</mgrwt>
</event>
<event>
 7    0  0.4737014E-002  0.4680973E+03  0.7546771E-02  0.1022459E+00
         21   -1    0    0  502  501  0.00000000000E+00  0.00000000000E+00  0.54696672846E+03  0.54696672846E+03  0.00000000000E+00 0.  1.
         21   -1    0    0  501  502 -0.00000000000E+00 -0.00000000000E+00 -0.10015009756E+03  0.10015009756E+03  0.00000000000E+00 0.  1.
      99926    2    1    2    0    0  0.88817841970E-15  0.00000000000E+00  0.44681663090E+03  0.64711682603E+03  0.46809730279E+03 0.  0.
      99925    2    3    3    0    0  0.65867862097E+01  0.12282266216E+03  0.30891804561E+03  0.42397489806E+03  0.26305049551E+03 0.  0.
         25    1    3    3    0    0 -0.65867862097E+01 -0.12282266216E+03  0.13789858529E+03  0.22314192797E+03  0.12509000000E+03 0.  0.
         25    1    4    4    0    0 -0.12800401882E+02  0.10185273436E+03  0.18116027434E+03  0.24290817788E+03  0.12509000000E+03 0.  0.
         25    1    4    4    0    0  0.19387188092E+02  0.20969927803E+02  0.12775777127E+03  0.18106672017E+03  0.12509000000E+03 0.  0.
<mgrwt>
<rscale>  2 0.46809730E+03</rscale>
<asrwt>0</asrwt>
<pdfrwt beam="1">  1       21 0.80436283E-01 0.46809730E+03</pdfrwt>
<pdfrwt beam="2">  1       21 0.14727956E-01 0.46809730E+03</pdfrwt>
<totfact> 0.50448598E+04</totfact>
</mgrwt>
</event>
<event>
 7    0  0.4737014E-002  0.4582642E+03  0.7546771E-02  0.1025286E+00
         21   -1    0    0  502  501  0.00000000000E+00  0.00000000000E+00  0.17805473940E+04  0.17805473940E+04  0.00000000000E+00 0. -1.
         21   -1    0    0  501  502 -0.00000000000E+00 -0.00000000000E+00 -0.29486169750E+02  0.29486169750E+02  0.00000000000E+00 0. -1.
      99926    2    1    2    0    0  0.00000000000E+00 -0.14210854715E-13  0.17510612242E+04  0.18100335637E+04  0.45826421509E+03 0.  0.
      99925    2    3    3    0    0 -0.73445141404E+02 -0.73625008098E+02  0.13032274030E+04  0.13335700602E+04  0.26304488409E+03 0.  0.
         25    1    4    4    0    0 -0.63877163260E+02 -0.26079962833E+02  0.53653353441E+03  0.55522625847E+03  0.12509000000E+03 0.  0.
         25    1    3    3    0    0  0.73445141404E+02  0.73625008098E+02  0.44783382125E+03  0.47646350350E+03  0.12509000000E+03 0.  0.
         25    1    4    4    0    0 -0.95679781432E+01 -0.47545045265E+02  0.76669386856E+03  0.77834380175E+03  0.12509000000E+03 0.  0.
<mgrwt>
<rscale>  2 0.45826422E+03</rscale>
<asrwt>0</asrwt>
<pdfrwt beam="1">  1       21 0.26184513E+00 0.45826422E+03</pdfrwt>
<pdfrwt beam="2">  1       21 0.43362027E-02 0.45826422E+03</pdfrwt>
<totfact> 0.16641731E+04</totfact>
</mgrwt>
</event>
<event>
 7    0  0.4737014E-002  0.4562330E+03  0.7546771E-02  0.1025879E+00
         21   -1    0    0  502  501  0.00000000000E+00  0.00000000000E+00  0.83111456512E+02  0.83111456512E+02  0.00000000000E+00 0.  1.
         21   -1    0    0  501  502 -0.00000000000E+00 -0.00000000000E+00 -0.62611275195E+03  0.62611275195E+03  0.00000000000E+00 0.  1.
      99926    2    1    2    0    0  0.00000000000E+00  0.00000000000E+00 -0.54300129544E+03  0.70922420847E+03  0.45623302272E+03 0.  0.
      99925    2    3    3    0    0 -0.70765766299E+02  0.34452412126E+02 -0.47019952968E+03  0.54447480003E+03  0.26300275241E+03 0.  0.
         25    1    3    3    0    0  0.70765766299E+02 -0.34452412126E+02 -0.72801765763E+02  0.16474940843E+03  0.12509000000E+03 0.  0.
         25    1    4    4    0    0  0.49247420552E+01  0.17973288482E+02 -0.23971454488E+03  0.27103111134E+03  0.12509000000E+03 0.  0.
         25    1    4    4    0    0 -0.75690508354E+02  0.16479123645E+02 -0.23048498480E+03  0.27344368870E+03  0.12509000000E+03 0.  0.
<mgrwt>
<rscale>  2 0.45623302E+03</rscale>
<asrwt>0</asrwt>
<pdfrwt beam="1">  1       21 0.12222273E-01 0.45623302E+03</pdfrwt>
<pdfrwt beam="2">  1       21 0.92075408E-01 0.45623302E+03</pdfrwt>
<totfact> 0.51899682E+04</totfact>
</mgrwt>
</event>
<event>
 7    0  0.4737014E-002  0.4495057E+03  0.7546771E-02  0.1027870E+00
         21   -1    0    0  502  501  0.00000000000E+00  0.00000000000E+00  0.31312887666E+02  0.31312887666E+02  0.00000000000E+00 0. -1.
         21   -1    0    0  501  502 -0.00000000000E+00 -0.00000000000E+00 -0.16131967557E+04  0.16131967557E+04  0.00000000000E+00 0. -1.
      99926    2    1    2    0    0  0.71054273576E-14 -0.14210854715E-13 -0.15818838680E+04  0.16445096434E+04  0.44950572319E+03 0.  0.
      99925    2    3    3    0    0  0.46870134160E+02 -0.74984746729E+02 -0.77803834666E+03  0.82619756839E+03  0.26351324715E+03 0.  0.
         25    1    4    4    0    0  0.33985255357E+00 -0.62718729528E+00 -0.34024123545E+03  0.36250808993E+03  0.12509000000E+03 0.  0.
         25    1    3    3    0    0 -0.46870134160E+02  0.74984746729E+02 -0.80384552137E+03  0.81831207497E+03  0.12509000000E+03 0.  0.
         25    1    4    4    0    0  0.46530281606E+02 -0.74357559434E+02 -0.43779711120E+03  0.46368947845E+03  0.12509000000E+03 0.  0.
<mgrwt>
<rscale>  2 0.44950572E+03</rscale>
<asrwt>0</asrwt>
<pdfrwt beam="1">  1       21 0.46048361E-02 0.44950572E+03</pdfrwt>
<pdfrwt beam="2">  1       21 0.23723483E+00 0.44950572E+03</pdfrwt>
<totfact> 0.21338285E+04</totfact>
</mgrwt>
</event>
<event>
 7    0  0.4737014E-002  0.4658475E+03  0.7546771E-02  0.1023099E+00
         21   -1    0    0  502  501  0.00000000000E+00  0.00000000000E+00  0.36522706876E+02  0.36522706876E+02  0.00000000000E+00 0. -1.
         21   -1    0    0  501  502 -0.00000000000E+00 -0.00000000000E+00 -0.14854726232E+04  0.14854726232E+04  0.00000000000E+00 0. -1.
      99926    2    1    2    0    0 -0.35527136788E-14  0.00000000000E+00 -0.14489499163E+04  0.15219953301E+04  0.46584753381E+03 0.  0.
      99925    2    3    3    0    0 -0.25173470632E+02 -0.10751734341E+03 -0.10806553303E+04  0.11176661413E+04  0.26299805624E+03 0.  0.
         25    1    4    4    0    0  0.26967770585E+02 -0.61690711411E+02 -0.52215044369E+03  0.54112992753E+03  0.12509000000E+03 0.  0.
         25    1    3    3    0    0  0.25173470632E+02  0.10751734341E+03 -0.36829458596E+03  0.40432918879E+03  0.12509000000E+03 0.  0.
         25    1    4    4    0    0 -0.52141241217E+02 -0.45826631994E+02 -0.55850488665E+03  0.57653621374E+03  0.12509000000E+03 0.  0.
<mgrwt>
<rscale>  2 0.46584753E+03</rscale>
<asrwt>0</asrwt>
<pdfrwt beam="1">  1       21 0.53709875E-02 0.46584753E+03</pdfrwt>
<pdfrwt beam="2">  1       21 0.21845181E+00 0.46584753E+03</pdfrwt>
<totfact> 0.21385874E+04</totfact>
</mgrwt>
</event>
<event>
 7    0  0.4737014E-002  0.4535849E+03  0.7546771E-02  0.1026658E+00
         21   -1    0    0  502  501  0.00000000000E+00  0.00000000000E+00  0.16883959235E+04  0.16883959235E+04  0.00000000000E+00 0.  1.
         21   -1    0    0  501  502 -0.00000000000E+00 -0.00000000000E+00 -0.30463720283E+02  0.30463720283E+02  0.00000000000E+00 0.  1.
      99926    2    1    2    0    0 -0.88817841970E-15  0.71054273576E-14  0.16579322032E+04  0.17188596438E+04  0.45358492542E+03 0.  0.
      99925    2    3    3    0    0  0.76732137721E+01  0.43231126381E+02  0.14344193164E+04  0.14589878924E+04  0.26298115217E+03 0.  0.
         25    1    4    4    0    0 -0.27609348604E+02  0.46794819784E+02  0.76403591912E+03  0.77611237917E+03  0.12509000000E+03 0.  0.
         25    1    3    3    0    0 -0.76732137721E+01 -0.43231126381E+02  0.22351288683E+03  0.25987175140E+03  0.12509000000E+03 0.  0.
         25    1    4    4    0    0  0.35282562376E+02 -0.35636934028E+01  0.67038339728E+03  0.68287551323E+03  0.12509000000E+03 0.  0.
<mgrwt>
<rscale>  2 0.45358493E+03</rscale>
<asrwt>0</asrwt>
<pdfrwt beam="1">  1       21 0.24829345E+00 0.45358493E+03</pdfrwt>
<pdfrwt beam="2">  1       21 0.44799600E-02 0.45358493E+03</pdfrwt>
<totfact> 0.19080679E+04</totfact>
</mgrwt>
</event>
<event>
 7    0  0.4737014E-002  0.3986614E+03  0.7546771E-02  0.1044244E+00
         21   -1    0    0  502  501  0.00000000000E+00  0.00000000000E+00  0.68108459428E+03  0.68108459428E+03  0.00000000000E+00 0. -1.
         21   -1    0    0  501  502 -0.00000000000E+00 -0.00000000000E+00 -0.58337420367E+02  0.58337420367E+02  0.00000000000E+00 0. -1.
      99926    2    1    2    0    0 -0.35527136788E-14 -0.26645352591E-14  0.62274717391E+03  0.73942201464E+03  0.39866135144E+03 0.  0.
      99925    2    3    3    0    0 -0.28505862481E+02  0.19765405755E+01  0.47472154475E+03  0.54352513897E+03  0.26313977415E+03 0.  0.
         25    1    3    3    0    0  0.28505862481E+02 -0.19765405755E+01  0.14802562916E+03  0.19589687567E+03  0.12509000000E+03 0.  0.
         25    1    4    4    0    0 -0.10885875015E+02 -0.20257023035E+02  0.30758074409E+03  0.33283970841E+03  0.12509000000E+03 0.  0.
         25    1    4    4    0    0 -0.17619987466E+02  0.22233563611E+02  0.16714080066E+03  0.21068543057E+03  0.12509000000E+03 0.  0.
<mgrwt>
<rscale>  2 0.39866135E+03</rscale>
<asrwt>0</asrwt>
<pdfrwt beam="1">  1       21 0.10015949E+00 0.39866135E+03</pdfrwt>
<pdfrwt beam="2">  1       21 0.85790328E-02 0.39866135E+03</pdfrwt>
<totfact> 0.81255474E+04</totfact>
</mgrwt>
</event>
<event>
 7    0  0.4737014E-002  0.4614234E+03  0.7546771E-02  0.1024369E+00
         21   -1    0    0  502  501  0.00000000000E+00  0.00000000000E+00  0.19974871729E+03  0.19974871729E+03  0.00000000000E+00 0.  1.
         21   -1    0    0  501  502 -0.00000000000E+00 -0.00000000000E+00 -0.26647429401E+03  0.26647429401E+03  0.00000000000E+00 0.  1.
      99926    2    1    2    0    0  0.00000000000E+00  0.71054273576E-14 -0.66725576719E+02  0.46622301129E+03  0.46142344292E+03 0.  0.
      99925    2    3    3    0    0 -0.34600248473E+02 -0.46721323394E+02  0.63114504805E+02  0.27678696899E+03  0.26314924707E+03 0.  0.
         25    1    4    4    0    0 -0.36782592342E+02 -0.59891133599E+02  0.28154849317E+02  0.14621939209E+03  0.12509000000E+03 0.  0.
         25    1    4    4    0    0  0.21823438696E+01  0.13169810205E+02  0.34959655488E+02  0.13056757690E+03  0.12509000000E+03 0.  0.
         25    1    3    3    0    0  0.34600248473E+02  0.46721323394E+02 -0.12984008152E+03  0.18943604230E+03  0.12509000000E+03 0.  0.
<mgrwt>
<rscale>  2 0.46142344E+03</rscale>
<asrwt>0</asrwt>
<pdfrwt beam="1">  1       21 0.29374811E-01 0.46142344E+03</pdfrwt>
<pdfrwt beam="2">  1       21 0.39187396E-01 0.46142344E+03</pdfrwt>
<totfact> 0.64368397E+04</totfact>
</mgrwt>
</event>
<event>
 7    0  0.4737014E-002  0.4316018E+03  0.7546771E-02  0.1033355E+00
         21   -1    0    0  502  501  0.00000000000E+00  0.00000000000E+00  0.81883374213E+03  0.81883374213E+03  0.00000000000E+00 0.  1.
         21   -1    0    0  501  502 -0.00000000000E+00 -0.00000000000E+00 -0.56873609304E+02  0.56873609304E+02  0.00000000000E+00 0.  1.
      99926    2    1    2    0    0  0.44408920985E-15 -0.14210854715E-13  0.76196013283E+03  0.87570735143E+03  0.43160180877E+03 0.  0.
      99925    2    3    3    0    0 -0.21168001123E+01 -0.63444437288E+02  0.36296365954E+03  0.45277074713E+03  0.26311414604E+03 0.  0.
         25    1    4    4    0    0  0.88828068509E+01 -0.70829013957E+02  0.17579413420E+03  0.22725918946E+03  0.12509000000E+03 0.  0.
         25    1    3    3    0    0  0.21168001123E+01  0.63444437288E+02  0.39899647328E+03  0.42293660430E+03  0.12509000000E+03 0.  0.
         25    1    4    4    0    0 -0.10999606963E+02  0.73845766690E+01  0.18716952534E+03  0.22551155767E+03  0.12509000000E+03 0.  0.
<mgrwt>
<rscale>  2 0.43160181E+03</rscale>
<asrwt>0</asrwt>
<pdfrwt beam="1">  1       21 0.12041672E+00 0.43160181E+03</pdfrwt>
<pdfrwt beam="2">  1       21 0.83637666E-02 0.43160181E+03</pdfrwt>
<totfact> 0.53438728E+04</totfact>
</mgrwt>
</event>
<event>
 7    0  0.4737014E-002  0.3984680E+03  0.7546771E-02  0.1044311E+00
         21   -1    0    0  502  501  0.00000000000E+00  0.00000000000E+00  0.10180023884E+04  0.10180023884E+04  0.00000000000E+00 0. -1.
         21   -1    0    0  501  502 -0.00000000000E+00 -0.00000000000E+00 -0.38992239537E+02  0.38992239537E+02  0.00000000000E+00 0. -1.
      99926    2    1    2    0    0  0.00000000000E+00  0.00000000000E+00  0.97901014885E+03  0.10569946279E+04  0.39846803123E+03 0.  0.
      99925    2    3    3    0    0 -0.11065913323E+02  0.16931743935E+02  0.55487135858E+03  0.61433182183E+03  0.26289203934E+03 0.  0.
         25    1    3    3    0    0  0.11065913323E+02 -0.16931743935E+02  0.42413879026E+03  0.44266280609E+03  0.12509000000E+03 0.  0.
         25    1    4    4    0    0  0.45352856985E+01 -0.19344264868E+02  0.20852883212E+03  0.24398063720E+03  0.12509000000E+03 0.  0.
         25    1    4    4    0    0 -0.15601199022E+02  0.36276008803E+02  0.34634252646E+03  0.37035118463E+03  0.12509000000E+03 0.  0.
<mgrwt>
<rscale>  2 0.39846803E+03</rscale>
<asrwt>0</asrwt>
<pdfrwt beam="1">  1       21 0.14970622E+00 0.39846803E+03</pdfrwt>
<pdfrwt beam="2">  1       21 0.57341535E-02 0.39846803E+03</pdfrwt>
<totfact> 0.59103102E+04</totfact>
</mgrwt>
</event>
<event>
 7    0  0.4737014E-002  0.4506590E+03  0.7546771E-02  0.1027526E+00
         21   -1    0    0  502  501  0.00000000000E+00  0.00000000000E+00  0.36091269982E+03  0.36091269982E+03  0.00000000000E+00 0. -1.
         21   -1    0    0  501  502 -0.00000000000E+00 -0.00000000000E+00 -0.14068049167E+03  0.14068049167E+03  0.00000000000E+00 0. -1.
      99926    2    1    2    0    0  0.00000000000E+00  0.00000000000E+00  0.22023220814E+03  0.50159319149E+03  0.45065896668E+03 0.  0.
      99925    2    3    3    0    0  0.16968294173E+02 -0.82952521908E+02  0.21559164317E+03  0.35047043728E+03  0.26302229355E+03 0.  0.
         25    1    4    4    0    0  0.26331351537E+02 -0.51978888728E+02  0.15571925123E+03  0.20806522595E+03  0.12509000000E+03 0.  0.
         25    1    3    3    0    0 -0.16968294173E+02  0.82952521908E+02  0.46405649713E+01  0.15112275421E+03  0.12509000000E+03 0.  0.
         25    1    4    4    0    0 -0.93630573644E+01 -0.30973633180E+02  0.59872391942E+02  0.14240521132E+03  0.12509000000E+03 0.  0.
<mgrwt>
<rscale>  2 0.45065897E+03</rscale>
<asrwt>0</asrwt>
<pdfrwt beam="1">  1       21 0.53075397E-01 0.45065897E+03</pdfrwt>
<pdfrwt beam="2">  1       21 0.20688308E-01 0.45065897E+03</pdfrwt>
<totfact> 0.67453307E+04</totfact>
</mgrwt>
</event>
<event>
 7    0  0.4737014E-002  0.4475095E+03  0.7546771E-02  0.1028467E+00
         21   -1    0    0  502  501  0.00000000000E+00  0.00000000000E+00  0.25447971249E+03  0.25447971249E+03  0.00000000000E+00 0. -1.
         21   -1    0    0  501  502 -0.00000000000E+00 -0.00000000000E+00 -0.19673937831E+03  0.19673937831E+03  0.00000000000E+00 0. -1.
      99926    2    1    2    0    0  0.00000000000E+00 -0.14210854715E-13  0.57740334184E+02  0.45121909080E+03  0.44750946550E+03 0.  0.
      99925    2    3    3    0    0 -0.80493639830E+02  0.66107362289E+02  0.58282309483E+02  0.28843945067E+03  0.26258537603E+03 0.  0.
         25    1    4    4    0    0 -0.49865632635E+02 -0.30546094244E+00  0.74067137679E+01  0.13486675696E+03  0.12509000000E+03 0.  0.
         25    1    4    4    0    0 -0.30628007195E+02  0.66412823231E+02  0.50875595715E+02  0.15357269371E+03  0.12509000000E+03 0.  0.
         25    1    3    3    0    0  0.80493639830E+02 -0.66107362289E+02 -0.54197529873E+00  0.16277964012E+03  0.12509000000E+03 0.  0.
<mgrwt>
<rscale>  2 0.44750947E+03</rscale>
<asrwt>0</asrwt>
<pdfrwt beam="1">  1       21 0.37423487E-01 0.44750947E+03</pdfrwt>
<pdfrwt beam="2">  1       21 0.28932261E-01 0.44750947E+03</pdfrwt>
<totfact> 0.73095050E+04</totfact>
</mgrwt>
</event>
<event>
 7    0  0.4737014E-002  0.4075681E+03  0.7546771E-02  0.1041190E+00
         21   -1    0    0  502  501  0.00000000000E+00  0.00000000000E+00  0.64751100727E+03  0.64751100727E+03  0.00000000000E+00 0.  1.
         21   -1    0    0  501  502 -0.00000000000E+00 -0.00000000000E+00 -0.64134733402E+02  0.64134733402E+02  0.00000000000E+00 0.  1.
      99926    2    1    2    0    0  0.00000000000E+00  0.88817841970E-15  0.58337627387E+03  0.71164574067E+03  0.40756813333E+03 0.  0.
      99925    2    3    3    0    0  0.30944241884E+02 -0.52652990971E+01  0.29924381000E+03  0.39961363559E+03  0.26298085566E+03 0.  0.
         25    1    4    4    0    0  0.27980315761E+02 -0.38926960699E+02  0.13222785610E+03  0.18822837291E+03  0.12509000000E+03 0.  0.
         25    1    3    3    0    0 -0.30944241884E+02  0.52652990971E+01  0.28413246387E+03  0.31203210509E+03  0.12509000000E+03 0.  0.
         25    1    4    4    0    0  0.29639261235E+01  0.33661661602E+02  0.16701595390E+03  0.21138526267E+03  0.12509000000E+03 0.  0.
<mgrwt>
<rscale>  2 0.40756813E+03</rscale>
<asrwt>0</asrwt>
<pdfrwt beam="1">  1       21 0.95222203E-01 0.40756813E+03</pdfrwt>
<pdfrwt beam="2">  1       21 0.94315788E-02 0.40756813E+03</pdfrwt>
<totfact> 0.77344224E+04</totfact>
</mgrwt>
</event>
<event>
 7    0  0.4737014E-002  0.4466182E+03  0.7546771E-02  0.1028735E+00
         21   -1    0    0  502  501  0.00000000000E+00  0.00000000000E+00  0.27252674768E+03  0.27252674768E+03  0.00000000000E+00 0. -1.
         21   -1    0    0  501  502 -0.00000000000E+00 -0.00000000000E+00 -0.18298000342E+03  0.18298000342E+03  0.00000000000E+00 0. -1.
      99926    2    1    2    0    0 -0.35527136788E-14  0.00000000000E+00  0.89546744261E+02  0.45550675110E+03  0.44661816005E+03 0.  0.
      99925    2    3    3    0    0  0.22505997663E+02  0.87754201170E+02  0.11124120509E+03  0.29954048075E+03  0.26294975593E+03 0.  0.
         25    1    4    4    0    0  0.42945018514E+02  0.23748050710E+02  0.37319908931E+02  0.13945798016E+03  0.12509000000E+03 0.  0.
         25    1    3    3    0    0 -0.22505997663E+02 -0.87754201170E+02 -0.21694460830E+02  0.15596627034E+03  0.12509000000E+03 0.  0.
         25    1    4    4    0    0 -0.20439020851E+02  0.64006150460E+02  0.73921296161E+02  0.16008250059E+03  0.12509000000E+03 0.  0.
<mgrwt>
<rscale>  2 0.44661816E+03</rscale>
<asrwt>0</asrwt>
<pdfrwt beam="1">  1       21 0.40077463E-01 0.44661816E+03</pdfrwt>
<pdfrwt beam="2">  1       21 0.26908824E-01 0.44661816E+03</pdfrwt>
<totfact> 0.73281958E+04</totfact>
</mgrwt>
</event>
<event>
 7    0  0.4737014E-002  0.4564611E+03  0.7546771E-02  0.1025813E+00
         21   -1    0    0  502  501  0.00000000000E+00  0.00000000000E+00  0.46403878803E+03  0.46403878803E+03  0.00000000000E+00 0. -1.
         21   -1    0    0  501  502 -0.00000000000E+00 -0.00000000000E+00 -0.11225178851E+03  0.11225178851E+03  0.00000000000E+00 0. -1.
      99926    2    1    2    0    0  0.00000000000E+00  0.17763568394E-14  0.35178699952E+03  0.57629057654E+03  0.45646109974E+03 0.  0.
      99925    2    3    3    0    0  0.91129451602E+02 -0.15633527960E+02  0.13565240874E+03  0.31000003300E+03  0.26296284969E+03 0.  0.
         25    1    3    3    0    0 -0.91129451602E+02  0.15633527960E+02  0.21613459078E+03  0.26629054354E+03  0.12509000000E+03 0.  0.
         25    1    4    4    0    0  0.10478953485E+02 -0.28232777472E+02  0.51755401762E+02  0.13868319257E+03  0.12509000000E+03 0.  0.
         25    1    4    4    0    0  0.80650498117E+02  0.12599249512E+02  0.83897006983E+02  0.17131684043E+03  0.12509000000E+03 0.  0.
<mgrwt>
<rscale>  2 0.45646110E+03</rscale>
<asrwt>0</asrwt>
<pdfrwt beam="1">  1       21 0.68240998E-01 0.45646110E+03</pdfrwt>
<pdfrwt beam="2">  1       21 0.16507616E-01 0.45646110E+03</pdfrwt>
<totfact> 0.59471888E+04</totfact>
</mgrwt>
</event>
<event>
 7    0  0.4737014E-002  0.4441298E+03  0.7546771E-02  0.1029487E+00
         21   -1    0    0  502  501  0.00000000000E+00  0.00000000000E+00  0.22024739216E+03  0.22024739216E+03  0.00000000000E+00 0. -1.
         21   -1    0    0  501  502 -0.00000000000E+00 -0.00000000000E+00 -0.22389737823E+03  0.22389737823E+03  0.00000000000E+00 0. -1.
      99926    2    1    2    0    0  0.00000000000E+00  0.14210854715E-13 -0.36499860785E+01  0.44414477039E+03  0.44412977233E+03 0.  0.
      99925    2    3    3    0    0  0.40239714765E+02  0.92657872222E+02  0.15773796257E+02  0.28218950697E+03  0.26301594869E+03 0.  0.
         25    1    3    3    0    0 -0.40239714765E+02 -0.92657872222E+02 -0.19423782336E+02  0.16195526342E+03  0.12509000000E+03 0.  0.
         25    1    4    4    0    0  0.38806442343E+02  0.25045788802E+02  0.37074673966E+02  0.13840256881E+03  0.12509000000E+03 0.  0.
         25    1    4    4    0    0  0.14332724214E+01  0.67612083420E+02 -0.21300877709E+02  0.14378693816E+03  0.12509000000E+03 0.  0.
<mgrwt>
<rscale>  2 0.44412977E+03</rscale>
<asrwt>0</asrwt>
<pdfrwt beam="1">  1       21 0.32389322E-01 0.44412977E+03</pdfrwt>
<pdfrwt beam="2">  1       21 0.32926085E-01 0.44412977E+03</pdfrwt>
<totfact> 0.75704557E+04</totfact>
</mgrwt>
</event>
<event>
 7    0  0.4737014E-002  0.4812276E+03  0.7546771E-02  0.1018798E+00
         21   -1    0    0  502  501  0.00000000000E+00  0.00000000000E+00  0.41187231655E+03  0.41187231655E+03  0.00000000000E+00 0.  1.
         21   -1    0    0  501  502 -0.00000000000E+00 -0.00000000000E+00 -0.14056538528E+03  0.14056538528E+03  0.00000000000E+00 0.  1.
      99926    2    1    2    0    0  0.00000000000E+00  0.00000000000E+00  0.27130693127E+03  0.55243770184E+03  0.48122755891E+03 0.  0.
      99925    2    3    3    0    0 -0.10986182735E+03  0.79384739756E+02  0.17843294916E+03  0.34593190853E+03  0.26355077306E+03 0.  0.
         25    1    4    4    0    0 -0.98242855326E+02  0.37905202269E+02  0.88104573724E+02  0.18573741409E+03  0.12509000000E+03 0.  0.
         25    1    4    4    0    0 -0.11618972028E+02  0.41479537487E+02  0.90328375436E+02  0.16019449444E+03  0.12509000000E+03 0.  0.
         25    1    3    3    0    0  0.10986182735E+03 -0.79384739756E+02  0.92873982109E+02  0.20650579331E+03  0.12509000000E+03 0.  0.
<mgrwt>
<rscale>  2 0.48122756E+03</rscale>
<asrwt>0</asrwt>
<pdfrwt beam="1">  1       21 0.60569458E-01 0.48122756E+03</pdfrwt>
<pdfrwt beam="2">  1       21 0.20671380E-01 0.48122756E+03</pdfrwt>
<totfact> 0.50395117E+04</totfact>
</mgrwt>
</event>
<event>
 7    0  0.4737014E-002  0.4473683E+03  0.7546771E-02  0.1028510E+00
         21   -1    0    0  502  501  0.00000000000E+00  0.00000000000E+00  0.10741192073E+04  0.10741192073E+04  0.00000000000E+00 0. -1.
         21   -1    0    0  501  502 -0.00000000000E+00 -0.00000000000E+00 -0.46581986358E+02  0.46581986358E+02  0.00000000000E+00 0. -1.
      99926    2    1    2    0    0  0.00000000000E+00  0.00000000000E+00  0.10275372209E+04  0.11207011937E+04  0.44736833264E+03 0.  0.
      99925    2    3    3    0    0 -0.10443141511E+03  0.15147161461E+02  0.63237155946E+03  0.69298777900E+03  0.26306447056E+03 0.  0.
         25    1    3    3    0    0  0.10443141511E+03 -0.15147161461E+02  0.39516566149E+03  0.42771341466E+03  0.12509000000E+03 0.  0.
         25    1    4    4    0    0 -0.41161485251E+02 -0.60180165013E+01  0.21500577482E+03  0.25220126030E+03  0.12509000000E+03 0.  0.
         25    1    4    4    0    0 -0.63269929857E+02  0.21165177963E+02  0.41736578464E+03  0.44078651870E+03  0.12509000000E+03 0.  0.
<mgrwt>
<rscale>  2 0.44736833E+03</rscale>
<asrwt>0</asrwt>
<pdfrwt beam="1">  1       21 0.15795869E+00 0.44736833E+03</pdfrwt>
<pdfrwt beam="2">  1       21 0.68502928E-02 0.44736833E+03</pdfrwt>
<totfact> 0.36924229E+04</totfact>
</mgrwt>
</event>
<event>
 7    0  0.4737014E-002  0.4579071E+03  0.7546771E-02  0.1025390E+00
         21   -1    0    0  502  501  0.00000000000E+00  0.00000000000E+00  0.30659793177E+03  0.30659793177E+03  0.00000000000E+00 0.  1.
         21   -1    0    0  501  502 -0.00000000000E+00 -0.00000000000E+00 -0.17097224426E+03  0.17097224426E+03  0.00000000000E+00 0.  1.
      99926    2    1    2    0    0  0.00000000000E+00  0.00000000000E+00  0.13562568751E+03  0.47757017604E+03  0.45790713680E+03 0.  0.
      99925    2    3    3    0    0 -0.87808877438E+02  0.24871134829E+02  0.15955247895E+03  0.32088906118E+03  0.26302818051E+03 0.  0.
         25    1    4    4    0    0 -0.84450029869E+02  0.20457845760E+02  0.74757933907E+02  0.16966610675E+03  0.12509000000E+03 0.  0.
         25    1    3    3    0    0  0.87808877438E+02 -0.24871134829E+02 -0.23926791440E+02  0.15668111486E+03  0.12509000000E+03 0.  0.
         25    1    4    4    0    0 -0.33588475688E+01  0.44132890692E+01  0.84794545042E+02  0.15122295443E+03  0.12509000000E+03 0.  0.
<mgrwt>
<rscale>  2 0.45790714E+03</rscale>
<asrwt>0</asrwt>
<pdfrwt beam="1">  1       21 0.45087931E-01 0.45790714E+03</pdfrwt>
<pdfrwt beam="2">  1       21 0.25142977E-01 0.45790714E+03</pdfrwt>
<totfact> 0.65356467E+04</totfact>
</mgrwt>
</event>
<event>
 7    0  0.4737014E-002  0.4532085E+03  0.7546771E-02  0.1026770E+00
         21   -1    0    0  502  501  0.00000000000E+00  0.00000000000E+00  0.32469295660E+03  0.32469295660E+03  0.00000000000E+00 0.  1.
         21   -1    0    0  501  502 -0.00000000000E+00 -0.00000000000E+00 -0.15814780314E+03  0.15814780314E+03  0.00000000000E+00 0.  1.
      99926    2    1    2    0    0  0.00000000000E+00 -0.71054273576E-14  0.16654515345E+03  0.48284075974E+03  0.45320846321E+03 0.  0.
      99925    2    3    3    0    0  0.78826526620E+02 -0.60060187298E+02  0.50519122276E+02  0.28553289014E+03  0.26297528826E+03 0.  0.
         25    1    4    4    0    0  0.57367642126E+02 -0.64762676507E+02  0.44132582294E+02  0.15836806355E+03  0.12509000000E+03 0.  0.
         25    1    4    4    0    0  0.21458884494E+02  0.47024892088E+01  0.63865399822E+01  0.12716482659E+03  0.12509000000E+03 0.  0.
         25    1    3    3    0    0 -0.78826526620E+02  0.60060187298E+02  0.11602603118E+03  0.19730786960E+03  0.12509000000E+03 0.  0.
<mgrwt>
<rscale>  2 0.45320846E+03</rscale>
<asrwt>0</asrwt>
<pdfrwt beam="1">  1       21 0.47748964E-01 0.45320846E+03</pdfrwt>
<pdfrwt beam="2">  1       21 0.23257030E-01 0.45320846E+03</pdfrwt>
<totfact> 0.67448018E+04</totfact>
</mgrwt>
</event>
<event>
 7    0  0.4737014E-002  0.4570678E+03  0.7546771E-02  0.1025635E+00
         21   -1    0    0  502  501  0.00000000000E+00  0.00000000000E+00  0.80871810875E+02  0.80871810875E+02  0.00000000000E+00 0.  1.
         21   -1    0    0  501  502 -0.00000000000E+00 -0.00000000000E+00 -0.64580888370E+03  0.64580888370E+03  0.00000000000E+00 0.  1.
      99926    2    1    2    0    0  0.00000000000E+00 -0.14210854715E-13 -0.56493707282E+03  0.72668069457E+03  0.45706775823E+03 0.  0.
      99925    2    3    3    0    0  0.75427045590E+02 -0.86867806393E+02 -0.35069576753E+03  0.45321753437E+03  0.26302729346E+03 0.  0.
         25    1    4    4    0    0  0.32738214336E+02 -0.84195964361E+02 -0.20325406856E+03  0.25518713835E+03  0.12509000000E+03 0.  0.
         25    1    4    4    0    0  0.42688831253E+02 -0.26718420318E+01 -0.14744169897E+03  0.19803039602E+03  0.12509000000E+03 0.  0.
         25    1    3    3    0    0 -0.75427045590E+02  0.86867806393E+02 -0.21424130529E+03  0.27346316020E+03  0.12509000000E+03 0.  0.
<mgrwt>
<rscale>  2 0.45706776E+03</rscale>
<asrwt>0</asrwt>
<pdfrwt beam="1">  1       21 0.11892913E-01 0.45706776E+03</pdfrwt>
<pdfrwt beam="2">  1       21 0.94971895E-01 0.45706776E+03</pdfrwt>
<totfact> 0.50649567E+04</totfact>
</mgrwt>
</event>
<event>
 7    0  0.4737014E-002  0.4766420E+03  0.7546771E-02  0.1020062E+00
         21   -1    0    0  502  501  0.00000000000E+00  0.00000000000E+00  0.56052621448E+02  0.56052621448E+02  0.00000000000E+00 0.  1.
         21   -1    0    0  501  502 -0.00000000000E+00 -0.00000000000E+00 -0.10132783200E+04  0.10132783200E+04  0.00000000000E+00 0.  1.
      99926    2    1    2    0    0  0.00000000000E+00  0.53290705182E-14 -0.95722569855E+03  0.10693309414E+04  0.47664202959E+03 0.  0.
      99925    2    3    3    0    0 -0.96002638280E+02 -0.15626294905E+02 -0.79357285201E+03  0.84153618749E+03  0.26261111126E+03 0.  0.
         25    1    4    4    0    0 -0.55841810573E+02  0.21399812648E+02 -0.32142931873E+03  0.35005795924E+03  0.12509000000E+03 0.  0.
         25    1    3    3    0    0  0.96002638280E+02  0.15626294905E+02 -0.16365284653E+03  0.22779475395E+03  0.12509000000E+03 0.  0.
         25    1    4    4    0    0 -0.40160827707E+02 -0.37026107553E+02 -0.47214353329E+03  0.49147822825E+03  0.12509000000E+03 0.  0.
<mgrwt>
<rscale>  2 0.47664203E+03</rscale>
<asrwt>0</asrwt>
<pdfrwt beam="1">  1       21 0.82430331E-02 0.47664203E+03</pdfrwt>
<pdfrwt beam="2">  1       21 0.14901151E+00 0.47664203E+03</pdfrwt>
<totfact> 0.30999869E+04</totfact>
</mgrwt>
</event>
<event>
 7    0  0.4737014E-002  0.4498699E+03  0.7546771E-02  0.1027761E+00
         21   -1    0    0  502  501  0.00000000000E+00  0.00000000000E+00  0.45736247111E+02  0.45736247111E+02  0.00000000000E+00 0. -1.
         21   -1    0    0  501  502 -0.00000000000E+00 -0.00000000000E+00 -0.11062502122E+04  0.11062502122E+04  0.00000000000E+00 0. -1.
      99926    2    1    2    0    0  0.00000000000E+00 -0.71054273576E-14 -0.10605139651E+04  0.11519864594E+04  0.44986990597E+03 0.  0.
      99925    2    3    3    0    0 -0.83241338913E+02 -0.63416080986E+02 -0.59846520905E+03  0.66199943817E+03  0.26292951501E+03 0.  0.
         25    1    3    3    0    0  0.83241338913E+02  0.63416080986E+02 -0.46204875608E+03  0.48998702118E+03  0.12509000000E+03 0.  0.
         25    1    4    4    0    0 -0.47935934768E+02 -0.67387106829E+02 -0.27214659459E+03  0.31072520505E+03  0.12509000000E+03 0.  0.
         25    1    4    4    0    0 -0.35305404145E+02  0.39710258432E+01 -0.32631861446E+03  0.35127423312E+03  0.12509000000E+03 0.  0.
<mgrwt>
<rscale>  2 0.44986991E+03</rscale>
<asrwt>0</asrwt>
<pdfrwt beam="1">  1       21 0.67259198E-02 0.44986991E+03</pdfrwt>
<pdfrwt beam="2">  1       21 0.16268383E+00 0.44986991E+03</pdfrwt>
<totfact> 0.35098547E+04</totfact>
</mgrwt>
</event>
<event>
 7    0  0.4737014E-002  0.4523331E+03  0.7546771E-02  0.1027029E+00
         21   -1    0    0  502  501  0.00000000000E+00  0.00000000000E+00  0.13565064834E+03  0.13565064834E+03  0.00000000000E+00 0. -1.
         21   -1    0    0  501  502 -0.00000000000E+00 -0.00000000000E+00 -0.37708114582E+03  0.37708114582E+03  0.00000000000E+00 0. -1.
      99926    2    1    2    0    0 -0.71054273576E-14  0.71054273576E-14 -0.24143049749E+03  0.51273179416E+03  0.45233307156E+03 0.  0.
      99925    2    3    3    0    0 -0.48352323005E+02  0.56244714019E+02 -0.24515431519E+03  0.36725743245E+03  0.26320328350E+03 0.  0.
         25    1    4    4    0    0 -0.20986469709E+02  0.69605122821E+02 -0.12704035632E+03  0.19254107424E+03  0.12509000000E+03 0.  0.
         25    1    4    4    0    0 -0.27365853296E+02 -0.13360408803E+02 -0.11811395886E+03  0.17471635822E+03  0.12509000000E+03 0.  0.
         25    1    3    3    0    0  0.48352323005E+02 -0.56244714019E+02  0.37238176994E+01  0.14547436170E+03  0.12509000000E+03 0.  0.
<mgrwt>
<rscale>  2 0.45233307E+03</rscale>
<asrwt>0</asrwt>
<pdfrwt beam="1">  1       21 0.19948625E-01 0.45233307E+03</pdfrwt>
<pdfrwt beam="2">  1       21 0.55453109E-01 0.45233307E+03</pdfrwt>
<totfact> 0.65765965E+04</totfact>
</mgrwt>
</event>
<event>
 7    0  0.4737014E-002  0.4006162E+03  0.7546771E-02  0.1043567E+00
         21   -1    0    0  502  501  0.00000000000E+00  0.00000000000E+00  0.41205127272E+03  0.41205127272E+03  0.00000000000E+00 0. -1.
         21   -1    0    0  501  502 -0.00000000000E+00 -0.00000000000E+00 -0.97374638209E+02  0.97374638209E+02  0.00000000000E+00 0. -1.
      99926    2    1    2    0    0  0.00000000000E+00  0.00000000000E+00  0.31467663451E+03  0.50942591093E+03  0.40061624333E+03 0.  0.
      99925    2    3    3    0    0  0.74564595088E+01 -0.30451627973E+02  0.16577170522E+03  0.31244092038E+03  0.26297560731E+03 0.  0.
         25    1    3    3    0    0 -0.74564595088E+01  0.30451627973E+02  0.14890492930E+03  0.19698499055E+03  0.12509000000E+03 0.  0.
         25    1    4    4    0    0 -0.16771423756E+02  0.10416980908E+02  0.52360849215E+02  0.13703634838E+03  0.12509000000E+03 0.  0.
         25    1    4    4    0    0  0.24227883265E+02 -0.40868608880E+02  0.11341085600E+03  0.17540457200E+03  0.12509000000E+03 0.  0.
<mgrwt>
<rscale>  2 0.40061624E+03</rscale>
<asrwt>0</asrwt>
<pdfrwt beam="1">  1       21 0.60595774E-01 0.40061624E+03</pdfrwt>
<pdfrwt beam="2">  1       21 0.14319800E-01 0.40061624E+03</pdfrwt>
<totfact> 0.10194622E+05</totfact>
</mgrwt>
</event>
<event>
 7    0  0.4737014E-002  0.4579821E+03  0.7546771E-02  0.1025368E+00
         21   -1    0    0  502  501  0.00000000000E+00  0.00000000000E+00  0.64111177897E+02  0.64111177897E+02  0.00000000000E+00 0. -1.
         21   -1    0    0  501  502 -0.00000000000E+00 -0.00000000000E+00 -0.81790579442E+03  0.81790579442E+03  0.00000000000E+00 0. -1.
      99926    2    1    2    0    0  0.71054273576E-14  0.17763568394E-14 -0.75379461652E+03  0.88201697231E+03  0.45798211270E+03 0.  0.
      99925    2    3    3    0    0  0.46673183377E+02  0.81282389108E+01 -0.67682226786E+03  0.72769035480E+03  0.26305971924E+03 0.  0.
         25    1    3    3    0    0 -0.46673183377E+02 -0.81282389108E+01 -0.76972348657E+02  0.15432661751E+03  0.12509000000E+03 0.  0.
         25    1    4    4    0    0  0.53968864176E+02  0.31400654714E+02 -0.34787124376E+03  0.37491405649E+03  0.12509000000E+03 0.  0.
         25    1    4    4    0    0 -0.72956807993E+01 -0.23272415803E+02 -0.32895102410E+03  0.35277629831E+03  0.12509000000E+03 0.  0.
<mgrwt>
<rscale>  2 0.45798211E+03</rscale>
<asrwt>0</asrwt>
<pdfrwt beam="1">  1       21 0.94281144E-02 0.45798211E+03</pdfrwt>
<pdfrwt beam="2">  1       21 0.12028026E+00 0.45798211E+03</pdfrwt>
<totfact> 0.43007112E+04</totfact>
</mgrwt>
</event>
<event>
 7    0  0.4737014E-002  0.4040219E+03  0.7546771E-02  0.1042396E+00
         21   -1    0    0  502  501  0.00000000000E+00  0.00000000000E+00  0.48397649787E+03  0.48397649787E+03  0.00000000000E+00 0. -1.
         21   -1    0    0  501  502 -0.00000000000E+00 -0.00000000000E+00 -0.84319005810E+02  0.84319005810E+02  0.00000000000E+00 0. -1.
      99926    2    1    2    0    0  0.00000000000E+00  0.66613381478E-15  0.39965749206E+03  0.56829550368E+03  0.40402186642E+03 0.  0.
      99925    2    3    3    0    0  0.12747354514E+02 -0.11483889096E+01  0.33738546847E+03  0.42797755449E+03  0.26300573942E+03 0.  0.
         25    1    3    3    0    0 -0.12747354514E+02  0.11483889096E+01  0.62272023595E+02  0.14031794920E+03  0.12509000000E+03 0.  0.
         25    1    4    4    0    0 -0.21486105278E+02 -0.26467186196E+02  0.14410015854E+03  0.19384150344E+03  0.12509000000E+03 0.  0.
         25    1    4    4    0    0  0.34233459791E+02  0.25318797286E+02  0.19328530992E+03  0.23413605104E+03  0.12509000000E+03 0.  0.
<mgrwt>
<rscale>  2 0.40402187E+03</rscale>
<asrwt>0</asrwt>
<pdfrwt beam="1">  1       21 0.71173014E-01 0.40402187E+03</pdfrwt>
<pdfrwt beam="2">  1       21 0.12399854E-01 0.40402187E+03</pdfrwt>
<totfact> 0.92790695E+04</totfact>
</mgrwt>
</event>
<event>
 7    0  0.4737014E-002  0.4538389E+03  0.7546771E-02  0.1026583E+00
         21   -1    0    0  502  501  0.00000000000E+00  0.00000000000E+00  0.26177893058E+03  0.26177893058E+03  0.00000000000E+00 0. -1.
         21   -1    0    0  501  502 -0.00000000000E+00 -0.00000000000E+00 -0.19670201764E+03  0.19670201764E+03  0.00000000000E+00 0. -1.
      99926    2    1    2    0    0 -0.71054273576E-14  0.00000000000E+00  0.65076912937E+02  0.45848094822E+03  0.45383893099E+03 0.  0.
      99925    2    3    3    0    0  0.47005096336E+02  0.88425922056E+02 -0.10080685191E+02  0.28149282594E+03  0.26288394410E+03 0.  0.
         25    1    4    4    0    0  0.14282110794E+02  0.61529194660E+02 -0.40697251385E+02  0.14592324988E+03  0.12509000000E+03 0.  0.
         25    1    3    3    0    0 -0.47005096336E+02 -0.88425922056E+02  0.75157598128E+02  0.17698812228E+03  0.12509000000E+03 0.  0.
         25    1    4    4    0    0  0.32722985542E+02  0.26896727396E+02  0.30616566193E+02  0.13556957606E+03  0.12509000000E+03 0.  0.
<mgrwt>
<rscale>  2 0.45383893E+03</rscale>
<asrwt>0</asrwt>
<pdfrwt beam="1">  1       21 0.38496902E-01 0.45383893E+03</pdfrwt>
<pdfrwt beam="2">  1       21 0.28926767E-01 0.45383893E+03</pdfrwt>
<totfact> 0.68927427E+04</totfact>
</mgrwt>
</event>
<event>
 7    0  0.4737014E-002  0.4274458E+03  0.7546771E-02  0.1034670E+00
         21   -1    0    0  502  501  0.00000000000E+00  0.00000000000E+00  0.27019837040E+03  0.27019837040E+03  0.00000000000E+00 0.  1.
         21   -1    0    0  501  502 -0.00000000000E+00 -0.00000000000E+00 -0.16905164456E+03  0.16905164456E+03  0.00000000000E+00 0.  1.
      99926    2    1    2    0    0  0.14210854715E-13 -0.53290705182E-14  0.10114672583E+03  0.43925001496E+03  0.42744580416E+03 0.  0.
      99925    2    3    3    0    0 -0.81726098753E+02  0.13584218505E+02  0.46189356268E+02  0.27946419963E+03  0.26287467743E+03 0.  0.
         25    1    4    4    0    0 -0.15441538986E+02 -0.23638981980E+02  0.96844224078E+01  0.12860225011E+03  0.12509000000E+03 0.  0.
         25    1    4    4    0    0 -0.66284559766E+02  0.37223200486E+02  0.36504933860E+02  0.15086194952E+03  0.12509000000E+03 0.  0.
         25    1    3    3    0    0  0.81726098753E+02 -0.13584218505E+02  0.54957369567E+02  0.15978581533E+03  0.12509000000E+03 0.  0.
<mgrwt>
<rscale>  2 0.42744580E+03</rscale>
<asrwt>0</asrwt>
<pdfrwt beam="1">  1       21 0.39735054E-01 0.42744580E+03</pdfrwt>
<pdfrwt beam="2">  1       21 0.24860536E-01 0.42744580E+03</pdfrwt>
<totfact> 0.87384870E+04</totfact>
</mgrwt>
</event>
<event>
 7    0  0.4737014E-002  0.4519889E+03  0.7546771E-02  0.1027131E+00
         21   -1    0    0  502  501  0.00000000000E+00  0.00000000000E+00  0.24701491723E+04  0.24701491723E+04  0.00000000000E+00 0. -1.
         21   -1    0    0  501  502 -0.00000000000E+00 -0.00000000000E+00 -0.20676274211E+02  0.20676274211E+02  0.00000000000E+00 0. -1.
      99926    2    1    2    0    0  0.00000000000E+00  0.35527136788E-14  0.24494728981E+04  0.24908254465E+04  0.45198885662E+03 0.  0.
      99925    2    3    3    0    0 -0.75557274045E+02 -0.22003504087E+02  0.19719392702E+04  0.19909465315E+04  0.26292689077E+03 0.  0.
         25    1    4    4    0    0 -0.61859640091E+02 -0.44285828604E+02  0.10105650358E+04  0.10211155906E+04  0.12509000000E+03 0.  0.
         25    1    3    3    0    0  0.75557274045E+02  0.22003504087E+02  0.47753362781E+03  0.49987891498E+03  0.12509000000E+03 0.  0.
         25    1    4    4    0    0 -0.13697633954E+02  0.22282324517E+02  0.96137423444E+03  0.96983094089E+03  0.12509000000E+03 0.  0.
<mgrwt>
<rscale>  2 0.45198886E+03</rscale>
<asrwt>0</asrwt>
<pdfrwt beam="1">  1       21 0.36325703E+00 0.45198886E+03</pdfrwt>
<pdfrwt beam="2">  1       21 0.30406303E-02 0.45198886E+03</pdfrwt>
<totfact> 0.73977904E+03</totfact>
</mgrwt>
</event>
<event>
 7    0  0.4737014E-002  0.4568516E+03  0.7546771E-02  0.1025698E+00
         21   -1    0    0  502  501  0.00000000000E+00  0.00000000000E+00  0.34274458861E+03  0.34274458861E+03  0.00000000000E+00 0.  1.
         21   -1    0    0  501  502 -0.00000000000E+00 -0.00000000000E+00 -0.15223684008E+03  0.15223684008E+03  0.00000000000E+00 0.  1.
      99926    2    1    2    0    0 -0.14210854715E-13 -0.17763568394E-14  0.19050774852E+03  0.49498142869E+03  0.45685163073E+03 0.  0.
      99925    2    3    3    0    0 -0.11392707930E+03 -0.68262961715E+01  0.10540662569E+03  0.30546708378E+03  0.26300875426E+03 0.  0.
         25    1    4    4    0    0 -0.88721598008E+02 -0.31793471654E+02  0.54459212521E+02  0.16581815558E+03  0.12509000000E+03 0.  0.
         25    1    4    4    0    0 -0.25205481294E+02  0.24967175482E+02  0.50947413168E+02  0.13964892820E+03  0.12509000000E+03 0.  0.
         25    1    3    3    0    0  0.11392707930E+03  0.68262961715E+01  0.85101122833E+02  0.18951434491E+03  0.12509000000E+03 0.  0.
<mgrwt>
<rscale>  2 0.45685163E+03</rscale>
<asrwt>0</asrwt>
<pdfrwt beam="1">  1       21 0.50403616E-01 0.45685163E+03</pdfrwt>
<pdfrwt beam="2">  1       21 0.22387771E-01 0.45685163E+03</pdfrwt>
<totfact> 0.64668853E+04</totfact>
</mgrwt>
</event>
<event>
 7    0  0.4737014E-002  0.4542171E+03  0.7546771E-02  0.1026472E+00
         21   -1    0    0  502  501  0.00000000000E+00  0.00000000000E+00  0.29693247670E+03  0.29693247670E+03  0.00000000000E+00 0.  1.
         21   -1    0    0  501  502 -0.00000000000E+00 -0.00000000000E+00 -0.17370381125E+03  0.17370381125E+03  0.00000000000E+00 0.  1.
      99926    2    1    2    0    0  0.00000000000E+00  0.00000000000E+00  0.12322866545E+03  0.47063628794E+03  0.45421714140E+03 0.  0.
      99925    2    3    3    0    0  0.50750699855E+01 -0.46074123820E+02  0.18369110974E+03  0.32417196980E+03  0.26305220201E+03 0.  0.
         25    1    4    4    0    0 -0.10902843023E+02 -0.36116246960E+02  0.13704586199E+03  0.18934711952E+03  0.12509000000E+03 0.  0.
         25    1    3    3    0    0 -0.50750699855E+01  0.46074123820E+02 -0.60462444286E+02  0.14646431815E+03  0.12509000000E+03 0.  0.
         25    1    4    4    0    0  0.15977913009E+02 -0.99578768600E+01  0.46645247745E+02  0.13482485028E+03  0.12509000000E+03 0.  0.
<mgrwt>
<rscale>  2 0.45421714E+03</rscale>
<asrwt>0</asrwt>
<pdfrwt beam="1">  1       21 0.43666541E-01 0.45421714E+03</pdfrwt>
<pdfrwt beam="2">  1       21 0.25544678E-01 0.45421714E+03</pdfrwt>
<totfact> 0.67808586E+04</totfact>
</mgrwt>
</event>
<event>
 7    0  0.4737014E-002  0.4529908E+03  0.7546771E-02  0.1026834E+00
         21   -1    0    0  502  501  0.00000000000E+00  0.00000000000E+00  0.15183581742E+04  0.15183581742E+04  0.00000000000E+00 0.  1.
         21   -1    0    0  501  502 -0.00000000000E+00 -0.00000000000E+00 -0.33786610791E+02  0.33786610791E+02  0.00000000000E+00 0.  1.
      99926    2    1    2    0    0  0.00000000000E+00  0.17763568394E-14  0.14845715634E+04  0.15521447850E+04  0.45299084615E+03 0.  0.
      99925    2    3    3    0    0 -0.10561023495E+03  0.82984490667E+01  0.82231749599E+03  0.86990557189E+03  0.26326270873E+03 0.  0.
         25    1    3    3    0    0  0.10561023495E+03 -0.82984490667E+01  0.66225406742E+03  0.68223921310E+03  0.12509000000E+03 0.  0.
         25    1    4    4    0    0 -0.50654695849E+02  0.30742413281E+02  0.50644213756E+03  0.52501632450E+03  0.12509000000E+03 0.  0.
         25    1    4    4    0    0 -0.54955539098E+02 -0.22443964214E+02  0.31587535843E+03  0.34488924739E+03  0.12509000000E+03 0.  0.
<mgrwt>
<rscale>  2 0.45299085E+03</rscale>
<asrwt>0</asrwt>
<pdfrwt beam="1">  1       21 0.22328792E+00 0.45299085E+03</pdfrwt>
<pdfrwt beam="2">  1       21 0.49686203E-02 0.45299085E+03</pdfrwt>
<totfact> 0.22884630E+04</totfact>
</mgrwt>
</event>
<event>
 7    0  0.4737014E-002  0.4504238E+03  0.7546771E-02  0.1027596E+00
         21   -1    0    0  502  501  0.00000000000E+00  0.00000000000E+00  0.20203910355E+03  0.20203910355E+03  0.00000000000E+00 0. -1.
         21   -1    0    0  501  502 -0.00000000000E+00 -0.00000000000E+00 -0.25104253931E+03  0.25104253931E+03  0.00000000000E+00 0. -1.
      99926    2    1    2    0    0 -0.17763568394E-14  0.00000000000E+00 -0.49003435755E+02  0.45308164286E+03  0.45042384304E+03 0.  0.
      99925    2    3    3    0    0 -0.14590522689E+02 -0.62976510596E+02 -0.11899430409E+03  0.29583930127E+03  0.26302532869E+03 0.  0.
         25    1    4    4    0    0 -0.30039211628E+00  0.37170083920E+01 -0.33005820112E+02  0.12942487647E+03  0.12509000000E+03 0.  0.
         25    1    3    3    0    0  0.14590522689E+02  0.62976510596E+02  0.69990868331E+02  0.15724234159E+03  0.12509000000E+03 0.  0.
         25    1    4    4    0    0 -0.14290130573E+02 -0.66693518988E+02 -0.85988483974E+02  0.16641442480E+03  0.12509000000E+03 0.  0.
<mgrwt>
<rscale>  2 0.45042384E+03</rscale>
<asrwt>0</asrwt>
<pdfrwt beam="1">  1       21 0.29711633E-01 0.45042384E+03</pdfrwt>
<pdfrwt beam="2">  1       21 0.36918020E-01 0.45042384E+03</pdfrwt>
<totfact> 0.71252682E+04</totfact>
</mgrwt>
</event>
<event>
 7    0  0.4737014E-002  0.4550677E+03  0.7546771E-02  0.1026221E+00
         21   -1    0    0  502  501  0.00000000000E+00  0.00000000000E+00  0.64997873250E+02  0.64997873250E+02  0.00000000000E+00 0. -1.
         21   -1    0    0  501  502 -0.00000000000E+00 -0.00000000000E+00 -0.79651317131E+03  0.79651317131E+03  0.00000000000E+00 0. -1.
      99926    2    1    2    0    0 -0.35527136788E-14  0.00000000000E+00 -0.73151529806E+03  0.86151104456E+03  0.45506774067E+03 0.  0.
      99925    2    3    3    0    0 -0.24667214956E+02 -0.10926446451E+03 -0.48092557451E+03  0.55986570256E+03  0.26384275997E+03 0.  0.
         25    1    3    3    0    0  0.24667214956E+02  0.10926446451E+03 -0.25058972355E+03  0.30164534200E+03  0.12509000000E+03 0.  0.
         25    1    4    4    0    0 -0.10804272338E+02 -0.94099560490E+01 -0.21751739981E+03  0.25132967771E+03  0.12509000000E+03 0.  0.
         25    1    4    4    0    0 -0.13862942618E+02 -0.99854508464E+02 -0.26340817469E+03  0.30853602486E+03  0.12509000000E+03 0.  0.
<mgrwt>
<rscale>  2 0.45506774E+03</rscale>
<asrwt>0</asrwt>
<pdfrwt beam="1">  1       21 0.95585106E-02 0.45506774E+03</pdfrwt>
<pdfrwt beam="2">  1       21 0.11713429E+00 0.45506774E+03</pdfrwt>
<totfact> 0.44904851E+04</totfact>
</mgrwt>
</event>
<event>
 7    0  0.4737014E-002  0.4528482E+03  0.7546771E-02  0.1026876E+00
         21   -1    0    0  502  501  0.00000000000E+00  0.00000000000E+00  0.22301006010E+02  0.22301006010E+02  0.00000000000E+00 0.  1.
         21   -1    0    0  501  502 -0.00000000000E+00 -0.00000000000E+00 -0.22989045521E+04  0.22989045521E+04  0.00000000000E+00 0.  1.
      99926    2    1    2    0    0  0.00000000000E+00  0.00000000000E+00 -0.22766035461E+04  0.23212055582E+04  0.45284824935E+03 0.  0.
      99925    2    3    3    0    0 -0.62338158700E+02 -0.26947021190E+02 -0.18814387379E+04  0.19011877946E+04  0.26474727131E+03 0.  0.
         25    1    4    4    0    0 -0.43993850111E+02 -0.45781217672E+02 -0.11673876850E+04  0.11757860749E+04  0.12509000000E+03 0.  0.
         25    1    3    3    0    0  0.62338158700E+02  0.26947021190E+02 -0.39516480820E+03  0.42001776358E+03  0.12509000000E+03 0.  0.
         25    1    4    4    0    0 -0.18344308589E+02  0.18834196482E+02 -0.71405105298E+03  0.72540171972E+03  0.12509000000E+03 0.  0.
<mgrwt>
<rscale>  2 0.45284825E+03</rscale>
<asrwt>0</asrwt>
<pdfrwt beam="1">  1       21 0.32795617E-02 0.45284825E+03</pdfrwt>
<pdfrwt beam="2">  1       21 0.33807399E+00 0.45284825E+03</pdfrwt>
<totfact> 0.92932274E+03</totfact>
</mgrwt>
</event>
<event>
 7    0  0.4737014E-002  0.4347287E+03  0.7546771E-02  0.1032377E+00
         21   -1    0    0  502  501  0.00000000000E+00  0.00000000000E+00  0.16235428897E+04  0.16235428897E+04  0.00000000000E+00 0. -1.
         21   -1    0    0  501  502 -0.00000000000E+00 -0.00000000000E+00 -0.29101326393E+02  0.29101326393E+02  0.00000000000E+00 0. -1.
      99926    2    1    2    0    0  0.00000000000E+00  0.00000000000E+00  0.15944415633E+04  0.16526442161E+04  0.43472865812E+03 0.  0.
      99925    2    3    3    0    0 -0.76607885902E+02 -0.20601208231E+02  0.83499268456E+03  0.87888502520E+03  0.26255080706E+03 0.  0.
         25    1    4    4    0    0 -0.98233259361E+01  0.11739119757E+02  0.32567559755E+03  0.34920825821E+03  0.12509000000E+03 0.  0.
         25    1    4    4    0    0 -0.66784559965E+02 -0.32340327989E+02  0.50931708701E+03  0.52967676699E+03  0.12509000000E+03 0.  0.
         25    1    3    3    0    0  0.76607885902E+02  0.20601208231E+02  0.75944887877E+03  0.77375919092E+03  0.12509000000E+03 0.  0.
<mgrwt>
<rscale>  2 0.43472866E+03</rscale>
<asrwt>0</asrwt>
<pdfrwt beam="1">  1       21 0.23875625E+00 0.43472866E+03</pdfrwt>
<pdfrwt beam="2">  1       21 0.42796079E-02 0.43472866E+03</pdfrwt>
<totfact> 0.23796919E+04</totfact>
</mgrwt>
</event>
<event>
 7    0  0.4737014E-002  0.4562036E+03  0.7546771E-02  0.1025888E+00
         21   -1    0    0  502  501  0.00000000000E+00  0.00000000000E+00  0.27449476189E+03  0.27449476189E+03  0.00000000000E+00 0. -1.
         21   -1    0    0  501  502 -0.00000000000E+00 -0.00000000000E+00 -0.18954981580E+03  0.18954981580E+03  0.00000000000E+00 0. -1.
      99926    2    1    2    0    0  0.00000000000E+00  0.17763568394E-14  0.84944946084E+02  0.46404457769E+03  0.45620360172E+03 0.  0.
      99925    2    3    3    0    0  0.11085135778E+03  0.14439870685E+02  0.29077979952E+02  0.28722501036E+03  0.26297555831E+03 0.  0.
         25    1    3    3    0    0 -0.11085135778E+03 -0.14439870685E+02  0.55866966132E+02  0.17681956733E+03  0.12509000000E+03 0.  0.
         25    1    4    4    0    0  0.44778346754E+02 -0.29782465620E+02  0.27964326718E+02  0.13900218439E+03  0.12509000000E+03 0.  0.
         25    1    4    4    0    0  0.66073011026E+02  0.44222336305E+02  0.11136532342E+01  0.14822282597E+03  0.12509000000E+03 0.  0.
<mgrwt>
<rscale>  2 0.45620360E+03</rscale>
<asrwt>0</asrwt>
<pdfrwt beam="1">  1       21 0.40366877E-01 0.45620360E+03</pdfrwt>
<pdfrwt beam="2">  1       21 0.27874973E-01 0.45620360E+03</pdfrwt>
<totfact> 0.67235533E+04</totfact>
</mgrwt>
</event>
<event>
 7    0  0.4737014E-002  0.4442053E+03  0.7546771E-02  0.1029464E+00
         21   -1    0    0  502  501  0.00000000000E+00  0.00000000000E+00  0.13318756904E+04  0.13318756904E+04  0.00000000000E+00 0. -1.
         21   -1    0    0  501  502 -0.00000000000E+00 -0.00000000000E+00 -0.37037684472E+02  0.37037684472E+02  0.00000000000E+00 0. -1.
      99926    2    1    2    0    0 -0.71054273576E-14 -0.71054273576E-14  0.12948380059E+04  0.13689133749E+04  0.44420531999E+03 0.  0.
      99925    2    3    3    0    0 -0.48554598250E+02  0.55617096064E+02  0.10430518604E+04  0.10782338579E+04  0.26302140319E+03 0.  0.
         25    1    4    4    0    0 -0.34236384784E+02 -0.10363161331E+02  0.45408007794E+03  0.47235129982E+03  0.12509000000E+03 0.  0.
         25    1    4    4    0    0 -0.14318213466E+02  0.65980257395E+02  0.58897178244E+03  0.60588255811E+03  0.12509000000E+03 0.  0.
         25    1    3    3    0    0  0.48554598250E+02 -0.55617096064E+02  0.25178614554E+03  0.29067951695E+03  0.12509000000E+03 0.  0.
<mgrwt>
<rscale>  2 0.44420532E+03</rscale>
<asrwt>0</asrwt>
<pdfrwt beam="1">  1       21 0.19586404E+00 0.44420532E+03</pdfrwt>
<pdfrwt beam="2">  1       21 0.54467192E-02 0.44420532E+03</pdfrwt>
<totfact> 0.29577160E+04</totfact>
</mgrwt>
</event>
<event>
 7    0  0.4737014E-002  0.4517914E+03  0.7546771E-02  0.1027189E+00
         21   -1    0    0  502  501  0.00000000000E+00  0.00000000000E+00  0.73971949112E+02  0.73971949112E+02  0.00000000000E+00 0. -1.
         21   -1    0    0  501  502 -0.00000000000E+00 -0.00000000000E+00 -0.68984070580E+03  0.68984070580E+03  0.00000000000E+00 0. -1.
      99926    2    1    2    0    0  0.71054273576E-14  0.00000000000E+00 -0.61586875669E+03  0.76381265491E+03  0.45179137479E+03 0.  0.
      99925    2    3    3    0    0 -0.49325948217E+02 -0.95962833379E+02 -0.35117853652E+03  0.45180250233E+03  0.26297760750E+03 0.  0.
         25    1    4    4    0    0  0.11909944648E+02 -0.34250859109E+02 -0.18645435482E+03  0.22743724994E+03  0.12509000000E+03 0.  0.
         25    1    4    4    0    0 -0.61235892866E+02 -0.61711974270E+02 -0.16472418170E+03  0.22436525239E+03  0.12509000000E+03 0.  0.
         25    1    3    3    0    0  0.49325948217E+02  0.95962833379E+02 -0.26469022017E+03  0.31201015258E+03  0.12509000000E+03 0.  0.
<mgrwt>
<rscale>  2 0.45179137E+03</rscale>
<asrwt>0</asrwt>
<pdfrwt beam="1">  1       21 0.10878227E-01 0.45179137E+03</pdfrwt>
<pdfrwt beam="2">  1       21 0.10144717E+00 0.45179137E+03</pdfrwt>
<totfact> 0.50833171E+04</totfact>
</mgrwt>
</event>
<event>
 7    0  0.4737014E-002  0.4579943E+03  0.7546771E-02  0.1025365E+00
         21   -1    0    0  502  501  0.00000000000E+00  0.00000000000E+00  0.19757805167E+03  0.19757805167E+03  0.00000000000E+00 0. -1.
         21   -1    0    0  501  502 -0.00000000000E+00 -0.00000000000E+00 -0.26541252199E+03  0.26541252199E+03  0.00000000000E+00 0. -1.
      99926    2    1    2    0    0  0.00000000000E+00  0.00000000000E+00 -0.67834470322E+02  0.46299057365E+03  0.45799427500E+03 0.  0.
      99925    2    3    3    0    0  0.20946197055E+02 -0.64347512853E+02 -0.13769150470E+03  0.30453913335E+03  0.26306992929E+03 0.  0.
         25    1    4    4    0    0  0.46605877525E+02 -0.35128455330E+02 -0.91640863577E+02  0.16568546156E+03  0.12509000000E+03 0.  0.
         25    1    4    4    0    0 -0.25659680470E+02 -0.29219057523E+02 -0.46050641120E+02  0.13885367180E+03  0.12509000000E+03 0.  0.
         25    1    3    3    0    0 -0.20946197055E+02  0.64347512853E+02  0.69857034376E+02  0.15845144030E+03  0.12509000000E+03 0.  0.
<mgrwt>
<rscale>  2 0.45799427E+03</rscale>
<asrwt>0</asrwt>
<pdfrwt beam="1">  1       21 0.29055596E-01 0.45799427E+03</pdfrwt>
<pdfrwt beam="2">  1       21 0.39031253E-01 0.45799427E+03</pdfrwt>
<totfact> 0.66364288E+04</totfact>
</mgrwt>
</event>
<event>
 7    0  0.4737014E-002  0.4553945E+03  0.7546771E-02  0.1026125E+00
         21   -1    0    0  502  501  0.00000000000E+00  0.00000000000E+00  0.49207424196E+02  0.49207424196E+02  0.00000000000E+00 0.  1.
         21   -1    0    0  501  502 -0.00000000000E+00 -0.00000000000E+00 -0.10536223101E+04  0.10536223101E+04  0.00000000000E+00 0.  1.
      99926    2    1    2    0    0  0.14210854715E-13 -0.35527136788E-14 -0.10044148859E+04  0.11028297343E+04  0.45539451008E+03 0.  0.
      99925    2    3    3    0    0 -0.10875655679E+03  0.24341630248E+02 -0.57948147362E+03  0.64606237930E+03  0.26301580956E+03 0.  0.
         25    1    4    4    0    0 -0.28351027220E+02  0.43824273031E+02 -0.28509128706E+03  0.31567213642E+03  0.12509000000E+03 0.  0.
         25    1    3    3    0    0  0.10875655679E+03 -0.24341630248E+02 -0.42493341226E+03  0.45676735496E+03  0.12509000000E+03 0.  0.
         25    1    4    4    0    0 -0.80405529566E+02 -0.19482642783E+02 -0.29439018655E+03  0.33039024288E+03  0.12509000000E+03 0.  0.
<mgrwt>
<rscale>  2 0.45539451E+03</rscale>
<asrwt>0</asrwt>
<pdfrwt beam="1">  1       21 0.72363855E-02 0.45539451E+03</pdfrwt>
<pdfrwt beam="2">  1       21 0.15494447E+00 0.45539451E+03</pdfrwt>
<totfact> 0.35287506E+04</totfact>
</mgrwt>
</event>
<event>
 7    0  0.4737014E-002  0.4411386E+03  0.7546771E-02  0.1030398E+00
         21   -1    0    0  502  501  0.00000000000E+00  0.00000000000E+00  0.31382745651E+02  0.31382745651E+02  0.00000000000E+00 0. -1.
         21   -1    0    0  501  502 -0.00000000000E+00 -0.00000000000E+00 -0.15502411595E+04  0.15502411595E+04  0.00000000000E+00 0. -1.
      99926    2    1    2    0    0  0.17763568394E-14  0.00000000000E+00 -0.15188584139E+04  0.15816239052E+04  0.44113863584E+03 0.  0.
      99925    2    3    3    0    0  0.27452337173E+01  0.97173385225E+02 -0.89119764535E+03  0.93427874875E+03  0.26304625864E+03 0.  0.
         25    1    3    3    0    0 -0.27452337173E+01 -0.97173385225E+02 -0.62766076855E+03  0.64734515645E+03  0.12509000000E+03 0.  0.
         25    1    4    4    0    0 -0.23165033443E+02  0.14414475018E+02 -0.38991229342E+03  0.41039432321E+03  0.12509000000E+03 0.  0.
         25    1    4    4    0    0  0.25910267160E+02  0.82758910207E+02 -0.50128535193E+03  0.52388442554E+03  0.12509000000E+03 0.  0.
<mgrwt>
<rscale>  2 0.44113864E+03</rscale>
<asrwt>0</asrwt>
<pdfrwt beam="1">  1       21 0.46151097E-02 0.44113864E+03</pdfrwt>
<pdfrwt beam="2">  1       21 0.22797664E+00 0.44113864E+03</pdfrwt>
<totfact> 0.24367041E+04</totfact>
</mgrwt>
</event>
<event>
 7    0  0.4737014E-002  0.4568455E+03  0.7546771E-02  0.1025700E+00
         21   -1    0    0  502  501  0.00000000000E+00  0.00000000000E+00  0.13639822669E+04  0.13639822669E+04  0.00000000000E+00 0. -1.
         21   -1    0    0  501  502 -0.00000000000E+00 -0.00000000000E+00 -0.38253390390E+02  0.38253390390E+02  0.00000000000E+00 0. -1.
      99926    2    1    2    0    0  0.00000000000E+00  0.00000000000E+00  0.13257288765E+04  0.14022356572E+04  0.45684547120E+03 0.  0.
      99925    2    3    3    0    0 -0.39243206456E+02  0.10763930640E+03  0.85310158442E+03  0.90008994650E+03  0.26316031029E+03 0.  0.
         25    1    4    4    0    0 -0.21789593399E+01  0.86344235919E+02  0.39299504819E+03  0.42137001666E+03  0.12509000000E+03 0.  0.
         25    1    4    4    0    0 -0.37064247116E+02  0.21295070484E+02  0.46010653623E+03  0.47871992983E+03  0.12509000000E+03 0.  0.
         25    1    3    3    0    0  0.39243206456E+02 -0.10763930640E+03  0.47262729205E+03  0.50214571075E+03  0.12509000000E+03 0.  0.
<mgrwt>
<rscale>  2 0.45684547E+03</rscale>
<asrwt>0</asrwt>
<pdfrwt beam="1">  1       21 0.20058559E+00 0.45684547E+03</pdfrwt>
<pdfrwt beam="2">  1       21 0.56254995E-02 0.45684547E+03</pdfrwt>
<totfact> 0.25899066E+04</totfact>
</mgrwt>
</event>
<event>
 7    0  0.4737014E-002  0.4538852E+03  0.7546771E-02  0.1026570E+00
         21   -1    0    0  502  501  0.00000000000E+00  0.00000000000E+00  0.18930550120E+03  0.18930550120E+03  0.00000000000E+00 0.  1.
         21   -1    0    0  501  502 -0.00000000000E+00 -0.00000000000E+00 -0.27206257441E+03  0.27206257441E+03  0.00000000000E+00 0.  1.
      99926    2    1    2    0    0  0.00000000000E+00  0.00000000000E+00 -0.82757073211E+02  0.46136807561E+03  0.45388519256E+03 0.  0.
      99925    2    3    3    0    0  0.92992593095E+02  0.45182578452E+02 -0.81390518306E+01  0.28274992149E+03  0.26304407648E+03 0.  0.
         25    1    4    4    0    0  0.51761756918E+02  0.45278669555E+02 -0.37954578159E+02  0.14770746596E+03  0.12509000000E+03 0.  0.
         25    1    3    3    0    0 -0.92992593095E+02 -0.45182578452E+02 -0.74618021381E+02  0.17861815412E+03  0.12509000000E+03 0.  0.
         25    1    4    4    0    0  0.41230836177E+02 -0.96091103139E-01  0.29815526329E+02  0.13504245553E+03  0.12509000000E+03 0.  0.
<mgrwt>
<rscale>  2 0.45388519E+03</rscale>
<asrwt>0</asrwt>
<pdfrwt beam="1">  1       21 0.27839045E-01 0.45388519E+03</pdfrwt>
<pdfrwt beam="2">  1       21 0.40009202E-01 0.45388519E+03</pdfrwt>
<totfact> 0.68687276E+04</totfact>
</mgrwt>
</event>
<event>
 7    0  0.4737014E-002  0.4570208E+03  0.7546771E-02  0.1025649E+00
         21   -1    0    0  502  501  0.00000000000E+00  0.00000000000E+00  0.17599486929E+03  0.17599486929E+03  0.00000000000E+00 0.  1.
         21   -1    0    0  501  502 -0.00000000000E+00 -0.00000000000E+00 -0.29669612311E+03  0.29669612311E+03  0.00000000000E+00 0.  1.
      99926    2    1    2    0    0  0.00000000000E+00  0.00000000000E+00 -0.12070125382E+03  0.47269099240E+03  0.45702076717E+03 0.  0.
      99925    2    3    3    0    0 -0.86499724045E+02  0.75719170458E+02 -0.78911472588E+02  0.29773531530E+03  0.26306596594E+03 0.  0.
         25    1    4    4    0    0 -0.81265772637E+01  0.10952061208E+02 -0.37588108704E+02  0.13132540850E+03  0.12509000000E+03 0.  0.
         25    1    4    4    0    0 -0.78373146781E+02  0.64767109250E+02 -0.41323363885E+02  0.16640990680E+03  0.12509000000E+03 0.  0.
         25    1    3    3    0    0  0.86499724045E+02 -0.75719170458E+02 -0.41789781228E+02  0.17495567710E+03  0.12509000000E+03 0.  0.
<mgrwt>
<rscale>  2 0.45702077E+03</rscale>
<asrwt>0</asrwt>
<pdfrwt beam="1">  1       21 0.25881598E-01 0.45702077E+03</pdfrwt>
<pdfrwt beam="2">  1       21 0.43631783E-01 0.45702077E+03</pdfrwt>
<totfact> 0.66168927E+04</totfact>
</mgrwt>
</event>
<event>
 7    0  0.4737014E-002  0.4577892E+03  0.7546771E-02  0.1025424E+00
         21   -1    0    0  502  501  0.00000000000E+00  0.00000000000E+00  0.10025399886E+03  0.10025399886E+03  0.00000000000E+00 0. -1.
         21   -1    0    0  501  502 -0.00000000000E+00 -0.00000000000E+00 -0.52260007778E+03  0.52260007778E+03  0.00000000000E+00 0. -1.
      99926    2    1    2    0    0  0.00000000000E+00  0.14210854715E-13 -0.42234607891E+03  0.62285407664E+03  0.45778924236E+03 0.  0.
      99925    2    3    3    0    0 -0.32571921200E+02 -0.83184832775E+02 -0.16463640636E+03  0.32278336850E+03  0.26287508484E+03 0.  0.
         25    1    3    3    0    0  0.32571921200E+02  0.83184832775E+02 -0.25770967256E+03  0.30007070814E+03  0.12509000000E+03 0.  0.
         25    1    4    4    0    0  0.21794739949E+02 -0.28646174087E+02 -0.87782876157E+02  0.15699985804E+03  0.12509000000E+03 0.  0.
         25    1    4    4    0    0 -0.54366661148E+02 -0.54538658688E+02 -0.76853530200E+02  0.16578351046E+03  0.12509000000E+03 0.  0.
<mgrwt>
<rscale>  2 0.45778924E+03</rscale>
<asrwt>0</asrwt>
<pdfrwt beam="1">  1       21 0.14743235E-01 0.45778924E+03</pdfrwt>
<pdfrwt beam="2">  1       21 0.76852951E-01 0.45778924E+03</pdfrwt>
<totfact> 0.56048501E+04</totfact>
</mgrwt>
</event>
<event>
 7    0  0.4737014E-002  0.4609511E+03  0.7546771E-02  0.1024506E+00
         21   -1    0    0  502  501  0.00000000000E+00  0.00000000000E+00  0.13553828356E+03  0.13553828356E+03  0.00000000000E+00 0.  1.
         21   -1    0    0  501  502 -0.00000000000E+00 -0.00000000000E+00 -0.39191132163E+03  0.39191132163E+03  0.00000000000E+00 0.  1.
      99926    2    1    2    0    0  0.00000000000E+00  0.00000000000E+00 -0.25637303806E+03  0.52744960519E+03  0.46095113773E+03 0.  0.
      99925    2    3    3    0    0  0.20581694009E+02  0.98258860535E+02 -0.87751074809E+02  0.29472813134E+03  0.26284217787E+03 0.  0.
         25    1    3    3    0    0 -0.20581694009E+02 -0.98258860535E+02 -0.16862196325E+03  0.23272147385E+03  0.12509000000E+03 0.  0.
         25    1    4    4    0    0  0.14441818286E+02  0.73766921506E+01 -0.48017321051E+02  0.13496722907E+03  0.12509000000E+03 0.  0.
         25    1    4    4    0    0  0.61398757222E+01  0.90882168385E+02 -0.39733753757E+02  0.15976090226E+03  0.12509000000E+03 0.  0.
<mgrwt>
<rscale>  2 0.46095114E+03</rscale>
<asrwt>0</asrwt>
<pdfrwt beam="1">  1       21 0.19932101E-01 0.46095114E+03</pdfrwt>
<pdfrwt beam="2">  1       21 0.57634017E-01 0.46095114E+03</pdfrwt>
<totfact> 0.60475631E+04</totfact>
</mgrwt>
</event>
<event>
 7    0  0.4737014E-002  0.4533917E+03  0.7546771E-02  0.1026715E+00
         21   -1    0    0  502  501  0.00000000000E+00  0.00000000000E+00  0.39242224374E+03  0.39242224374E+03  0.00000000000E+00 0.  1.
         21   -1    0    0  501  502 -0.00000000000E+00 -0.00000000000E+00 -0.13095844063E+03  0.13095844063E+03  0.00000000000E+00 0.  1.
      99926    2    1    2    0    0  0.88817841970E-15  0.14210854715E-13  0.26146380311E+03  0.52338068437E+03  0.45339168545E+03 0.  0.
      99925    2    3    3    0    0  0.59249885377E+01  0.93001665082E+02  0.93587705045E+02  0.29422068001E+03  0.26291202866E+03 0.  0.
         25    1    3    3    0    0 -0.59249885377E+01 -0.93001665082E+02  0.16787609807E+03  0.22916000436E+03  0.12509000000E+03 0.  0.
         25    1    4    4    0    0 -0.37612344715E+01  0.74342699287E+01  0.26200457319E+02  0.12807570932E+03  0.12509000000E+03 0.  0.
         25    1    4    4    0    0  0.96862230092E+01  0.85567395154E+02  0.67387247726E+02  0.16614497069E+03  0.12509000000E+03 0.  0.
<mgrwt>
<rscale>  2 0.45339169E+03</rscale>
<asrwt>0</asrwt>
<pdfrwt beam="1">  1       21 0.57709153E-01 0.45339169E+03</pdfrwt>
<pdfrwt beam="2">  1       21 0.19258594E-01 0.45339169E+03</pdfrwt>
<totfact> 0.64474945E+04</totfact>
</mgrwt>
</event>
<event>
 7    0  0.4737014E-002  0.4779514E+03  0.7546771E-02  0.1019700E+00
         21   -1    0    0  502  501  0.00000000000E+00  0.00000000000E+00  0.11163128356E+04  0.11163128356E+04  0.00000000000E+00 0. -1.
         21   -1    0    0  501  502 -0.00000000000E+00 -0.00000000000E+00 -0.51158951324E+02  0.51158951324E+02  0.00000000000E+00 0. -1.
      99926    2    1    2    0    0  0.00000000000E+00 -0.35527136788E-14  0.10651538843E+04  0.11674717869E+04  0.47795143695E+03 0.  0.
      99925    2    3    3    0    0  0.13292979607E+03 -0.50969325095E+01  0.68184634635E+03  0.74289142217E+03  0.26320508297E+03 0.  0.
         25    1    4    4    0    0  0.51096818540E+02 -0.32839299717E+02  0.38567647439E+03  0.40997945737E+03  0.12509000000E+03 0.  0.
         25    1    3    3    0    0 -0.13292979607E+03  0.50969325095E+01  0.38330753794E+03  0.42458036477E+03  0.12509000000E+03 0.  0.
         25    1    4    4    0    0  0.81832977526E+02  0.27742367207E+02  0.29616987196E+03  0.33291196480E+03  0.12509000000E+03 0.  0.
<mgrwt>
<rscale>  2 0.47795144E+03</rscale>
<asrwt>0</asrwt>
<pdfrwt beam="1">  1       21 0.16416364E+00 0.47795144E+03</pdfrwt>
<pdfrwt beam="2">  1       21 0.75233759E-02 0.47795144E+03</pdfrwt>
<totfact> 0.27875101E+04</totfact>
</mgrwt>
</event>
<event>
 7    0  0.4737014E-002  0.4690163E+03  0.7546771E-02  0.1022198E+00
         21   -1    0    0  502  501  0.00000000000E+00  0.00000000000E+00  0.65695429517E+03  0.65695429517E+03  0.00000000000E+00 0.  1.
         21   -1    0    0  501  502 -0.00000000000E+00 -0.00000000000E+00 -0.83710651273E+02  0.83710651273E+02  0.00000000000E+00 0.  1.
      99926    2    1    2    0    0  0.35527136788E-14  0.00000000000E+00  0.57324364389E+03  0.74066494644E+03  0.46901629782E+03 0.  0.
      99925    2    3    3    0    0  0.26209600176E+02  0.11696461339E+03  0.41697297022E+03  0.50735036165E+03  0.26300240995E+03 0.  0.
         25    1    4    4    0    0  0.21377178029E+02  0.10038309041E+03  0.21367550722E+03  0.26802701182E+03  0.12509000000E+03 0.  0.
         25    1    3    3    0    0 -0.26209600176E+02 -0.11696461339E+03  0.15627067367E+03  0.23331458479E+03  0.12509000000E+03 0.  0.
         25    1    4    4    0    0  0.48324221466E+01  0.16581522984E+02  0.20329746300E+03  0.23932334982E+03  0.12509000000E+03 0.  0.
<mgrwt>
<rscale>  2 0.46901630E+03</rscale>
<asrwt>0</asrwt>
<pdfrwt beam="1">  1       21 0.96610923E-01 0.46901630E+03</pdfrwt>
<pdfrwt beam="2">  1       21 0.12310390E-01 0.46901630E+03</pdfrwt>
<totfact> 0.45522675E+04</totfact>
</mgrwt>
</event>
<event>
 7    0  0.4737014E-002  0.4500922E+03  0.7546771E-02  0.1027695E+00
         21   -1    0    0  502  501  0.00000000000E+00  0.00000000000E+00  0.49763337387E+02  0.49763337387E+02  0.00000000000E+00 0.  1.
         21   -1    0    0  501  502 -0.00000000000E+00 -0.00000000000E+00 -0.10177320040E+04  0.10177320040E+04  0.00000000000E+00 0.  1.
      99926    2    1    2    0    0  0.00000000000E+00  0.88817841970E-15 -0.96796866658E+03  0.10674953414E+04  0.45009217315E+03 0.  0.
      99925    2    3    3    0    0 -0.10318569620E+03  0.29104324896E+01 -0.53203837754E+03  0.60237333207E+03  0.26293162133E+03 0.  0.
         25    1    4    4    0    0 -0.91158546509E+02  0.89518384696E+01 -0.26138259545E+03  0.30390522424E+03  0.12509000000E+03 0.  0.
         25    1    4    4    0    0 -0.12027149689E+02 -0.60414059800E+01 -0.27065578209E+03  0.29846810783E+03  0.12509000000E+03 0.  0.
         25    1    3    3    0    0  0.10318569620E+03 -0.29104324896E+01 -0.43593028904E+03  0.46512200928E+03  0.12509000000E+03 0.  0.
<mgrwt>
<rscale>  2 0.45009217E+03</rscale>
<asrwt>0</asrwt>
<pdfrwt beam="1">  1       21 0.73181383E-02 0.45009217E+03</pdfrwt>
<pdfrwt beam="2">  1       21 0.14966646E+00 0.45009217E+03</pdfrwt>
<totfact> 0.38079574E+04</totfact>
</mgrwt>
</event>
<event>
 6    0  0.4737014E-002  0.4522989E+03  0.7546771E-02  0.1027039E+00
         21   -1    0    0  502  501  0.00000000000E+00  0.00000000000E+00  0.34207920048E+03  0.34207920048E+03  0.00000000000E+00 0. -1.
         21   -1    0    0  501  502 -0.00000000000E+00 -0.00000000000E+00 -0.14950799505E+03  0.14950799505E+03  0.00000000000E+00 0. -1.
      99926    2    1    2    0    0  0.00000000000E+00  0.00000000000E+00  0.19257120543E+03  0.49158719554E+03  0.45229890742E+03 0.  0.
         25    1    3    3    0    0  0.28222813043E+02 -0.71346749046E+02 -0.17442654968E+02  0.14777902452E+03  0.12509000000E+03 0.  0.
         25    1    3    3    0    0 -0.50266112404E+02  0.45346683332E+02  0.11824081219E+03  0.18496324368E+03  0.12509000000E+03 0.  0.
         25    1    3    3    0    0  0.22043299361E+02  0.26000065714E+02  0.91773048206E+02  0.15884492734E+03  0.12509000000E+03 0.  0.
<mgrwt>
<rscale>  2 0.45229891E+03</rscale>
<asrwt>0</asrwt>
<pdfrwt beam="1">  1       21 0.50305765E-01 0.45229891E+03</pdfrwt>
<pdfrwt beam="2">  1       21 0.21986470E-01 0.45229891E+03</pdfrwt>
<totfact> 0.67297337E+04</totfact>
</mgrwt>
</event>
<event>
 7    0  0.4737014E-002  0.4207662E+03  0.7546771E-02  0.1036817E+00
         21   -1    0    0  502  501  0.00000000000E+00  0.00000000000E+00  0.54704543141E+02  0.54704543141E+02  0.00000000000E+00 0. -1.
         21   -1    0    0  501  502 -0.00000000000E+00 -0.00000000000E+00 -0.80909265713E+03  0.80909265713E+03  0.00000000000E+00 0. -1.
      99926    2    1    2    0    0  0.00000000000E+00  0.00000000000E+00 -0.75438811399E+03  0.86379720027E+03  0.42076617814E+03 0.  0.
      99925    2    3    3    0    0  0.73464124720E+02 -0.10089004387E+02 -0.53190725599E+03  0.59800779885E+03  0.26303846274E+03 0.  0.
         25    1    4    4    0    0  0.60714085745E+02  0.95461358999E+01 -0.34297645458E+03  0.37021302708E+03  0.12509000000E+03 0.  0.
         25    1    3    3    0    0 -0.73464124720E+02  0.10089004387E+02 -0.22248085799E+03  0.26578940141E+03  0.12509000000E+03 0.  0.
         25    1    4    4    0    0  0.12750038975E+02 -0.19635140287E+02 -0.18893080141E+03  0.22779477178E+03  0.12509000000E+03 0.  0.
<mgrwt>
<rscale>  2 0.42076618E+03</rscale>
<asrwt>0</asrwt>
<pdfrwt beam="1">  1       21 0.80447862E-02 0.42076618E+03</pdfrwt>
<pdfrwt beam="2">  1       21 0.11898421E+00 0.42076618E+03</pdfrwt>
<totfact> 0.59176845E+04</totfact>
</mgrwt>
</event>
<event>
 7    0  0.4737014E-002  0.4552377E+03  0.7546771E-02  0.1026172E+00
         21   -1    0    0  502  501  0.00000000000E+00  0.00000000000E+00  0.20631702764E+03  0.20631702764E+03  0.00000000000E+00 0.  1.
         21   -1    0    0  501  502 -0.00000000000E+00 -0.00000000000E+00 -0.25112002834E+03  0.25112002834E+03  0.00000000000E+00 0.  1.
      99926    2    1    2    0    0  0.00000000000E+00  0.00000000000E+00 -0.44803000699E+02  0.45743705598E+03  0.45523768661E+03 0.  0.
      99925    2    3    3    0    0 -0.76314504550E+02 -0.77378417930E+02  0.44823612432E+01  0.28455594606E+03  0.26294613842E+03 0.  0.
         25    1    4    4    0    0 -0.45830970118E+02 -0.61534059910E+02 -0.31178149287E+02  0.15002167658E+03  0.12509000000E+03 0.  0.
         25    1    4    4    0    0 -0.30483534432E+02 -0.15844358020E+02  0.35660510530E+02  0.13453426948E+03  0.12509000000E+03 0.  0.
         25    1    3    3    0    0  0.76314504550E+02  0.77378417930E+02 -0.49285361943E+02  0.17288110992E+03  0.12509000000E+03 0.  0.
<mgrwt>
<rscale>  2 0.45523769E+03</rscale>
<asrwt>0</asrwt>
<pdfrwt beam="1">  1       21 0.30340739E-01 0.45523769E+03</pdfrwt>
<pdfrwt beam="2">  1       21 0.36929416E-01 0.45523769E+03</pdfrwt>
<totfact> 0.68238121E+04</totfact>
</mgrwt>
</event>
<event>
 7    0  0.4737014E-002  0.4443883E+03  0.7546771E-02  0.1029409E+00
         21   -1    0    0  502  501  0.00000000000E+00  0.00000000000E+00  0.16683004540E+03  0.16683004540E+03  0.00000000000E+00 0. -1.
         21   -1    0    0  501  502 -0.00000000000E+00 -0.00000000000E+00 -0.29593129499E+03  0.29593129499E+03  0.00000000000E+00 0. -1.
      99926    2    1    2    0    0  0.00000000000E+00  0.00000000000E+00 -0.12910124959E+03  0.46276134038E+03  0.44438825987E+03 0.  0.
      99925    2    3    3    0    0 -0.55710214728E+02  0.54767299554E+02 -0.12331762127E+02  0.27465045174E+03  0.26301656442E+03 0.  0.
         25    1    4    4    0    0 -0.19702147490E+02 -0.99459512262E+01 -0.22201272950E+02  0.12894766839E+03  0.12509000000E+03 0.  0.
         25    1    3    3    0    0  0.55710214728E+02 -0.54767299554E+02 -0.11676948746E+03  0.18811088865E+03  0.12509000000E+03 0.  0.
         25    1    4    4    0    0 -0.36008067238E+02  0.64713250780E+02  0.98695108226E+01  0.14570278335E+03  0.12509000000E+03 0.  0.
<mgrwt>
<rscale>  2 0.44438826E+03</rscale>
<asrwt>0</asrwt>
<pdfrwt beam="1">  1       21 0.24533831E-01 0.44438826E+03</pdfrwt>
<pdfrwt beam="2">  1       21 0.43519307E-01 0.44438826E+03</pdfrwt>
<totfact> 0.74015449E+04</totfact>
</mgrwt>
</event>
<event>
 7    0  0.4737014E-002  0.4581266E+03  0.7546771E-02  0.1025326E+00
         21   -1    0    0  502  501  0.00000000000E+00  0.00000000000E+00  0.79871934437E+03  0.79871934437E+03  0.00000000000E+00 0.  1.
         21   -1    0    0  501  502 -0.00000000000E+00 -0.00000000000E+00 -0.65692647279E+02  0.65692647279E+02  0.00000000000E+00 0.  1.
      99926    2    1    2    0    0  0.00000000000E+00  0.00000000000E+00  0.73302669709E+03  0.86441199165E+03  0.45812656838E+03 0.  0.
      99925    2    3    3    0    0  0.26140428713E+02 -0.11069391538E+03  0.41635036330E+03  0.50543027429E+03  0.26301268455E+03 0.  0.
         25    1    4    4    0    0 -0.50647821237E+01 -0.73222278747E+02  0.27229051918E+03  0.30850735657E+03  0.12509000000E+03 0.  0.
         25    1    3    3    0    0 -0.26140428713E+02  0.11069391538E+03  0.31667633379E+03  0.35898171736E+03  0.12509000000E+03 0.  0.
         25    1    4    4    0    0  0.31205210836E+02 -0.37471636632E+02  0.14405984413E+03  0.19692291772E+03  0.12509000000E+03 0.  0.
<mgrwt>
<rscale>  2 0.45812657E+03</rscale>
<asrwt>0</asrwt>
<pdfrwt beam="1">  1       21 0.11745872E+00 0.45812657E+03</pdfrwt>
<pdfrwt beam="2">  1       21 0.96606839E-02 0.45812657E+03</pdfrwt>
<totfact> 0.43719339E+04</totfact>
</mgrwt>
</event>
<event>
 7    0  0.4737014E-002  0.4636875E+03  0.7546771E-02  0.1023717E+00
         21   -1    0    0  502  501  0.00000000000E+00  0.00000000000E+00  0.61203475924E+03  0.61203475924E+03  0.00000000000E+00 0. -1.
         21   -1    0    0  501  502 -0.00000000000E+00 -0.00000000000E+00 -0.87824289263E+02  0.87824289263E+02  0.00000000000E+00 0. -1.
      99926    2    1    2    0    0  0.14210854715E-13  0.71054273576E-14  0.52421046998E+03  0.69985904851E+03  0.46368747119E+03 0.  0.
      99925    2    3    3    0    0  0.10707590177E+03 -0.55827876680E+02  0.34217826745E+03  0.44813453359E+03  0.26297641134E+03 0.  0.
         25    1    4    4    0    0  0.31162836431E+02  0.82095707127E+01  0.16588494002E+03  0.21024709475E+03  0.12509000000E+03 0.  0.
         25    1    3    3    0    0 -0.10707590177E+03  0.55827876680E+02  0.18203220252E+03  0.25172451492E+03  0.12509000000E+03 0.  0.
         25    1    4    4    0    0  0.75913065342E+02 -0.64037447393E+02  0.17629332744E+03  0.23788743884E+03  0.12509000000E+03 0.  0.
<mgrwt>
<rscale>  2 0.46368747E+03</rscale>
<asrwt>0</asrwt>
<pdfrwt beam="1">  1       21 0.90005110E-01 0.46368747E+03</pdfrwt>
<pdfrwt beam="2">  1       21 0.12915337E-01 0.46368747E+03</pdfrwt>
<totfact> 0.49442458E+04</totfact>
</mgrwt>
</event>
<event>
 7    0  0.4737014E-002  0.4188633E+03  0.7546771E-02  0.1037437E+00
         21   -1    0    0  502  501  0.00000000000E+00  0.00000000000E+00  0.15344058574E+03  0.15344058574E+03  0.00000000000E+00 0.  1.
         21   -1    0    0  501  502 -0.00000000000E+00 -0.00000000000E+00 -0.28585407851E+03  0.28585407851E+03  0.00000000000E+00 0.  1.
      99926    2    1    2    0    0  0.00000000000E+00  0.00000000000E+00 -0.13241349276E+03  0.43929466425E+03  0.41886330583E+03 0.  0.
      99925    2    3    3    0    0  0.54209454376E+01 -0.73565477674E+02 -0.95086260001E+02  0.28935435426E+03  0.26314117757E+03 0.  0.
         25    1    4    4    0    0  0.27302449306E+01 -0.10979824341E+02 -0.10886757852E+02  0.12607156847E+03  0.12509000000E+03 0.  0.
         25    1    4    4    0    0  0.26907005070E+01 -0.62585653333E+02 -0.84199502150E+02  0.16328278579E+03  0.12509000000E+03 0.  0.
         25    1    3    3    0    0 -0.54209454376E+01  0.73565477674E+02 -0.37327232761E+02  0.14994030999E+03  0.12509000000E+03 0.  0.
<mgrwt>
<rscale>  2 0.41886331E+03</rscale>
<asrwt>0</asrwt>
<pdfrwt beam="1">  1       21 0.22564792E-01 0.41886331E+03</pdfrwt>
<pdfrwt beam="2">  1       21 0.42037364E-01 0.41886331E+03</pdfrwt>
<totfact> 0.93975385E+04</totfact>
</mgrwt>
</event>
<event>
 7    0  0.4737014E-002  0.4293588E+03  0.7546771E-02  0.1034063E+00
         21   -1    0    0  502  501  0.00000000000E+00  0.00000000000E+00  0.66825308288E+03  0.66825308288E+03  0.00000000000E+00 0. -1.
         21   -1    0    0  501  502 -0.00000000000E+00 -0.00000000000E+00 -0.68966745534E+02  0.68966745534E+02  0.00000000000E+00 0. -1.
      99926    2    1    2    0    0  0.35527136788E-14  0.28421709430E-13  0.59928633734E+03  0.73721982841E+03  0.42935877920E+03 0.  0.
      99925    2    3    3    0    0  0.23974716358E+02  0.69771930315E+02  0.46552366912E+03  0.53977903021E+03  0.26307072368E+03 0.  0.
         25    1    4    4    0    0  0.12421828070E+02  0.76373378794E+02  0.26423446297E+03  0.30241454053E+03  0.12509000000E+03 0.  0.
         25    1    3    3    0    0 -0.23974716358E+02 -0.69771930315E+02  0.13376266822E+03  0.19744079820E+03  0.12509000000E+03 0.  0.
         25    1    4    4    0    0  0.11552888288E+02 -0.66014484793E+01  0.20128920615E+03  0.23736448969E+03  0.12509000000E+03 0.  0.
<mgrwt>
<rscale>  2 0.42935878E+03</rscale>
<asrwt>0</asrwt>
<pdfrwt beam="1">  1       21 0.98272509E-01 0.42935878E+03</pdfrwt>
<pdfrwt beam="2">  1       21 0.10142169E-01 0.42935878E+03</pdfrwt>
<totfact> 0.62631158E+04</totfact>
</mgrwt>
</event>
<event>
 7    0  0.4737014E-002  0.4588951E+03  0.7546771E-02  0.1025102E+00
         21   -1    0    0  502  501  0.00000000000E+00  0.00000000000E+00  0.93167264216E+02  0.93167264216E+02  0.00000000000E+00 0. -1.
         21   -1    0    0  501  502 -0.00000000000E+00 -0.00000000000E+00 -0.56507169213E+03  0.56507169213E+03  0.00000000000E+00 0. -1.
      99926    2    1    2    0    0  0.00000000000E+00  0.00000000000E+00 -0.47190442792E+03  0.65823895635E+03  0.45889512371E+03 0.  0.
      99925    2    3    3    0    0 -0.10333016907E+03 -0.53047350397E+02 -0.31142035553E+03  0.42394471652E+03  0.26316409255E+03 0.  0.
         25    1    3    3    0    0  0.10333016907E+03  0.53047350397E+02 -0.16048407239E+03  0.23429423982E+03  0.12509000000E+03 0.  0.
         25    1    4    4    0    0 -0.50453544123E+02 -0.29636247688E+00 -0.19671928345E+03  0.23851966906E+03  0.12509000000E+03 0.  0.
         25    1    4    4    0    0 -0.52876624950E+02 -0.52750987920E+02 -0.11470107208E+03  0.18542504747E+03  0.12509000000E+03 0.  0.
<mgrwt>
<rscale>  2 0.45889512E+03</rscale>
<asrwt>0</asrwt>
<pdfrwt beam="1">  1       21 0.13701068E-01 0.45889512E+03</pdfrwt>
<pdfrwt beam="2">  1       21 0.83098778E-01 0.45889512E+03</pdfrwt>
<totfact> 0.53564648E+04</totfact>
</mgrwt>
</event>
<event>
 7    0  0.4737014E-002  0.4562730E+03  0.7546771E-02  0.1025868E+00
         21   -1    0    0  502  501  0.00000000000E+00  0.00000000000E+00  0.59494411302E+02  0.59494411302E+02  0.00000000000E+00 0. -1.
         21   -1    0    0  501  502 -0.00000000000E+00 -0.00000000000E+00 -0.87480911730E+03  0.87480911730E+03  0.00000000000E+00 0. -1.
      99926    2    1    2    0    0  0.00000000000E+00  0.00000000000E+00 -0.81531470600E+03  0.93430352860E+03  0.45627295969E+03 0.  0.
      99925    2    3    3    0    0 -0.29199420262E+02 -0.21257198151E+02 -0.29048159689E+03  0.39356165383E+03  0.26307174424E+03 0.  0.
         25    1    4    4    0    0 -0.35936547803E+01 -0.49157478429E+02 -0.13659477641E+03  0.19166380222E+03  0.12509000000E+03 0.  0.
         25    1    4    4    0    0 -0.25605765481E+02  0.27900280279E+02 -0.15388682048E+03  0.20189785161E+03  0.12509000000E+03 0.  0.
         25    1    3    3    0    0  0.29199420262E+02  0.21257198151E+02 -0.52483310911E+03  0.54074187477E+03  0.12509000000E+03 0.  0.
<mgrwt>
<rscale>  2 0.45627296E+03</rscale>
<asrwt>0</asrwt>
<pdfrwt beam="1">  1       21 0.87491778E-02 0.45627296E+03</pdfrwt>
<pdfrwt beam="2">  1       21 0.12864840E+00 0.45627296E+03</pdfrwt>
<totfact> 0.41369615E+04</totfact>
</mgrwt>
</event>
<event>
 7    0  0.4737014E-002  0.4552072E+03  0.7546771E-02  0.1026180E+00
         21   -1    0    0  502  501  0.00000000000E+00  0.00000000000E+00  0.13755474873E+03  0.13755474873E+03  0.00000000000E+00 0.  1.
         21   -1    0    0  501  502 -0.00000000000E+00 -0.00000000000E+00 -0.37660211991E+03  0.37660211991E+03  0.00000000000E+00 0.  1.
      99926    2    1    2    0    0  0.00000000000E+00  0.00000000000E+00 -0.23904737119E+03  0.51415686864E+03  0.45520724939E+03 0.  0.
      99925    2    3    3    0    0 -0.19606637277E+01 -0.88413723941E+02 -0.69682102554E+02  0.28578670180E+03  0.26267396659E+03 0.  0.
         25    1    3    3    0    0  0.19606637277E+01  0.88413723941E+02 -0.16936526863E+03  0.22837016684E+03  0.12509000000E+03 0.  0.
         25    1    4    4    0    0 -0.17444946179E+01 -0.19958781379E+02  0.87976898627E+00  0.12668732497E+03  0.12509000000E+03 0.  0.
         25    1    4    4    0    0 -0.21616910978E+00 -0.68454942562E+02 -0.70561871541E+02  0.15909937682E+03  0.12509000000E+03 0.  0.
<mgrwt>
<rscale>  2 0.45520725E+03</rscale>
<asrwt>0</asrwt>
<pdfrwt beam="1">  1       21 0.20228640E-01 0.45520725E+03</pdfrwt>
<pdfrwt beam="2">  1       21 0.55382664E-01 0.45520725E+03</pdfrwt>
<totfact> 0.64181494E+04</totfact>
</mgrwt>
</event>
<event>
 7    0  0.4737014E-002  0.4458825E+03  0.7546771E-02  0.1028957E+00
         21   -1    0    0  502  501  0.00000000000E+00  0.00000000000E+00  0.54371138849E+02  0.54371138849E+02  0.00000000000E+00 0.  1.
         21   -1    0    0  501  502 -0.00000000000E+00 -0.00000000000E+00 -0.91413935496E+03  0.91413935496E+03  0.00000000000E+00 0.  1.
      99926    2    1    2    0    0  0.00000000000E+00  0.00000000000E+00 -0.85976821611E+03  0.96851049381E+03  0.44588248585E+03 0.  0.
      99925    2    3    3    0    0  0.26492052463E+02 -0.62845325117E+02 -0.37399672633E+03  0.46227654382E+03  0.26301081334E+03 0.  0.
         25    1    3    3    0    0 -0.26492052463E+02  0.62845325117E+02 -0.48577148978E+03  0.50623394998E+03  0.12509000000E+03 0.  0.
         25    1    4    4    0    0  0.21152166491E+02  0.80124290639E+01 -0.15863968654E+03  0.20328716490E+03  0.12509000000E+03 0.  0.
         25    1    4    4    0    0  0.53398859724E+01 -0.70857754180E+02 -0.21535703979E+03  0.25898937893E+03  0.12509000000E+03 0.  0.
<mgrwt>
<rscale>  2 0.44588249E+03</rscale>
<asrwt>0</asrwt>
<pdfrwt beam="1">  1       21 0.79957559E-02 0.44588249E+03</pdfrwt>
<pdfrwt beam="2">  1       21 0.13443226E+00 0.44588249E+03</pdfrwt>
<totfact> 0.43413119E+04</totfact>
</mgrwt>
</event>
<event>
 7    0  0.4737014E-002  0.4847994E+03  0.7546771E-02  0.1017824E+00
         21   -1    0    0  502  501  0.00000000000E+00  0.00000000000E+00  0.42894297923E+02  0.42894297923E+02  0.00000000000E+00 0. -1.
         21   -1    0    0  501  502 -0.00000000000E+00 -0.00000000000E+00 -0.13698233415E+04  0.13698233415E+04  0.00000000000E+00 0. -1.
      99926    2    1    2    0    0  0.00000000000E+00  0.17763568394E-14 -0.13269290435E+04  0.14127176394E+04  0.48479938330E+03 0.  0.
      99925    2    3    3    0    0 -0.11594059435E+02 -0.99310483226E+01 -0.41111391079E+03  0.48827298803E+03  0.26298824169E+03 0.  0.
         25    1    4    4    0    0  0.79025351285E+01  0.16287727962E+02 -0.14458293206E+03  0.19204028871E+03  0.12509000000E+03 0.  0.
         25    1    4    4    0    0 -0.19496594564E+02 -0.26218776284E+02 -0.26653097873E+03  0.29623269933E+03  0.12509000000E+03 0.  0.
         25    1    3    3    0    0  0.11594059435E+02  0.99310483226E+01 -0.91581513275E+03  0.92444465135E+03  0.12509000000E+03 0.  0.
<mgrwt>
<rscale>  2 0.48479938E+03</rscale>
<asrwt>0</asrwt>
<pdfrwt beam="1">  1       21 0.63079843E-02 0.48479938E+03</pdfrwt>
<pdfrwt beam="2">  1       21 0.20144463E+00 0.48479938E+03</pdfrwt>
<totfact> 0.20755717E+04</totfact>
</mgrwt>
</event>
<event>
 7    0  0.4737014E-002  0.4532538E+03  0.7546771E-02  0.1026756E+00
         21   -1    0    0  502  501  0.00000000000E+00  0.00000000000E+00  0.47415456043E+03  0.47415456043E+03  0.00000000000E+00 0.  1.
         21   -1    0    0  501  502 -0.00000000000E+00 -0.00000000000E+00 -0.10831858624E+03  0.10831858624E+03  0.00000000000E+00 0.  1.
      99926    2    1    2    0    0  0.14210854715E-13  0.71054273576E-14  0.36583597420E+03  0.58247314667E+03  0.45325379929E+03 0.  0.
      99925    2    3    3    0    0 -0.10501568469E+03 -0.36745171268E+02  0.22321424518E+03  0.36254823373E+03  0.26313137573E+03 0.  0.
         25    1    4    4    0    0 -0.18630136422E+02 -0.42879550500E+02  0.10371684546E+03  0.16908704849E+03  0.12509000000E+03 0.  0.
         25    1    3    3    0    0  0.10501568469E+03  0.36745171268E+02  0.14262172902E+03  0.21992491294E+03  0.12509000000E+03 0.  0.
         25    1    4    4    0    0 -0.86385548263E+02  0.61343792322E+01  0.11949739971E+03  0.19346118524E+03  0.12509000000E+03 0.  0.
<mgrwt>
<rscale>  2 0.45325380E+03</rscale>
<asrwt>0</asrwt>
<pdfrwt beam="1">  1       21 0.69728611E-01 0.45325380E+03</pdfrwt>
<pdfrwt beam="2">  1       21 0.15929204E-01 0.45325380E+03</pdfrwt>
<totfact> 0.60602501E+04</totfact>
</mgrwt>
</event>
<event>
 7    0  0.4737014E-002  0.4568492E+03  0.7546771E-02  0.1025699E+00
         21   -1    0    0  502  501  0.00000000000E+00  0.00000000000E+00  0.71686245241E+03  0.71686245241E+03  0.00000000000E+00 0.  1.
         21   -1    0    0  501  502 -0.00000000000E+00 -0.00000000000E+00 -0.72786350421E+02  0.72786350421E+02  0.00000000000E+00 0.  1.
      99926    2    1    2    0    0  0.00000000000E+00  0.00000000000E+00  0.64407610199E+03  0.78964880284E+03  0.45684921655E+03 0.  0.
      99925    2    3    3    0    0 -0.48389642513E+02 -0.10389490788E+03  0.39113654054E+03  0.48508084780E+03  0.26302077137E+03 0.  0.
         25    1    3    3    0    0  0.48389642513E+02  0.10389490788E+03  0.25293956145E+03  0.30456795503E+03  0.12509000000E+03 0.  0.
         25    1    4    4    0    0 -0.59669127408E+02 -0.34071221853E+02  0.20901798134E+03  0.25309539219E+03  0.12509000000E+03 0.  0.
         25    1    4    4    0    0  0.11279484895E+02 -0.69823686029E+02  0.18211855920E+03  0.23198545561E+03  0.12509000000E+03 0.  0.
<mgrwt>
<rscale>  2 0.45684922E+03</rscale>
<asrwt>0</asrwt>
<pdfrwt beam="1">  1       21 0.10542094E+00 0.45684922E+03</pdfrwt>
<pdfrwt beam="2">  1       21 0.10703875E-01 0.45684922E+03</pdfrwt>
<totfact> 0.47575332E+04</totfact>
</mgrwt>
</event>
<event>
 7    0  0.4737014E-002  0.4582480E+03  0.7546771E-02  0.1025291E+00
         21   -1    0    0  502  501  0.00000000000E+00  0.00000000000E+00  0.11167566513E+03  0.11167566513E+03  0.00000000000E+00 0. -1.
         21   -1    0    0  501  502 -0.00000000000E+00 -0.00000000000E+00 -0.47009175728E+03  0.47009175728E+03  0.00000000000E+00 0. -1.
      99926    2    1    2    0    0  0.14210854715E-13  0.00000000000E+00 -0.35841609215E+03  0.58176742241E+03  0.45824801000E+03 0.  0.
      99925    2    3    3    0    0  0.10598091889E+03  0.37883472376E+02 -0.19148788387E+03  0.34474496047E+03  0.26365577076E+03 0.  0.
         25    1    4    4    0    0  0.14887090536E+02 -0.39526615612E+01 -0.92635255244E+02  0.15641626390E+03  0.12509000000E+03 0.  0.
         25    1    3    3    0    0 -0.10598091889E+03 -0.37883472376E+02 -0.16692820828E+03  0.23702246194E+03  0.12509000000E+03 0.  0.
         25    1    4    4    0    0  0.91093828350E+02  0.41836133937E+02 -0.98852628626E+02  0.18832869657E+03  0.12509000000E+03 0.  0.
<mgrwt>
<rscale>  2 0.45824801E+03</rscale>
<asrwt>0</asrwt>
<pdfrwt beam="1">  1       21 0.16422892E-01 0.45824801E+03</pdfrwt>
<pdfrwt beam="2">  1       21 0.69131141E-01 0.45824801E+03</pdfrwt>
<totfact> 0.58303273E+04</totfact>
</mgrwt>
</event>
<event>
 7    0  0.4737014E-002  0.4558758E+03  0.7546771E-02  0.1025984E+00
         21   -1    0    0  502  501  0.00000000000E+00  0.00000000000E+00  0.32321678259E+03  0.32321678259E+03  0.00000000000E+00 0. -1.
         21   -1    0    0  501  502 -0.00000000000E+00 -0.00000000000E+00 -0.16074563747E+03  0.16074563747E+03  0.00000000000E+00 0. -1.
      99926    2    1    2    0    0  0.88817841970E-15  0.00000000000E+00  0.16247114512E+03  0.48396242005E+03  0.45587580658E+03 0.  0.
      99925    2    3    3    0    0 -0.51911139720E+01  0.60551673605E+02 -0.19351197648E+00  0.26995131845E+03  0.26302133762E+03 0.  0.
         25    1    4    4    0    0  0.24625590966E+02  0.40061544820E+02  0.28425569081E+02  0.13662674768E+03  0.12509000000E+03 0.  0.
         25    1    3    3    0    0  0.51911139720E+01 -0.60551673605E+02  0.16266465710E+03  0.21401110160E+03  0.12509000000E+03 0.  0.
         25    1    4    4    0    0 -0.29816704938E+02  0.20490128785E+02 -0.28619081058E+02  0.13332457077E+03  0.12509000000E+03 0.  0.
<mgrwt>
<rscale>  2 0.45587581E+03</rscale>
<asrwt>0</asrwt>
<pdfrwt beam="1">  1       21 0.47531880E-01 0.45587581E+03</pdfrwt>
<pdfrwt beam="2">  1       21 0.23639064E-01 0.45587581E+03</pdfrwt>
<totfact> 0.65953062E+04</totfact>
</mgrwt>
</event>
<event>
 7    0  0.4737014E-002  0.4569639E+03  0.7546771E-02  0.1025665E+00
         21   -1    0    0  502  501  0.00000000000E+00  0.00000000000E+00  0.16160576621E+03  0.16160576621E+03  0.00000000000E+00 0. -1.
         21   -1    0    0  501  502 -0.00000000000E+00 -0.00000000000E+00 -0.32303301994E+03  0.32303301994E+03  0.00000000000E+00 0. -1.
      99926    2    1    2    0    0 -0.26645352591E-14  0.35527136788E-14 -0.16142725372E+03  0.48463878615E+03  0.45696388784E+03 0.  0.
      99925    2    3    3    0    0 -0.13298550838E+01  0.22919201682E+02 -0.22081282945E+03  0.34427777652E+03  0.26313841117E+03 0.  0.
         25    1    3    3    0    0  0.13298550838E+01 -0.22919201682E+02  0.59385575725E+02  0.14036100963E+03  0.12509000000E+03 0.  0.
         25    1    4    4    0    0 -0.32346849384E+02  0.66792013527E+01 -0.14307429163E+03  0.19289554537E+03  0.12509000000E+03 0.  0.
         25    1    4    4    0    0  0.31016994300E+02  0.16240000329E+02 -0.77738537816E+02  0.15138223115E+03  0.12509000000E+03 0.  0.
<mgrwt>
<rscale>  2 0.45696389E+03</rscale>
<asrwt>0</asrwt>
<pdfrwt beam="1">  1       21 0.23765554E-01 0.45696389E+03</pdfrwt>
<pdfrwt beam="2">  1       21 0.47504856E-01 0.45696389E+03</pdfrwt>
<totfact> 0.65339379E+04</totfact>
</mgrwt>
</event>
<event>
 7    0  0.4737014E-002  0.4463377E+03  0.7546771E-02  0.1028820E+00
         21   -1    0    0  502  501  0.00000000000E+00  0.00000000000E+00  0.31882416053E+02  0.31882416053E+02  0.00000000000E+00 0.  1.
         21   -1    0    0  501  502 -0.00000000000E+00 -0.00000000000E+00 -0.15621255423E+04  0.15621255423E+04  0.00000000000E+00 0.  1.
      99926    2    1    2    0    0 -0.14210854715E-13  0.00000000000E+00 -0.15302431263E+04  0.15940079584E+04  0.44633770384E+03 0.  0.
      99925    2    3    3    0    0  0.84859223735E+02  0.48084152394E+01 -0.75238345350E+03  0.80158295414E+03  0.26311625295E+03 0.  0.
         25    1    4    4    0    0  0.30050106435E+02 -0.82731753242E+01 -0.25654326640E+03  0.28711219055E+03  0.12509000000E+03 0.  0.
         25    1    4    4    0    0  0.54809117300E+02  0.13081590564E+02 -0.49584018710E+03  0.51447076359E+03  0.12509000000E+03 0.  0.
         25    1    3    3    0    0 -0.84859223735E+02 -0.48084152394E+01 -0.77785967275E+03  0.79242500422E+03  0.12509000000E+03 0.  0.
<mgrwt>
<rscale>  2 0.44633770E+03</rscale>
<asrwt>0</asrwt>
<pdfrwt beam="1">  1       21 0.46885907E-02 0.44633770E+03</pdfrwt>
<pdfrwt beam="2">  1       21 0.22972434E+00 0.44633770E+03</pdfrwt>
<totfact> 0.23079340E+04</totfact>
</mgrwt>
</event>
<event>
 7    0  0.4737014E-002  0.4563554E+03  0.7546771E-02  0.1025844E+00
         21   -1    0    0  502  501  0.00000000000E+00  0.00000000000E+00  0.79290952857E+03  0.79290952857E+03  0.00000000000E+00 0. -1.
         21   -1    0    0  501  502 -0.00000000000E+00 -0.00000000000E+00 -0.65663321109E+02  0.65663321109E+02  0.00000000000E+00 0. -1.
      99926    2    1    2    0    0  0.14210854715E-13  0.00000000000E+00  0.72724620746E+03  0.85857284968E+03  0.45635544473E+03 0.  0.
      99925    2    3    3    0    0 -0.10940572267E+03  0.77378609727E+01  0.51847085291E+03  0.59161940166E+03  0.26300571182E+03 0.  0.
         25    1    4    4    0    0 -0.26118720585E+02  0.33692009119E+02  0.22723130391E+03  0.26286672026E+03  0.12509000000E+03 0.  0.
         25    1    3    3    0    0  0.10940572267E+03 -0.77378609727E+01  0.20877535455E+03  0.26695344802E+03  0.12509000000E+03 0.  0.
         25    1    4    4    0    0 -0.83287002081E+02 -0.25954148147E+02  0.29123954900E+03  0.32875268140E+03  0.12509000000E+03 0.  0.
<mgrwt>
<rscale>  2 0.45635544E+03</rscale>
<asrwt>0</asrwt>
<pdfrwt beam="1">  1       21 0.11660434E+00 0.45635544E+03</pdfrwt>
<pdfrwt beam="2">  1       21 0.96563712E-02 0.45635544E+03</pdfrwt>
<totfact> 0.44582384E+04</totfact>
</mgrwt>
</event>
<event>
 7    0  0.4737014E-002  0.4254586E+03  0.7546771E-02  0.1035304E+00
         21   -1    0    0  502  501  0.00000000000E+00  0.00000000000E+00  0.59117005258E+02  0.59117005258E+02  0.00000000000E+00 0. -1.
         21   -1    0    0  501  502 -0.00000000000E+00 -0.00000000000E+00 -0.76549457558E+03  0.76549457558E+03  0.00000000000E+00 0. -1.
      99926    2    1    2    0    0  0.00000000000E+00  0.00000000000E+00 -0.70637757032E+03  0.82461158083E+03  0.42545856132E+03 0.  0.
      99925    2    3    3    0    0  0.54409522555E+02 -0.51084960312E+02 -0.52565029070E+03  0.59249107977E+03  0.26299692429E+03 0.  0.
         25    1    3    3    0    0 -0.54409522555E+02  0.51084960312E+02 -0.18072727962E+03  0.23212050106E+03  0.12509000000E+03 0.  0.
         25    1    4    4    0    0  0.14074280425E+02  0.12210865426E+02 -0.21858473358E+03  0.25253511529E+03  0.12509000000E+03 0.  0.
         25    1    4    4    0    0  0.40335242130E+02 -0.63295825738E+02 -0.30706555712E+03  0.33995596448E+03  0.12509000000E+03 0.  0.
<mgrwt>
<rscale>  2 0.42545856E+03</rscale>
<asrwt>0</asrwt>
<pdfrwt beam="1">  1       21 0.86936780E-02 0.42545856E+03</pdfrwt>
<pdfrwt beam="2">  1       21 0.11257272E+00 0.42545856E+03</pdfrwt>
<totfact> 0.59163254E+04</totfact>
</mgrwt>
</event>
<event>
 7    0  0.4737014E-002  0.4546106E+03  0.7546771E-02  0.1026356E+00
         21   -1    0    0  502  501  0.00000000000E+00  0.00000000000E+00  0.48031674410E+03  0.48031674410E+03  0.00000000000E+00 0. -1.
         21   -1    0    0  501  502 -0.00000000000E+00 -0.00000000000E+00 -0.10757007949E+03  0.10757007949E+03  0.00000000000E+00 0. -1.
      99926    2    1    2    0    0  0.00000000000E+00  0.00000000000E+00  0.37274666461E+03  0.58788682359E+03  0.45461064811E+03 0.  0.
      99925    2    3    3    0    0 -0.80461028838E+02  0.78205547812E+02  0.24893894607E+03  0.37916225833E+03  0.26306526644E+03 0.  0.
         25    1    3    3    0    0  0.80461028838E+02 -0.78205547812E+02  0.12380771855E+03  0.20872456526E+03  0.12509000000E+03 0.  0.
         25    1    4    4    0    0 -0.17543802396E+02  0.23889721678E+01  0.12048026488E+03  0.17457518299E+03  0.12509000000E+03 0.  0.
         25    1    4    4    0    0 -0.62917226442E+02  0.75816575644E+02  0.12845868118E+03  0.20458707534E+03  0.12509000000E+03 0.  0.
<mgrwt>
<rscale>  2 0.45461065E+03</rscale>
<asrwt>0</asrwt>
<pdfrwt beam="1">  1       21 0.70634814E-01 0.45461065E+03</pdfrwt>
<pdfrwt beam="2">  1       21 0.15819130E-01 0.45461065E+03</pdfrwt>
<totfact> 0.59613371E+04</totfact>
</mgrwt>
</event>
<event>
 7    0  0.4737014E-002  0.4229922E+03  0.7546771E-02  0.1036097E+00
         21   -1    0    0  502  501  0.00000000000E+00  0.00000000000E+00  0.84665998548E+03  0.84665998548E+03  0.00000000000E+00 0. -1.
         21   -1    0    0  501  502 -0.00000000000E+00 -0.00000000000E+00 -0.52831838924E+02  0.52831838924E+02  0.00000000000E+00 0. -1.
      99926    2    1    2    0    0  0.17763568394E-14  0.00000000000E+00  0.79382814656E+03  0.89949182441E+03  0.42299221731E+03 0.  0.
      99925    2    3    3    0    0  0.12098835408E+02 -0.20227979800E+02  0.35374229133E+03  0.44136670934E+03  0.26289809899E+03 0.  0.
         25    1    4    4    0    0 -0.13531735446E+02 -0.37695133393E+02  0.21546566380E+03  0.25234300332E+03  0.12509000000E+03 0.  0.
         25    1    3    3    0    0 -0.12098835408E+02  0.20227979800E+02  0.44008585523E+03  0.45812511507E+03  0.12509000000E+03 0.  0.
         25    1    4    4    0    0  0.25630570854E+02  0.17467153593E+02  0.13827662753E+03  0.18902370602E+03  0.12509000000E+03 0.  0.
<mgrwt>
<rscale>  2 0.42299222E+03</rscale>
<asrwt>0</asrwt>
<pdfrwt beam="1">  1       21 0.12450881E+00 0.42299222E+03</pdfrwt>
<pdfrwt beam="2">  1       21 0.77693886E-02 0.42299222E+03</pdfrwt>
<totfact> 0.56025810E+04</totfact>
</mgrwt>
</event>
<event>
 7    0  0.4737014E-002  0.4583492E+03  0.7546771E-02  0.1025261E+00
         21   -1    0    0  502  501  0.00000000000E+00  0.00000000000E+00  0.73325546121E+02  0.73325546121E+02  0.00000000000E+00 0.  1.
         21   -1    0    0  501  502 -0.00000000000E+00 -0.00000000000E+00 -0.71627158438E+03  0.71627158438E+03  0.00000000000E+00 0.  1.
      99926    2    1    2    0    0  0.00000000000E+00 -0.88817841970E-15 -0.64294603826E+03  0.78959713050E+03  0.45834923408E+03 0.  0.
      99925    2    3    3    0    0  0.63313420153E+02  0.26189669967E+01 -0.57133454790E+03  0.63214503680E+03  0.26299949385E+03 0.  0.
         25    1    4    4    0    0  0.52477208453E+01 -0.11911953779E+02 -0.33893972705E+03  0.36152051102E+03  0.12509000000E+03 0.  0.
         25    1    3    3    0    0 -0.63313420153E+02 -0.26189669967E+01 -0.71611490363E+02  0.15745209370E+03  0.12509000000E+03 0.  0.
         25    1    4    4    0    0  0.58065699308E+02  0.14530920776E+02 -0.23239482085E+03  0.27062452578E+03  0.12509000000E+03 0.  0.
<mgrwt>
<rscale>  2 0.45834923E+03</rscale>
<asrwt>0</asrwt>
<pdfrwt beam="1">  1       21 0.10783169E-01 0.45834923E+03</pdfrwt>
<pdfrwt beam="2">  1       21 0.10533405E+00 0.45834923E+03</pdfrwt>
<totfact> 0.47023805E+04</totfact>
</mgrwt>
</event>
<event>
 7    0  0.4737014E-002  0.4517661E+03  0.7546771E-02  0.1027197E+00
         21   -1    0    0  502  501  0.00000000000E+00  0.00000000000E+00  0.47424323750E+03  0.47424323750E+03  0.00000000000E+00 0. -1.
         21   -1    0    0  501  502 -0.00000000000E+00 -0.00000000000E+00 -0.10758857533E+03  0.10758857533E+03  0.00000000000E+00 0. -1.
      99926    2    1    2    0    0  0.00000000000E+00 -0.14210854715E-13  0.36665466217E+03  0.58183181282E+03  0.45176610887E+03 0.  0.
      99925    2    3    3    0    0 -0.25323740568E+02 -0.88415458700E+02  0.15258219797E+03  0.31738311609E+03  0.26266353015E+03 0.  0.
         25    1    4    4    0    0 -0.59866169989E+01 -0.79350057746E+01  0.47192740064E+02  0.13406515847E+03  0.12509000000E+03 0.  0.
         25    1    3    3    0    0  0.25323740568E+02  0.88415458700E+02  0.21407246420E+03  0.26444869673E+03  0.12509000000E+03 0.  0.
         25    1    4    4    0    0 -0.19337123569E+02 -0.80480452925E+02  0.10538945791E+03  0.18331795763E+03  0.12509000000E+03 0.  0.
<mgrwt>
<rscale>  2 0.45176611E+03</rscale>
<asrwt>0</asrwt>
<pdfrwt beam="1">  1       21 0.69741652E-01 0.45176611E+03</pdfrwt>
<pdfrwt beam="2">  1       21 0.15821850E-01 0.45176611E+03</pdfrwt>
<totfact> 0.61364516E+04</totfact>
</mgrwt>
</event>
<event>
 7    0  0.4737014E-002  0.4597531E+03  0.7546771E-02  0.1024853E+00
         21   -1    0    0  502  501  0.00000000000E+00  0.00000000000E+00  0.63211684204E+03  0.63211684204E+03  0.00000000000E+00 0. -1.
         21   -1    0    0  501  502 -0.00000000000E+00 -0.00000000000E+00 -0.83597236067E+02  0.83597236067E+02  0.00000000000E+00 0. -1.
      99926    2    1    2    0    0  0.00000000000E+00 -0.14210854715E-13  0.54851960597E+03  0.71571407810E+03  0.45975306792E+03 0.  0.
      99925    2    3    3    0    0 -0.56041957458E+02  0.10088509733E+03  0.30756018810E+03  0.42070992047E+03  0.26284037746E+03 0.  0.
         25    1    4    4    0    0  0.10012095026E+02  0.30985943816E+02  0.14063039593E+03  0.19100991367E+03  0.12509000000E+03 0.  0.
         25    1    4    4    0    0 -0.66054052484E+02  0.69899153514E+02  0.16692979217E+03  0.22970000680E+03  0.12509000000E+03 0.  0.
         25    1    3    3    0    0  0.56041957458E+02 -0.10088509733E+03  0.24095941787E+03  0.29500415763E+03  0.12509000000E+03 0.  0.
<mgrwt>
<rscale>  2 0.45975307E+03</rscale>
<asrwt>0</asrwt>
<pdfrwt beam="1">  1       21 0.92958356E-01 0.45975307E+03</pdfrwt>
<pdfrwt beam="2">  1       21 0.12293712E-01 0.45975307E+03</pdfrwt>
<totfact> 0.50156273E+04</totfact>
</mgrwt>
</event>
<event>
 7    0  0.4737014E-002  0.4567722E+03  0.7546771E-02  0.1025722E+00
         21   -1    0    0  502  501  0.00000000000E+00  0.00000000000E+00  0.10601528283E+03  0.10601528283E+03  0.00000000000E+00 0. -1.
         21   -1    0    0  501  502 -0.00000000000E+00 -0.00000000000E+00 -0.49200661682E+03  0.49200661682E+03  0.00000000000E+00 0. -1.
      99926    2    1    2    0    0  0.00000000000E+00  0.00000000000E+00 -0.38599133399E+03  0.59802189965E+03  0.45677224363E+03 0.  0.
      99925    2    3    3    0    0 -0.67938337272E+02 -0.84824314298E+02 -0.19403168583E+03  0.34443405178E+03  0.26301281138E+03 0.  0.
         25    1    4    4    0    0 -0.35965902293E+02 -0.35845087894E+02 -0.47570727732E+02  0.14313943793E+03  0.12509000000E+03 0.  0.
         25    1    4    4    0    0 -0.31972434979E+02 -0.48979226404E+02 -0.14646095810E+03  0.20129461385E+03  0.12509000000E+03 0.  0.
         25    1    3    3    0    0  0.67938337272E+02  0.84824314298E+02 -0.19195964816E+03  0.25358784787E+03  0.12509000000E+03 0.  0.
<mgrwt>
<rscale>  2 0.45677224E+03</rscale>
<asrwt>0</asrwt>
<pdfrwt beam="1">  1       21 0.15590483E-01 0.45677224E+03</pdfrwt>
<pdfrwt beam="2">  1       21 0.72353914E-01 0.45677224E+03</pdfrwt>
<totfact> 0.57983914E+04</totfact>
</mgrwt>
</event>
<event>
 7    0  0.4737014E-002  0.4737243E+03  0.7546771E-02  0.1020874E+00
         21   -1    0    0  502  501  0.00000000000E+00  0.00000000000E+00  0.11286934262E+03  0.11286934262E+03  0.00000000000E+00 0.  1.
         21   -1    0    0  501  502 -0.00000000000E+00 -0.00000000000E+00 -0.49706746700E+03  0.49706746700E+03  0.00000000000E+00 0.  1.
      99926    2    1    2    0    0  0.00000000000E+00  0.00000000000E+00 -0.38419812438E+03  0.60993680962E+03  0.47372430057E+03 0.  0.
      99925    2    3    3    0    0 -0.49480046721E+02 -0.11639206540E+03 -0.19919829247E+03  0.35328951503E+03  0.26294131246E+03 0.  0.
         25    1    4    4    0    0 -0.75652249039E+00 -0.26268737454E+02 -0.66305287874E+02  0.14399485475E+03  0.12509000000E+03 0.  0.
         25    1    4    4    0    0 -0.48723524230E+02 -0.90123327945E+02 -0.13289300460E+03  0.20929466029E+03  0.12509000000E+03 0.  0.
         25    1    3    3    0    0  0.49480046721E+02  0.11639206540E+03 -0.18499983191E+03  0.25664729459E+03  0.12509000000E+03 0.  0.
<mgrwt>
<rscale>  2 0.47372430E+03</rscale>
<asrwt>0</asrwt>
<pdfrwt beam="1">  1       21 0.16598433E-01 0.47372430E+03</pdfrwt>
<pdfrwt beam="2">  1       21 0.73098158E-01 0.47372430E+03</pdfrwt>
<totfact> 0.50219784E+04</totfact>
</mgrwt>
</event>
<event>
 7    0  0.4737014E-002  0.4486831E+03  0.7546771E-02  0.1028115E+00
         21   -1    0    0  502  501  0.00000000000E+00  0.00000000000E+00  0.13177526095E+04  0.13177526095E+04  0.00000000000E+00 0.  1.
         21   -1    0    0  501  502 -0.00000000000E+00 -0.00000000000E+00 -0.38193149191E+02  0.38193149191E+02  0.00000000000E+00 0.  1.
      99926    2    1    2    0    0  0.00000000000E+00  0.00000000000E+00  0.12795594603E+04  0.13559457587E+04  0.44868305969E+03 0.  0.
      99925    2    3    3    0    0  0.40050338769E+02 -0.65153569846E+02  0.58307146666E+03  0.64419295701E+03  0.26298899850E+03 0.  0.
         25    1    4    4    0    0  0.73701551586E+01 -0.42636504068E+02  0.20524430308E+03  0.24422310028E+03  0.12509000000E+03 0.  0.
         25    1    4    4    0    0  0.32680183610E+02 -0.22517065779E+02  0.37782716358E+03  0.39996985673E+03  0.12509000000E+03 0.  0.
         25    1    3    3    0    0 -0.40050338769E+02  0.65153569846E+02  0.69648799368E+03  0.71175280171E+03  0.12509000000E+03 0.  0.
<mgrwt>
<rscale>  2 0.44868306E+03</rscale>
<asrwt>0</asrwt>
<pdfrwt beam="1">  1       21 0.19378712E+00 0.44868306E+03</pdfrwt>
<pdfrwt beam="2">  1       21 0.56166405E-02 0.44868306E+03</pdfrwt>
<totfact> 0.28924379E+04</totfact>
</mgrwt>
</event>
<event>
 7    0  0.4737014E-002  0.4522467E+03  0.7546771E-02  0.1027054E+00
         21   -1    0    0  502  501  0.00000000000E+00  0.00000000000E+00  0.15079728559E+03  0.15079728559E+03  0.00000000000E+00 0. -1.
         21   -1    0    0  501  502 -0.00000000000E+00 -0.00000000000E+00 -0.33907621584E+03  0.33907621584E+03  0.00000000000E+00 0. -1.
      99926    2    1    2    0    0 -0.35527136788E-14  0.00000000000E+00 -0.18827893025E+03  0.48987350143E+03  0.45224671567E+03 0.  0.
      99925    2    3    3    0    0  0.12833663885E+02 -0.10897994386E+03 -0.10394416920E+03  0.30332272788E+03  0.26298090395E+03 0.  0.
         25    1    3    3    0    0 -0.12833663885E+02  0.10897994386E+03 -0.84334761055E+02  0.18655077356E+03  0.12509000000E+03 0.  0.
         25    1    4    4    0    0 -0.31145920685E+02 -0.50050420790E+02 -0.66633105733E+02  0.15350111360E+03  0.12509000000E+03 0.  0.
         25    1    4    4    0    0  0.43979584570E+02 -0.58929523070E+02 -0.37311063462E+02  0.14982161428E+03  0.12509000000E+03 0.  0.
<mgrwt>
<rscale>  2 0.45224672E+03</rscale>
<asrwt>0</asrwt>
<pdfrwt beam="1">  1       21 0.22176072E-01 0.45224672E+03</pdfrwt>
<pdfrwt beam="2">  1       21 0.49864149E-01 0.45224672E+03</pdfrwt>
<totfact> 0.67450380E+04</totfact>
</mgrwt>
</event>
<event>
 7    0  0.4737014E-002  0.4589125E+03  0.7546771E-02  0.1025097E+00
         21   -1    0    0  502  501  0.00000000000E+00  0.00000000000E+00  0.82143163825E+02  0.82143163825E+02  0.00000000000E+00 0.  1.
         21   -1    0    0  501  502 -0.00000000000E+00 -0.00000000000E+00 -0.64095619391E+03  0.64095619391E+03  0.00000000000E+00 0.  1.
      99926    2    1    2    0    0 -0.17763568394E-14  0.00000000000E+00 -0.55881303009E+03  0.72309935774E+03  0.45891249554E+03 0.  0.
      99925    2    3    3    0    0  0.62081237880E+01 -0.10052329300E+03 -0.25688687218E+03  0.38111926158E+03  0.26290217423E+03 0.  0.
         25    1    3    3    0    0 -0.62081237880E+01  0.10052329300E+03 -0.30192615791E+03  0.34198009616E+03  0.12509000000E+03 0.  0.
         25    1    4    4    0    0  0.39957979071E+02 -0.68229894051E+02 -0.13740707806E+03  0.20194101053E+03  0.12509000000E+03 0.  0.
         25    1    4    4    0    0 -0.33749855283E+02 -0.32293398947E+02 -0.11947979411E+03  0.17917825105E+03  0.12509000000E+03 0.  0.
<mgrwt>
<rscale>  2 0.45891250E+03</rscale>
<asrwt>0</asrwt>
<pdfrwt beam="1">  1       21 0.12079877E-01 0.45891250E+03</pdfrwt>
<pdfrwt beam="2">  1       21 0.94258265E-01 0.45891250E+03</pdfrwt>
<totfact> 0.50106960E+04</totfact>
</mgrwt>
</event>
<event>
 7    0  0.4737014E-002  0.4582075E+03  0.7546771E-02  0.1025302E+00
         21   -1    0    0  502  501  0.00000000000E+00  0.00000000000E+00  0.93090208091E+03  0.93090208091E+03  0.00000000000E+00 0. -1.
         21   -1    0    0  501  502 -0.00000000000E+00 -0.00000000000E+00 -0.56384587034E+02  0.56384587034E+02  0.00000000000E+00 0. -1.
      99926    2    1    2    0    0  0.00000000000E+00  0.00000000000E+00  0.87451749388E+03  0.98728666795E+03  0.45820750496E+03 0.  0.
      99925    2    3    3    0    0  0.18270102782E+02  0.10347009117E+03  0.44111046784E+03  0.52411389808E+03  0.26282518316E+03 0.  0.
         25    1    4    4    0    0  0.42821715075E+01  0.83825175447E+02  0.28729677972E+03  0.32439473604E+03  0.12509000000E+03 0.  0.
         25    1    4    4    0    0  0.13987931274E+02  0.19644915724E+02  0.15381368812E+03  0.19971916204E+03  0.12509000000E+03 0.  0.
         25    1    3    3    0    0 -0.18270102782E+02 -0.10347009117E+03  0.43340702604E+03  0.46317276987E+03  0.12509000000E+03 0.  0.
<mgrwt>
<rscale>  2 0.45820750E+03</rscale>
<asrwt>0</asrwt>
<pdfrwt beam="1">  1       21 0.13689736E+00 0.45820750E+03</pdfrwt>
<pdfrwt beam="2">  1       21 0.82918516E-02 0.45820750E+03</pdfrwt>
<totfact> 0.38686452E+04</totfact>
</mgrwt>
</event>
<event>
 6    0  0.4737014E-002  0.4566273E+03  0.7546771E-02  0.1025764E+00
         21   -1    0    0  502  501  0.00000000000E+00  0.00000000000E+00  0.71526810837E+02  0.71526810837E+02  0.00000000000E+00 0.  1.
         21   -1    0    0  501  502 -0.00000000000E+00 -0.00000000000E+00 -0.72877739597E+03  0.72877739597E+03  0.00000000000E+00 0.  1.
      99926    2    1    2    0    0 -0.71054273576E-14  0.71054273576E-14 -0.65725058513E+03  0.80030420681E+03  0.45662730073E+03 0.  0.
         25    1    3    3    0    0 -0.20781907961E+02  0.57478214462E+01 -0.30960866725E+03  0.33461912690E+03  0.12509000000E+03 0.  0.
         25    1    3    3    0    0 -0.51239074996E+02  0.56264419099E+02 -0.21475951295E+03  0.25992361217E+03  0.12509000000E+03 0.  0.
         25    1    3    3    0    0  0.72020982958E+02 -0.62012240546E+02 -0.13288240494E+03  0.20576146774E+03  0.12509000000E+03 0.  0.
<mgrwt>
<rscale>  2 0.45662730E+03</rscale>
<asrwt>0</asrwt>
<pdfrwt beam="1">  1       21 0.10518650E-01 0.45662730E+03</pdfrwt>
<pdfrwt beam="2">  1       21 0.10717314E+00 0.45662730E+03</pdfrwt>
<totfact> 0.47145134E+04</totfact>
</mgrwt>
</event>
<event>
 7    0  0.4737014E-002  0.4527613E+03  0.7546771E-02  0.1026902E+00
         21   -1    0    0  502  501  0.00000000000E+00  0.00000000000E+00  0.10645283110E+03  0.10645283110E+03  0.00000000000E+00 0. -1.
         21   -1    0    0  501  502 -0.00000000000E+00 -0.00000000000E+00 -0.48141698165E+03  0.48141698165E+03  0.00000000000E+00 0. -1.
      99926    2    1    2    0    0  0.00000000000E+00  0.13322676296E-14 -0.37496415055E+03  0.58786981275E+03  0.45276130858E+03 0.  0.
      99925    2    3    3    0    0  0.28302487378E+02  0.29253464078E+01 -0.96445287458E+02  0.28122693636E+03  0.26263531335E+03 0.  0.
         25    1    4    4    0    0 -0.95118646706E+01 -0.27562204939E+02 -0.32027326627E+02  0.13237601165E+03  0.12509000000E+03 0.  0.
         25    1    3    3    0    0 -0.28302487378E+02 -0.29253464078E+01 -0.27851886309E+03  0.30664287639E+03  0.12509000000E+03 0.  0.
         25    1    4    4    0    0  0.37814352049E+02  0.30487551347E+02 -0.64417960831E+02  0.14885092471E+03  0.12509000000E+03 0.  0.
<mgrwt>
<rscale>  2 0.45276131E+03</rscale>
<asrwt>0</asrwt>
<pdfrwt beam="1">  1       21 0.15654828E-01 0.45276131E+03</pdfrwt>
<pdfrwt beam="2">  1       21 0.70796616E-01 0.45276131E+03</pdfrwt>
<totfact> 0.60494523E+04</totfact>
</mgrwt>
</event>
<event>
 7    0  0.4737014E-002  0.4456186E+03  0.7546771E-02  0.1029037E+00
         21   -1    0    0  502  501  0.00000000000E+00  0.00000000000E+00  0.41728598281E+03  0.41728598281E+03  0.00000000000E+00 0.  1.
         21   -1    0    0  501  502 -0.00000000000E+00 -0.00000000000E+00 -0.11896873429E+03  0.11896873429E+03  0.00000000000E+00 0.  1.
      99926    2    1    2    0    0  0.00000000000E+00  0.00000000000E+00  0.29831724852E+03  0.53625471710E+03  0.44561860469E+03 0.  0.
      99925    2    3    3    0    0 -0.47344968868E+02 -0.64609732691E+02  0.26944534097E+03  0.38493697597E+03  0.26298235694E+03 0.  0.
         25    1    3    3    0    0  0.47344968868E+02  0.64609732691E+02  0.28871907558E+02  0.15131774113E+03  0.12509000000E+03 0.  0.
         25    1    4    4    0    0 -0.44045455050E+02 -0.26071675981E+02  0.18508303551E+03  0.22917890944E+03  0.12509000000E+03 0.  0.
         25    1    4    4    0    0 -0.32995138179E+01 -0.38538056710E+02  0.84362305454E+02  0.15575806653E+03  0.12509000000E+03 0.  0.
<mgrwt>
<rscale>  2 0.44561860E+03</rscale>
<asrwt>0</asrwt>
<pdfrwt beam="1">  1       21 0.61365585E-01 0.44561860E+03</pdfrwt>
<pdfrwt beam="2">  1       21 0.17495402E-01 0.44561860E+03</pdfrwt>
<totfact> 0.67670314E+04</totfact>
</mgrwt>
</event>
<event>
 7    0  0.4737014E-002  0.4528804E+03  0.7546771E-02  0.1026867E+00
         21   -1    0    0  502  501  0.00000000000E+00  0.00000000000E+00  0.15670990787E+03  0.15670990787E+03  0.00000000000E+00 0. -1.
         21   -1    0    0  501  502 -0.00000000000E+00 -0.00000000000E+00 -0.32719794610E+03  0.32719794610E+03  0.00000000000E+00 0. -1.
      99926    2    1    2    0    0  0.00000000000E+00  0.00000000000E+00 -0.17048803823E+03  0.48390785397E+03  0.45288038151E+03 0.  0.
      99925    2    3    3    0    0  0.10715215538E+03  0.75230334884E+01 -0.76734894660E+02  0.29423618907E+03  0.26296104363E+03 0.  0.
         25    1    3    3    0    0 -0.10715215538E+03 -0.75230334884E+01 -0.93753143569E+02  0.18967166490E+03  0.12509000000E+03 0.  0.
         25    1    4    4    0    0  0.14462156146E+02 -0.73452782934E+01 -0.49413709300E+02  0.13547077117E+03  0.12509000000E+03 0.  0.
         25    1    4    4    0    0  0.92689999235E+02  0.14868311782E+02 -0.27321185360E+02  0.15876541791E+03  0.12509000000E+03 0.  0.
<mgrwt>
<rscale>  2 0.45288038E+03</rscale>
<asrwt>0</asrwt>
<pdfrwt beam="1">  1       21 0.23045575E-01 0.45288038E+03</pdfrwt>
<pdfrwt beam="2">  1       21 0.48117345E-01 0.45288038E+03</pdfrwt>
<totfact> 0.67546141E+04</totfact>
</mgrwt>
</event>
<event>
 7    0  0.4737014E-002  0.4557975E+03  0.7546771E-02  0.1026007E+00
         21   -1    0    0  502  501  0.00000000000E+00  0.00000000000E+00  0.21873737521E+03  0.21873737521E+03  0.00000000000E+00 0.  1.
         21   -1    0    0  501  502 -0.00000000000E+00 -0.00000000000E+00 -0.23744380204E+03  0.23744380204E+03  0.00000000000E+00 0.  1.
      99926    2    1    2    0    0 -0.17763568394E-14  0.00000000000E+00 -0.18706426826E+02  0.45618117725E+03  0.45579747265E+03 0.  0.
      99925    2    3    3    0    0  0.97885322161E+01  0.77943765067E+02 -0.94377707509E+02  0.29021522684E+03  0.26295756376E+03 0.  0.
         25    1    4    4    0    0  0.21418531513E+02  0.29829777143E+01 -0.57405725160E+02  0.13932184692E+03  0.12509000000E+03 0.  0.
         25    1    3    3    0    0 -0.97885322161E+01 -0.77943765067E+02  0.75671280683E+02  0.16596595041E+03  0.12509000000E+03 0.  0.
         25    1    4    4    0    0 -0.11629999297E+02  0.74960787353E+02 -0.36971982348E+02  0.15089337992E+03  0.12509000000E+03 0.  0.
<mgrwt>
<rscale>  2 0.45579747E+03</rscale>
<asrwt>0</asrwt>
<pdfrwt beam="1">  1       21 0.32167261E-01 0.45579747E+03</pdfrwt>
<pdfrwt beam="2">  1       21 0.34918206E-01 0.45579747E+03</pdfrwt>
<totfact> 0.68025492E+04</totfact>
</mgrwt>
</event>
<event>
 7    0  0.4737014E-002  0.4617721E+03  0.7546771E-02  0.1024269E+00
         21   -1    0    0  502  501  0.00000000000E+00  0.00000000000E+00  0.27454638859E+03  0.27454638859E+03  0.00000000000E+00 0. -1.
         21   -1    0    0  501  502 -0.00000000000E+00 -0.00000000000E+00 -0.19416888363E+03  0.19416888363E+03  0.00000000000E+00 0. -1.
      99926    2    1    2    0    0 -0.14210854715E-13 -0.71054273576E-14  0.80377504961E+02  0.46871527222E+03  0.46177209001E+03 0.  0.
      99925    2    3    3    0    0  0.10693351314E+03  0.44108970774E+02  0.20310737896E+02  0.28806117694E+03  0.26303296001E+03 0.  0.
         25    1    4    4    0    0  0.66279595942E+02  0.61935854510E+02  0.73131911363E+01  0.15469332816E+03  0.12509000000E+03 0.  0.
         25    1    3    3    0    0 -0.10693351314E+03 -0.44108970774E+02  0.60066767065E+02  0.18065409528E+03  0.12509000000E+03 0.  0.
         25    1    4    4    0    0  0.40653917200E+02 -0.17826883736E+02  0.12997546760E+02  0.13336784878E+03  0.12509000000E+03 0.  0.
<mgrwt>
<rscale>  2 0.46177209E+03</rscale>
<asrwt>0</asrwt>
<pdfrwt beam="1">  1       21 0.40374469E-01 0.46177209E+03</pdfrwt>
<pdfrwt beam="2">  1       21 0.28554248E-01 0.46177209E+03</pdfrwt>
<totfact> 0.64018816E+04</totfact>
</mgrwt>
</event>
<event>
 7    0  0.4737014E-002  0.4555181E+03  0.7546771E-02  0.1026089E+00
         21   -1    0    0  502  501  0.00000000000E+00  0.00000000000E+00  0.47021879551E+03  0.47021879551E+03  0.00000000000E+00 0. -1.
         21   -1    0    0  501  502 -0.00000000000E+00 -0.00000000000E+00 -0.11031922737E+03  0.11031922737E+03  0.00000000000E+00 0. -1.
      99926    2    1    2    0    0 -0.71054273576E-14 -0.17763568394E-14  0.35989956814E+03  0.58053802289E+03  0.45551805329E+03 0.  0.
      99925    2    3    3    0    0  0.59507123261E+02  0.10375657797E+02  0.34910354721E+03  0.44120814755E+03  0.26294978760E+03 0.  0.
         25    1    4    4    0    0  0.19983741864E+02 -0.32566523155E+02  0.15121721454E+03  0.19993519561E+03  0.12509000000E+03 0.  0.
         25    1    4    4    0    0  0.39523381396E+02  0.42942180952E+02  0.19788633267E+03  0.24127295194E+03  0.12509000000E+03 0.  0.
         25    1    3    3    0    0 -0.59507123261E+02 -0.10375657797E+02  0.10796020932E+02  0.13932987534E+03  0.12509000000E+03 0.  0.
<mgrwt>
<rscale>  2 0.45551805E+03</rscale>
<asrwt>0</asrwt>
<pdfrwt beam="1">  1       21 0.69149822E-01 0.45551805E+03</pdfrwt>
<pdfrwt beam="2">  1       21 0.16223416E-01 0.45551805E+03</pdfrwt>
<totfact> 0.59647819E+04</totfact>
</mgrwt>
</event>
<event>
 7    0  0.4737014E-002  0.4607058E+03  0.7546771E-02  0.1024577E+00
         21   -1    0    0  502  501  0.00000000000E+00  0.00000000000E+00  0.50103936776E+03  0.50103936776E+03  0.00000000000E+00 0. -1.
         21   -1    0    0  501  502 -0.00000000000E+00 -0.00000000000E+00 -0.10590476736E+03  0.10590476736E+03  0.00000000000E+00 0. -1.
      99926    2    1    2    0    0 -0.14210854715E-13  0.00000000000E+00  0.39513460039E+03  0.60694413512E+03  0.46070579629E+03 0.  0.
      99925    2    3    3    0    0 -0.84107637163E+02 -0.26736729807E+02  0.14270605443E+03  0.31172112405E+03  0.26270914308E+03 0.  0.
         25    1    3    3    0    0  0.84107637163E+02  0.26736729807E+02  0.25242854596E+03  0.29522301107E+03  0.12509000000E+03 0.  0.
         25    1    4    4    0    0 -0.74395241419E+02 -0.37602928753E+02  0.65241731141E+02  0.16386770206E+03  0.12509000000E+03 0.  0.
         25    1    4    4    0    0 -0.97123957437E+01  0.10866198946E+02  0.77464323288E+02  0.14785342199E+03  0.12509000000E+03 0.  0.
<mgrwt>
<rscale>  2 0.46070580E+03</rscale>
<asrwt>0</asrwt>
<pdfrwt beam="1">  1       21 0.73682259E-01 0.46070580E+03</pdfrwt>
<pdfrwt beam="2">  1       21 0.15574231E-01 0.46070580E+03</pdfrwt>
<totfact> 0.55699422E+04</totfact>
</mgrwt>
</event>
<event>
 7    0  0.4737014E-002  0.4577651E+03  0.7546771E-02  0.1025431E+00
         21   -1    0    0  502  501  0.00000000000E+00  0.00000000000E+00  0.83189919364E+02  0.83189919364E+02  0.00000000000E+00 0. -1.
         21   -1    0    0  501  502 -0.00000000000E+00 -0.00000000000E+00 -0.62973052541E+03  0.62973052541E+03  0.00000000000E+00 0. -1.
      99926    2    1    2    0    0  0.00000000000E+00  0.00000000000E+00 -0.54654060605E+03  0.71292044477E+03  0.45776514341E+03 0.  0.
      99925    2    3    3    0    0 -0.10232729757E+03  0.47830610094E+02 -0.30402176094E+03  0.41758751160E+03  0.26304268783E+03 0.  0.
         25    1    4    4    0    0 -0.85120656488E+01  0.29509387797E+02 -0.13997953615E+03  0.19022365224E+03  0.12509000000E+03 0.  0.
         25    1    4    4    0    0 -0.93815231922E+02  0.18321222297E+02 -0.16404222479E+03  0.22736385936E+03  0.12509000000E+03 0.  0.
         25    1    3    3    0    0  0.10232729757E+03 -0.47830610094E+02 -0.24251884510E+03  0.29533293318E+03  0.12509000000E+03 0.  0.
<mgrwt>
<rscale>  2 0.45776514E+03</rscale>
<asrwt>0</asrwt>
<pdfrwt beam="1">  1       21 0.12233811E-01 0.45776514E+03</pdfrwt>
<pdfrwt beam="2">  1       21 0.92607433E-01 0.45776514E+03</pdfrwt>
<totfact> 0.51086662E+04</totfact>
</mgrwt>
</event>
<event>
 7    0  0.4737014E-002  0.4571145E+03  0.7546771E-02  0.1025621E+00
         21   -1    0    0  502  501  0.00000000000E+00  0.00000000000E+00  0.99541796378E+03  0.99541796378E+03  0.00000000000E+00 0.  1.
         21   -1    0    0  501  502 -0.00000000000E+00 -0.00000000000E+00 -0.52478873076E+02  0.52478873076E+02  0.00000000000E+00 0.  1.
      99926    2    1    2    0    0  0.00000000000E+00  0.00000000000E+00  0.94293909070E+03  0.10478968369E+04  0.45711448447E+03 0.  0.
      99925    2    3    3    0    0 -0.10601604069E+03 -0.17196515362E+02  0.49780297672E+03  0.57320874021E+03  0.26310707933E+03 0.  0.
         25    1    3    3    0    0  0.10601604069E+03  0.17196515362E+02  0.44513611398E+03  0.47468809665E+03  0.12509000000E+03 0.  0.
         25    1    4    4    0    0 -0.34476944855E+02 -0.18649226704E+02  0.16642587414E+03  0.21185262110E+03  0.12509000000E+03 0.  0.
         25    1    4    4    0    0 -0.71539095839E+02  0.14527113418E+01  0.33137710258E+03  0.36135611911E+03  0.12509000000E+03 0.  0.
<mgrwt>
<rscale>  2 0.45711448E+03</rscale>
<asrwt>0</asrwt>
<pdfrwt beam="1">  1       21 0.14638498E+00 0.45711448E+03</pdfrwt>
<pdfrwt beam="2">  1       21 0.77174819E-02 0.45711448E+03</pdfrwt>
<totfact> 0.36744451E+04</totfact>
</mgrwt>
</event>
<event>
 7    0  0.4737014E-002  0.4537168E+03  0.7546771E-02  0.1026619E+00
         21   -1    0    0  502  501  0.00000000000E+00  0.00000000000E+00  0.25836237097E+03  0.25836237097E+03  0.00000000000E+00 0.  1.
         21   -1    0    0  501  502 -0.00000000000E+00 -0.00000000000E+00 -0.19919592450E+03  0.19919592450E+03  0.00000000000E+00 0.  1.
      99926    2    1    2    0    0  0.00000000000E+00  0.00000000000E+00  0.59166446471E+02  0.45755829547E+03  0.45371678982E+03 0.  0.
      99925    2    3    3    0    0 -0.97393746197E+02  0.17013272869E+02 -0.15393130373E+02  0.28154229662E+03  0.26316178117E+03 0.  0.
         25    1    4    4    0    0 -0.23816323525E+02  0.10925334981E+02  0.26177984173E+02  0.13045832732E+03  0.12509000000E+03 0.  0.
         25    1    3    3    0    0  0.97393746197E+02 -0.17013272869E+02  0.74559576844E+02  0.17601599885E+03  0.12509000000E+03 0.  0.
         25    1    4    4    0    0 -0.73577422672E+02  0.60879378885E+01 -0.41571114546E+02  0.15108396930E+03  0.12509000000E+03 0.  0.
<mgrwt>
<rscale>  2 0.45371679E+03</rscale>
<asrwt>0</asrwt>
<pdfrwt beam="1">  1       21 0.37994466E-01 0.45371679E+03</pdfrwt>
<pdfrwt beam="2">  1       21 0.29293518E-01 0.45371679E+03</pdfrwt>
<totfact> 0.69062915E+04</totfact>
</mgrwt>
</event>
<event>
 7    0  0.4737014E-002  0.4375417E+03  0.7546771E-02  0.1031504E+00
         21   -1    0    0  502  501  0.00000000000E+00  0.00000000000E+00  0.10542365578E+03  0.10542365578E+03  0.00000000000E+00 0. -1.
         21   -1    0    0  501  502 -0.00000000000E+00 -0.00000000000E+00 -0.45398422774E+03  0.45398422774E+03  0.00000000000E+00 0. -1.
      99926    2    1    2    0    0  0.71054273576E-14 -0.14210854715E-13 -0.34856057195E+03  0.55940788352E+03  0.43754166410E+03 0.  0.
      99925    2    3    3    0    0  0.37141865341E+02 -0.66295193751E+02 -0.29771877119E+03  0.40446606321E+03  0.26302425495E+03 0.  0.
         25    1    4    4    0    0  0.24068514236E+02  0.62066860415E+01 -0.12145085756E+03  0.17611256409E+03  0.12509000000E+03 0.  0.
         25    1    3    3    0    0 -0.37141865341E+02  0.66295193751E+02 -0.50841800762E+02  0.15494182031E+03  0.12509000000E+03 0.  0.
         25    1    4    4    0    0  0.13073351105E+02 -0.72501879792E+02 -0.17626791363E+03  0.22835349912E+03  0.12509000000E+03 0.  0.
<mgrwt>
<rscale>  2 0.43754166E+03</rscale>
<asrwt>0</asrwt>
<pdfrwt beam="1">  1       21 0.15503479E-01 0.43754166E+03</pdfrwt>
<pdfrwt beam="2">  1       21 0.66762385E-01 0.43754166E+03</pdfrwt>
<totfact> 0.70490486E+04</totfact>
</mgrwt>
</event>
<event>
 7    0  0.4737014E-002  0.4569166E+03  0.7546771E-02  0.1025679E+00
         21   -1    0    0  502  501  0.00000000000E+00  0.00000000000E+00  0.17108551541E+03  0.17108551541E+03  0.00000000000E+00 0.  1.
         21   -1    0    0  501  502 -0.00000000000E+00 -0.00000000000E+00 -0.30507082055E+03  0.30507082055E+03  0.00000000000E+00 0.  1.
      99926    2    1    2    0    0  0.00000000000E+00  0.00000000000E+00 -0.13398530514E+03  0.47615633597E+03  0.45691661634E+03 0.  0.
      99925    2    3    3    0    0  0.48362871683E+02  0.30546906223E+02 -0.18818477178E+03  0.32831462629E+03  0.26287811751E+03 0.  0.
         25    1    4    4    0    0  0.10400554247E+02  0.17942224678E+02 -0.13882332325E+03  0.18801467531E+03  0.12509000000E+03 0.  0.
         25    1    4    4    0    0  0.37962317435E+02  0.12604681544E+02 -0.49361448534E+02  0.14029995097E+03  0.12509000000E+03 0.  0.
         25    1    3    3    0    0 -0.48362871683E+02 -0.30546906223E+02  0.54199466638E+02  0.14784170968E+03  0.12509000000E+03 0.  0.
<mgrwt>
<rscale>  2 0.45691662E+03</rscale>
<asrwt>0</asrwt>
<pdfrwt beam="1">  1       21 0.25159635E-01 0.45691662E+03</pdfrwt>
<pdfrwt beam="2">  1       21 0.44863355E-01 0.45691662E+03</pdfrwt>
<totfact> 0.65971826E+04</totfact>
</mgrwt>
</event>
<event>
 7    0  0.4737014E-002  0.4255347E+03  0.7546771E-02  0.1035280E+00
         21   -1    0    0  502  501  0.00000000000E+00  0.00000000000E+00  0.20039704804E+03  0.20039704804E+03  0.00000000000E+00 0.  1.
         21   -1    0    0  501  502 -0.00000000000E+00 -0.00000000000E+00 -0.22590128859E+03  0.22590128859E+03  0.00000000000E+00 0.  1.
      99926    2    1    2    0    0  0.00000000000E+00  0.00000000000E+00 -0.25504240547E+02  0.42629833664E+03  0.42553472894E+03 0.  0.
      99925    2    3    3    0    0  0.64685085396E+02 -0.35748274540E+02  0.20352252628E+02  0.27394209137E+03  0.26299801488E+03 0.  0.
         25    1    4    4    0    0  0.72604180944E+02 -0.11813583668E+02  0.18795413644E+02  0.14632738474E+03  0.12509000000E+03 0.  0.
         25    1    4    4    0    0 -0.79190955483E+01 -0.23934690872E+02  0.15568389840E+01  0.12761470663E+03  0.12509000000E+03 0.  0.
         25    1    3    3    0    0 -0.64685085396E+02  0.35748274540E+02 -0.45856493175E+02  0.15235624527E+03  0.12509000000E+03 0.  0.
<mgrwt>
<rscale>  2 0.42553473E+03</rscale>
<asrwt>0</asrwt>
<pdfrwt beam="1">  1       21 0.29470154E-01 0.42553473E+03</pdfrwt>
<pdfrwt beam="2">  1       21 0.33220778E-01 0.42553473E+03</pdfrwt>
<totfact> 0.90090997E+04</totfact>
</mgrwt>
</event>
<event>
 7    0  0.4737014E-002  0.4606060E+03  0.7546771E-02  0.1024606E+00
         21   -1    0    0  502  501  0.00000000000E+00  0.00000000000E+00  0.19291124615E+03  0.19291124615E+03  0.00000000000E+00 0. -1.
         21   -1    0    0  501  502 -0.00000000000E+00 -0.00000000000E+00 -0.27494234466E+03  0.27494234466E+03  0.00000000000E+00 0. -1.
      99926    2    1    2    0    0  0.00000000000E+00  0.00000000000E+00 -0.82031098514E+02  0.46785359081E+03  0.46060599357E+03 0.  0.
      99925    2    3    3    0    0 -0.10559814934E+03  0.48148384213E+02 -0.74947048327E+02  0.29707031319E+03  0.26299139697E+03 0.  0.
         25    1    3    3    0    0  0.10559814934E+03 -0.48148384213E+02 -0.70840501870E+01  0.17078327762E+03  0.12509000000E+03 0.  0.
         25    1    4    4    0    0 -0.74264931695E+02  0.54885523375E+02 -0.20111176181E+02  0.15677904281E+03  0.12509000000E+03 0.  0.
         25    1    4    4    0    0 -0.31333217647E+02 -0.67371391616E+01 -0.54835872146E+02  0.14029127038E+03  0.12509000000E+03 0.  0.
<mgrwt>
<rscale>  2 0.46060599E+03</rscale>
<asrwt>0</asrwt>
<pdfrwt beam="1">  1       21 0.28369301E-01 0.46060599E+03</pdfrwt>
<pdfrwt beam="2">  1       21 0.40432697E-01 0.46060599E+03</pdfrwt>
<totfact> 0.64668542E+04</totfact>
</mgrwt>
</event>
<event>
 7    0  0.4737014E-002  0.4566735E+03  0.7546771E-02  0.1025750E+00
         21   -1    0    0  502  501  0.00000000000E+00  0.00000000000E+00  0.50348356279E+02  0.50348356279E+02  0.00000000000E+00 0. -1.
         21   -1    0    0  501  502 -0.00000000000E+00 -0.00000000000E+00 -0.10355385929E+04  0.10355385929E+04  0.00000000000E+00 0. -1.
      99926    2    1    2    0    0  0.00000000000E+00  0.00000000000E+00 -0.98519023663E+03  0.10858869492E+04  0.45667347642E+03 0.  0.
      99925    2    3    3    0    0 -0.78010596952E+02  0.82596724923E+02 -0.65762173533E+03  0.71729977721E+03  0.26295389596E+03 0.  0.
         25    1    4    4    0    0 -0.77174079155E+02  0.62242621173E+02 -0.37565103873E+03  0.40815584448E+03  0.12509000000E+03 0.  0.
         25    1    4    4    0    0 -0.83651779661E+00  0.20354103751E+02 -0.28197069660E+03  0.30914393273E+03  0.12509000000E+03 0.  0.
         25    1    3    3    0    0  0.78010596952E+02 -0.82596724923E+02 -0.32756850130E+03  0.36858717198E+03  0.12509000000E+03 0.  0.
<mgrwt>
<rscale>  2 0.45667348E+03</rscale>
<asrwt>0</asrwt>
<pdfrwt beam="1">  1       21 0.74041707E-02 0.45667348E+03</pdfrwt>
<pdfrwt beam="2">  1       21 0.15228507E+00 0.45667348E+03</pdfrwt>
<totfact> 0.35521405E+04</totfact>
</mgrwt>
</event>
<event>
 7    0  0.4737014E-002  0.4523340E+03  0.7546771E-02  0.1027028E+00
         21   -1    0    0  502  501  0.00000000000E+00  0.00000000000E+00  0.58747293805E+02  0.58747293805E+02  0.00000000000E+00 0. -1.
         21   -1    0    0  501  502 -0.00000000000E+00 -0.00000000000E+00 -0.87070401031E+03  0.87070401031E+03  0.00000000000E+00 0. -1.
      99926    2    1    2    0    0  0.00000000000E+00  0.00000000000E+00 -0.81195671650E+03  0.92945130411E+03  0.45233396649E+03 0.  0.
      99925    2    3    3    0    0 -0.89185201482E+02  0.35163621779E+02 -0.39834314579E+03  0.48682937239E+03  0.26293553500E+03 0.  0.
         25    1    3    3    0    0  0.89185201482E+02 -0.35163621779E+02 -0.41361357071E+03  0.44262193172E+03  0.12509000000E+03 0.  0.
         25    1    4    4    0    0 -0.98881599437E+01 -0.40749961284E+01 -0.15805898153E+03  0.20185274594E+03  0.12509000000E+03 0.  0.
         25    1    4    4    0    0 -0.79297041538E+02  0.39238617907E+02 -0.24028416426E+03  0.28497662646E+03  0.12509000000E+03 0.  0.
<mgrwt>
<rscale>  2 0.45233397E+03</rscale>
<asrwt>0</asrwt>
<pdfrwt beam="1">  1       21 0.86393083E-02 0.45233397E+03</pdfrwt>
<pdfrwt beam="2">  1       21 0.12804470E+00 0.45233397E+03</pdfrwt>
<totfact> 0.42871322E+04</totfact>
</mgrwt>
</event>
<event>
 7    0  0.4737014E-002  0.4570229E+03  0.7546771E-02  0.1025648E+00
         21   -1    0    0  502  501  0.00000000000E+00  0.00000000000E+00  0.63158579856E+03  0.63158579856E+03  0.00000000000E+00 0. -1.
         21   -1    0    0  501  502 -0.00000000000E+00 -0.00000000000E+00 -0.82676790030E+02  0.82676790030E+02  0.00000000000E+00 0. -1.
      99926    2    1    2    0    0  0.00000000000E+00  0.00000000000E+00  0.54890900853E+03  0.71426258859E+03  0.45702291607E+03 0.  0.
      99925    2    3    3    0    0 -0.88565885253E+02  0.16687000440E+02  0.23304233021E+03  0.36277768339E+03  0.26301434919E+03 0.  0.
         25    1    3    3    0    0  0.88565885253E+02 -0.16687000440E+02  0.31586667832E+03  0.35148490520E+03  0.12509000000E+03 0.  0.
         25    1    4    4    0    0 -0.22372784483E+02  0.23872731036E+02  0.70981655761E+02  0.14750034687E+03  0.12509000000E+03 0.  0.
         25    1    4    4    0    0 -0.66193100770E+02 -0.71857305951E+01  0.16206067445E+03  0.21527733652E+03  0.12509000000E+03 0.  0.
<mgrwt>
<rscale>  2 0.45702292E+03</rscale>
<asrwt>0</asrwt>
<pdfrwt beam="1">  1       21 0.92880262E-01 0.45702292E+03</pdfrwt>
<pdfrwt beam="2">  1       21 0.12158352E-01 0.45702292E+03</pdfrwt>
<totfact> 0.51313955E+04</totfact>
</mgrwt>
</event>
<event>
 6    0  0.4737014E-002  0.4567937E+03  0.7546771E-02  0.1025715E+00
         21   -1    0    0  502  501  0.00000000000E+00  0.00000000000E+00  0.21004838711E+03  0.21004838711E+03  0.00000000000E+00 0.  1.
         21   -1    0    0  501  502 -0.00000000000E+00 -0.00000000000E+00 -0.24834806679E+03  0.24834806679E+03  0.00000000000E+00 0.  1.
      99926    2    1    2    0    0  0.71054273576E-14  0.00000000000E+00 -0.38299679682E+02  0.45839645389E+03  0.45679365525E+03 0.  0.
         25    1    3    3    0    0  0.47428713301E+02  0.40382842478E+02 -0.15692385954E+02  0.14062011196E+03  0.12509000000E+03 0.  0.
         25    1    3    3    0    0  0.85783846824E+01 -0.11886962307E+01 -0.95551623577E+02  0.15764714571E+03  0.12509000000E+03 0.  0.
         25    1    3    3    0    0 -0.56007097983E+02 -0.39194146248E+02  0.72944329849E+02  0.16012919622E+03  0.12509000000E+03 0.  0.
<mgrwt>
<rscale>  2 0.45679366E+03</rscale>
<asrwt>0</asrwt>
<pdfrwt beam="1">  1       21 0.30889469E-01 0.45679366E+03</pdfrwt>
<pdfrwt beam="2">  1       21 0.36521774E-01 0.45679366E+03</pdfrwt>
<totfact> 0.67328996E+04</totfact>
</mgrwt>
</event>
<event>
 7    0  0.4737014E-002  0.4636289E+03  0.7546771E-02  0.1023734E+00
         21   -1    0    0  502  501  0.00000000000E+00  0.00000000000E+00  0.93711429591E+03  0.93711429591E+03  0.00000000000E+00 0. -1.
         21   -1    0    0  501  502 -0.00000000000E+00 -0.00000000000E+00 -0.57344065368E+02  0.57344065368E+02  0.00000000000E+00 0. -1.
      99926    2    1    2    0    0  0.00000000000E+00  0.00000000000E+00  0.87977023055E+03  0.99445836128E+03  0.46362891818E+03 0.  0.
      99925    2    3    3    0    0  0.10809075615E+03 -0.39015861622E+02  0.63049380146E+03  0.69280940103E+03  0.26316645580E+03 0.  0.
         25    1    4    4    0    0  0.52195608167E+02 -0.55578167350E+02  0.27745837403E+03  0.31375782320E+03  0.12509000000E+03 0.  0.
         25    1    3    3    0    0 -0.10809075615E+03  0.39015861622E+02  0.24927642909E+03  0.30164896025E+03  0.12509000000E+03 0.  0.
         25    1    4    4    0    0  0.55895147979E+02  0.16562305728E+02  0.35303542743E+03  0.37905157783E+03  0.12509000000E+03 0.  0.
<mgrwt>
<rscale>  2 0.46362892E+03</rscale>
<asrwt>0</asrwt>
<pdfrwt beam="1">  1       21 0.13781092E+00 0.46362892E+03</pdfrwt>
<pdfrwt beam="2">  1       21 0.84329514E-02 0.46362892E+03</pdfrwt>
<totfact> 0.36837007E+04</totfact>
</mgrwt>
</event>
<event>
 7    0  0.4737014E-002  0.4484589E+03  0.7546771E-02  0.1028183E+00
         21   -1    0    0  502  501  0.00000000000E+00  0.00000000000E+00  0.33987753629E+02  0.33987753629E+02  0.00000000000E+00 0. -1.
         21   -1    0    0  501  502 -0.00000000000E+00 -0.00000000000E+00 -0.14793223081E+04  0.14793223081E+04  0.00000000000E+00 0. -1.
      99926    2    1    2    0    0  0.00000000000E+00  0.00000000000E+00 -0.14453345545E+04  0.15133100618E+04  0.44845888172E+03 0.  0.
      99925    2    3    3    0    0 -0.64340691363E+02  0.84447554885E+02 -0.88037279006E+03  0.92500706375E+03  0.26326926219E+03 0.  0.
         25    1    4    4    0    0 -0.47262024579E+02  0.43159598264E+02 -0.32692640975E+03  0.35584383567E+03  0.12509000000E+03 0.  0.
         25    1    4    4    0    0 -0.17078666784E+02  0.41287956621E+02 -0.55344638031E+03  0.56916322808E+03  0.12509000000E+03 0.  0.
         25    1    3    3    0    0  0.64340691363E+02 -0.84447554885E+02 -0.56496176445E+03  0.58830299802E+03  0.12509000000E+03 0.  0.
<mgrwt>
<rscale>  2 0.44845888E+03</rscale>
<asrwt>0</asrwt>
<pdfrwt beam="1">  1       21 0.49981983E-02 0.44845888E+03</pdfrwt>
<pdfrwt beam="2">  1       21 0.21754743E+00 0.44845888E+03</pdfrwt>
<totfact> 0.24685321E+04</totfact>
</mgrwt>
</event>
<event>
 7    0  0.4737014E-002  0.4493242E+03  0.7546771E-02  0.1027924E+00
         21   -1    0    0  502  501  0.00000000000E+00  0.00000000000E+00  0.15622888987E+03  0.15622888987E+03  0.00000000000E+00 0. -1.
         21   -1    0    0  501  502 -0.00000000000E+00 -0.00000000000E+00 -0.32307118983E+03  0.32307118983E+03  0.00000000000E+00 0. -1.
      99926    2    1    2    0    0  0.00000000000E+00  0.35527136788E-14 -0.16684229996E+03  0.47930007970E+03  0.44932417401E+03 0.  0.
      99925    2    3    3    0    0  0.18527875213E+02  0.27682925597E+02 -0.21491912370E+03  0.34121128359E+03  0.26291687620E+03 0.  0.
         25    1    3    3    0    0 -0.18527875213E+02 -0.27682925597E+02  0.48076823743E+02  0.13808879611E+03  0.12509000000E+03 0.  0.
         25    1    4    4    0    0  0.43325444897E+01 -0.26535171277E+02 -0.10400662520E+03  0.16488715063E+03  0.12509000000E+03 0.  0.
         25    1    4    4    0    0  0.14195330723E+02  0.54218096875E+02 -0.11091249850E+03  0.17632413297E+03  0.12509000000E+03 0.  0.
<mgrwt>
<rscale>  2 0.44932417E+03</rscale>
<asrwt>0</asrwt>
<pdfrwt beam="1">  1       21 0.22974837E-01 0.44932417E+03</pdfrwt>
<pdfrwt beam="2">  1       21 0.47510468E-01 0.44932417E+03</pdfrwt>
<totfact> 0.69845285E+04</totfact>
</mgrwt>
</event>
<event>
 7    0  0.4737014E-002  0.4528983E+03  0.7546771E-02  0.1026861E+00
         21   -1    0    0  502  501  0.00000000000E+00  0.00000000000E+00  0.29771319867E+03  0.29771319867E+03  0.00000000000E+00 0.  1.
         21   -1    0    0  501  502 -0.00000000000E+00 -0.00000000000E+00 -0.17224367614E+03  0.17224367614E+03  0.00000000000E+00 0.  1.
      99926    2    1    2    0    0  0.00000000000E+00  0.00000000000E+00  0.12546952253E+03  0.46995687481E+03  0.45289829222E+03 0.  0.
      99925    2    3    3    0    0 -0.36042419911E+02 -0.21212921775E+02 -0.27705218675E+02  0.26782064964E+03  0.26308036253E+03 0.  0.
         25    1    3    3    0    0  0.36042419911E+02  0.21212921775E+02  0.15317474120E+03  0.20213622517E+03  0.12509000000E+03 0.  0.
         25    1    4    4    0    0  0.10782284914E+01 -0.46524683258E+02 -0.13184652689E+02  0.13411581523E+03  0.12509000000E+03 0.  0.
         25    1    4    4    0    0 -0.37120648403E+02  0.25311761483E+02 -0.14520565987E+02  0.13370483441E+03  0.12509000000E+03 0.  0.
<mgrwt>
<rscale>  2 0.45289829E+03</rscale>
<asrwt>0</asrwt>
<pdfrwt beam="1">  1       21 0.43781353E-01 0.45289829E+03</pdfrwt>
<pdfrwt beam="2">  1       21 0.25329952E-01 0.45289829E+03</pdfrwt>
<totfact> 0.68575237E+04</totfact>
</mgrwt>
</event>
<event>
 7    0  0.4737014E-002  0.4615671E+03  0.7546771E-02  0.1024328E+00
         21   -1    0    0  502  501  0.00000000000E+00  0.00000000000E+00  0.36842060626E+03  0.36842060626E+03  0.00000000000E+00 0.  1.
         21   -1    0    0  501  502 -0.00000000000E+00 -0.00000000000E+00 -0.14456589940E+03  0.14456589940E+03  0.00000000000E+00 0.  1.
      99926    2    1    2    0    0  0.14210854715E-13 -0.14210854715E-13  0.22385470686E+03  0.51298650565E+03  0.46156714051E+03 0.  0.
      99925    2    3    3    0    0  0.81522142297E+02 -0.71035371151E+02  0.19637050497E+03  0.34537155079E+03  0.26273227673E+03 0.  0.
         25    1    3    3    0    0 -0.81522142297E+02  0.71035371151E+02  0.27484201890E+02  0.16761495486E+03  0.12509000000E+03 0.  0.
         25    1    4    4    0    0  0.72027809197E+02 -0.60608801729E+02  0.12734879156E+03  0.20180846106E+03  0.12509000000E+03 0.  0.
         25    1    4    4    0    0  0.94943331000E+01 -0.10426569422E+02  0.69021713413E+02  0.14356308973E+03  0.12509000000E+03 0.  0.
<mgrwt>
<rscale>  2 0.46156714E+03</rscale>
<asrwt>0</asrwt>
<pdfrwt beam="1">  1       21 0.54179501E-01 0.46156714E+03</pdfrwt>
<pdfrwt beam="2">  1       21 0.21259691E-01 0.46156714E+03</pdfrwt>
<totfact> 0.61119423E+04</totfact>
</mgrwt>
</event>
<event>
 7    0  0.4737014E-002  0.4564878E+03  0.7546771E-02  0.1025805E+00
         21   -1    0    0  502  501  0.00000000000E+00  0.00000000000E+00  0.13107835103E+03  0.13107835103E+03  0.00000000000E+00 0. -1.
         21   -1    0    0  501  502 -0.00000000000E+00 -0.00000000000E+00 -0.39743624845E+03  0.39743624845E+03  0.00000000000E+00 0. -1.
      99926    2    1    2    0    0  0.00000000000E+00  0.17763568394E-14 -0.26635789742E+03  0.52851459949E+03  0.45648784469E+03 0.  0.
      99925    2    3    3    0    0  0.38129129015E+02  0.50800115366E+01 -0.42525156119E+02  0.26923050592E+03  0.26305330148E+03 0.  0.
         25    1    4    4    0    0 -0.99167724990E+00  0.25328187563E+02  0.66050193562E+01  0.12780310986E+03  0.12509000000E+03 0.  0.
         25    1    4    4    0    0  0.39120806265E+02 -0.20248176026E+02 -0.49130175475E+02  0.14142739606E+03  0.12509000000E+03 0.  0.
         25    1    3    3    0    0 -0.38129129015E+02 -0.50800115366E+01 -0.22383274130E+03  0.25928409356E+03  0.12509000000E+03 0.  0.
<mgrwt>
<rscale>  2 0.45648784E+03</rscale>
<asrwt>0</asrwt>
<pdfrwt beam="1">  1       21 0.19276228E-01 0.45648784E+03</pdfrwt>
<pdfrwt beam="2">  1       21 0.58446506E-01 0.45648784E+03</pdfrwt>
<totfact> 0.62566068E+04</totfact>
</mgrwt>
</event>
<event>
 7    0  0.4737014E-002  0.4448549E+03  0.7546771E-02  0.1029268E+00
         21   -1    0    0  502  501  0.00000000000E+00  0.00000000000E+00  0.27307145116E+03  0.27307145116E+03  0.00000000000E+00 0.  1.
         21   -1    0    0  501  502 -0.00000000000E+00 -0.00000000000E+00 -0.18117593894E+03  0.18117593894E+03  0.00000000000E+00 0.  1.
      99926    2    1    2    0    0  0.00000000000E+00  0.00000000000E+00  0.91895512214E+02  0.45424739010E+03  0.44485492719E+03 0.  0.
      99925    2    3    3    0    0  0.44969292033E+02  0.92715193776E+02  0.64705863733E+02  0.28991501512E+03  0.26314544041E+03 0.  0.
         25    1    4    4    0    0  0.51406746889E+02  0.48296339423E+02  0.63480281281E+02  0.15701096853E+03  0.12509000000E+03 0.  0.
         25    1    4    4    0    0 -0.64374548564E+01  0.44418854353E+02  0.12255824520E+01  0.13290404659E+03  0.12509000000E+03 0.  0.
         25    1    3    3    0    0 -0.44969292033E+02 -0.92715193776E+02  0.27189648481E+02  0.16433237498E+03  0.12509000000E+03 0.  0.
<mgrwt>
<rscale>  2 0.44485493E+03</rscale>
<asrwt>0</asrwt>
<pdfrwt beam="1">  1       21 0.40157567E-01 0.44485493E+03</pdfrwt>
<pdfrwt beam="2">  1       21 0.26643520E-01 0.44485493E+03</pdfrwt>
<totfact> 0.74438034E+04</totfact>
</mgrwt>
</event>
<event>
 7    0  0.4737014E-002  0.4791180E+03  0.7546771E-02  0.1019378E+00
         21   -1    0    0  502  501  0.00000000000E+00  0.00000000000E+00  0.51516599743E+03  0.51516599743E+03  0.00000000000E+00 0.  1.
         21   -1    0    0  501  502 -0.00000000000E+00 -0.00000000000E+00 -0.11139808551E+03  0.11139808551E+03  0.00000000000E+00 0.  1.
      99926    2    1    2    0    0  0.71054273576E-14  0.00000000000E+00  0.40376791192E+03  0.62656408294E+03  0.47911796390E+03 0.  0.
      99925    2    3    3    0    0 -0.54338870950E+02  0.76510736271E+02  0.37482611011E+03  0.46753030774E+03  0.26321734399E+03 0.  0.
         25    1    4    4    0    0 -0.38261885200E+02  0.94773564539E+01  0.13377061024E+03  0.18733893458E+03  0.12509000000E+03 0.  0.
         25    1    4    4    0    0 -0.16076985750E+02  0.67033379817E+02  0.24105549987E+03  0.28019137317E+03  0.12509000000E+03 0.  0.
         25    1    3    3    0    0  0.54338870950E+02 -0.76510736271E+02  0.28941801808E+02  0.15903377519E+03  0.12509000000E+03 0.  0.
<mgrwt>
<rscale>  2 0.47911796E+03</rscale>
<asrwt>0</asrwt>
<pdfrwt beam="1">  1       21 0.75759705E-01 0.47911796E+03</pdfrwt>
<pdfrwt beam="2">  1       21 0.16382072E-01 0.47911796E+03</pdfrwt>
<totfact> 0.47383002E+04</totfact>
</mgrwt>
</event>
<event>
 7    0  0.4737014E-002  0.4627532E+03  0.7546771E-02  0.1023986E+00
         21   -1    0    0  502  501  0.00000000000E+00  0.00000000000E+00  0.23970070686E+03  0.23970070686E+03  0.00000000000E+00 0.  1.
         21   -1    0    0  501  502 -0.00000000000E+00 -0.00000000000E+00 -0.22334159999E+03  0.22334159999E+03  0.00000000000E+00 0.  1.
      99926    2    1    2    0    0  0.00000000000E+00  0.00000000000E+00  0.16359106864E+02  0.46304230685E+03  0.46275323614E+03 0.  0.
      99925    2    3    3    0    0 -0.25185899710E+02 -0.10199261371E+03 -0.49057444967E+02  0.28707737810E+03  0.26262133447E+03 0.  0.
         25    1    3    3    0    0  0.25185899710E+02  0.10199261371E+03  0.65416551831E+02  0.17596492875E+03  0.12509000000E+03 0.  0.
         25    1    4    4    0    0 -0.14997355183E+01 -0.24193259127E+02  0.72031791719E+01  0.12762036234E+03  0.12509000000E+03 0.  0.
         25    1    4    4    0    0 -0.23686164192E+02 -0.77799354581E+02 -0.56260624139E+02  0.15945701576E+03  0.12509000000E+03 0.  0.
<mgrwt>
<rscale>  2 0.46275324E+03</rscale>
<asrwt>0</asrwt>
<pdfrwt beam="1">  1       21 0.35250104E-01 0.46275324E+03</pdfrwt>
<pdfrwt beam="2">  1       21 0.32844353E-01 0.46275324E+03</pdfrwt>
<totfact> 0.63914259E+04</totfact>
</mgrwt>
</event>
<event>
 7    0  0.4737014E-002  0.4563690E+03  0.7546771E-02  0.1025840E+00
         21   -1    0    0  502  501  0.00000000000E+00  0.00000000000E+00  0.65007483716E+02  0.65007483716E+02  0.00000000000E+00 0.  1.
         21   -1    0    0  501  502 -0.00000000000E+00 -0.00000000000E+00 -0.80095634219E+03  0.80095634219E+03  0.00000000000E+00 0.  1.
      99926    2    1    2    0    0  0.00000000000E+00  0.00000000000E+00 -0.73594885847E+03  0.86596382590E+03  0.45636895763E+03 0.  0.
      99925    2    3    3    0    0 -0.52341169272E+02 -0.81391016132E+02 -0.57896870855E+03  0.64313121815E+03  0.26277157908E+03 0.  0.
         25    1    4    4    0    0 -0.64411910711E+01 -0.19212421221E+02 -0.33640323119E+03  0.35947913448E+03  0.12509000000E+03 0.  0.
         25    1    3    3    0    0  0.52341169272E+02  0.81391016132E+02 -0.15698014992E+03  0.22283260775E+03  0.12509000000E+03 0.  0.
         25    1    4    4    0    0 -0.45899978201E+02 -0.62178594911E+02 -0.24256547736E+03  0.28365208367E+03  0.12509000000E+03 0.  0.
<mgrwt>
<rscale>  2 0.45636896E+03</rscale>
<asrwt>0</asrwt>
<pdfrwt beam="1">  1       21 0.95599245E-02 0.45636896E+03</pdfrwt>
<pdfrwt beam="2">  1       21 0.11778769E+00 0.45636896E+03</pdfrwt>
<totfact> 0.44256312E+04</totfact>
</mgrwt>
</event>
<event>
 7    0  0.4737014E-002  0.4396520E+03  0.7546771E-02  0.1030854E+00
         21   -1    0    0  502  501  0.00000000000E+00  0.00000000000E+00  0.23148604437E+02  0.23148604437E+02  0.00000000000E+00 0.  1.
         21   -1    0    0  501  502 -0.00000000000E+00 -0.00000000000E+00 -0.20875331573E+04  0.20875331573E+04  0.00000000000E+00 0.  1.
      99926    2    1    2    0    0  0.00000000000E+00 -0.71054273576E-14 -0.20643845529E+04  0.21106817618E+04  0.43965204109E+03 0.  0.
      99925    2    3    3    0    0  0.78547386273E+02 -0.52057329885E+02 -0.11871706010E+04  0.12195973197E+04  0.26299035864E+03 0.  0.
         25    1    4    4    0    0  0.24370071860E+01 -0.23575823744E+02 -0.46059350731E+03  0.47786571916E+03  0.12509000000E+03 0.  0.
         25    1    4    4    0    0  0.76110379087E+02 -0.28481506141E+02 -0.72657709372E+03  0.74173160052E+03  0.12509000000E+03 0.  0.
         25    1    3    3    0    0 -0.78547386273E+02  0.52057329885E+02 -0.87721395188E+03  0.89108444211E+03  0.12509000000E+03 0.  0.
<mgrwt>
<rscale>  2 0.43965204E+03</rscale>
<asrwt>0</asrwt>
<pdfrwt beam="1">  1       21 0.34042053E-02 0.43965204E+03</pdfrwt>
<pdfrwt beam="2">  1       21 0.30699028E+00 0.43965204E+03</pdfrwt>
<totfact> 0.13527278E+04</totfact>
</mgrwt>
</event>
<event>
 7    0  0.4737014E-002  0.4590774E+03  0.7546771E-02  0.1025049E+00
         21   -1    0    0  502  501  0.00000000000E+00  0.00000000000E+00  0.27884368053E+04  0.27884368053E+04  0.00000000000E+00 0.  1.
         21   -1    0    0  501  502 -0.00000000000E+00 -0.00000000000E+00 -0.18895178546E+02  0.18895178546E+02  0.00000000000E+00 0.  1.
      99926    2    1    2    0    0  0.00000000000E+00 -0.35527136788E-14  0.27695416267E+04  0.28073319838E+04  0.45907738477E+03 0.  0.
      99925    2    3    3    0    0  0.63796284041E+02 -0.82338882477E+01  0.11397176783E+04  0.11714495389E+04  0.26305868753E+03 0.  0.
         25    1    3    3    0    0 -0.63796284041E+02  0.82338882477E+01  0.16298239484E+04  0.16358824450E+04  0.12509000000E+03 0.  0.
         25    1    4    4    0    0  0.16683694188E+02 -0.34701559469E+02  0.46267959629E+03  0.48083517010E+03  0.12509000000E+03 0.  0.
         25    1    4    4    0    0  0.47112589853E+02  0.26467671221E+02  0.67703808203E+03  0.69061436878E+03  0.12509000000E+03 0.  0.
<mgrwt>
<rscale>  2 0.45907738E+03</rscale>
<asrwt>0</asrwt>
<pdfrwt beam="1">  1       21 0.41006395E+00 0.45907738E+03</pdfrwt>
<pdfrwt beam="2">  1       21 0.27787047E-02 0.45907738E+03</pdfrwt>
<totfact> 0.43319534E+03</totfact>
</mgrwt>
</event>
<event>
 7    0  0.4737014E-002  0.4844236E+03  0.7546771E-02  0.1017926E+00
         21   -1    0    0  502  501  0.00000000000E+00  0.00000000000E+00  0.11897010692E+04  0.11897010692E+04  0.00000000000E+00 0.  1.
         21   -1    0    0  501  502 -0.00000000000E+00 -0.00000000000E+00 -0.49312023828E+02  0.49312023828E+02  0.00000000000E+00 0.  1.
      99926    2    1    2    0    0 -0.71054273576E-14  0.35527136788E-14  0.11403890454E+04  0.12390130931E+04  0.48442364713E+03 0.  0.
      99925    2    3    3    0    0 -0.34482418946E+02 -0.23709954391E+02  0.10391840132E+04  0.10727567675E+04  0.26296857168E+03 0.  0.
         25    1    4    4    0    0 -0.39025259338E+02  0.89106405209E+01  0.41410385395E+03  0.43443282604E+03  0.12509000000E+03 0.  0.
         25    1    3    3    0    0  0.34482418946E+02  0.23709954391E+02  0.10120503217E+03  0.16625632556E+03  0.12509000000E+03 0.  0.
         25    1    4    4    0    0  0.45428403921E+01 -0.32620594912E+02  0.62508015929E+03  0.63832394147E+03  0.12509000000E+03 0.  0.
<mgrwt>
<rscale>  2 0.48442365E+03</rscale>
<asrwt>0</asrwt>
<pdfrwt beam="1">  1       21 0.17495602E+00 0.48442365E+03</pdfrwt>
<pdfrwt beam="2">  1       21 0.72517690E-02 0.48442365E+03</pdfrwt>
<totfact> 0.24761239E+04</totfact>
</mgrwt>
</event>
<event>
 7    0  0.4737014E-002  0.4569428E+03  0.7546771E-02  0.1025672E+00
         21   -1    0    0  502  501  0.00000000000E+00  0.00000000000E+00  0.18551612297E+03  0.18551612297E+03  0.00000000000E+00 0. -1.
         21   -1    0    0  501  502 -0.00000000000E+00 -0.00000000000E+00 -0.28137276479E+03  0.28137276479E+03  0.00000000000E+00 0. -1.
      99926    2    1    2    0    0 -0.71054273576E-14  0.00000000000E+00 -0.95856641827E+02  0.46688888776E+03  0.45694281669E+03 0.  0.
      99925    2    3    3    0    0 -0.61379789233E+02  0.11421855278E+02  0.38128780984E+02  0.27324607501E+03  0.26327110791E+03 0.  0.
         25    1    4    4    0    0 -0.58119066475E+02 -0.68554080891E+01 -0.87424842899E+01  0.13837905058E+03  0.12509000000E+03 0.  0.
         25    1    4    4    0    0 -0.32607227578E+01  0.18277263367E+02  0.46871265273E+02  0.13486702443E+03  0.12509000000E+03 0.  0.
         25    1    3    3    0    0  0.61379789233E+02 -0.11421855278E+02 -0.13398542281E+03  0.19364281275E+03  0.12509000000E+03 0.  0.
<mgrwt>
<rscale>  2 0.45694282E+03</rscale>
<asrwt>0</asrwt>
<pdfrwt beam="1">  1       21 0.27281783E-01 0.45694282E+03</pdfrwt>
<pdfrwt beam="2">  1       21 0.41378348E-01 0.45694282E+03</pdfrwt>
<totfact> 0.66635267E+04</totfact>
</mgrwt>
</event>
<event>
 7    0  0.4737014E-002  0.4546412E+03  0.7546771E-02  0.1026347E+00
         21   -1    0    0  502  501  0.00000000000E+00  0.00000000000E+00  0.82407677245E+03  0.82407677245E+03  0.00000000000E+00 0. -1.
         21   -1    0    0  501  502 -0.00000000000E+00 -0.00000000000E+00 -0.62706127113E+02  0.62706127113E+02  0.00000000000E+00 0. -1.
      99926    2    1    2    0    0  0.00000000000E+00  0.00000000000E+00  0.76137064533E+03  0.88678289956E+03  0.45464123370E+03 0.  0.
      99925    2    3    3    0    0 -0.34422897361E+02  0.10489732981E+03  0.43467729223E+03  0.51995263809E+03  0.26309316186E+03 0.  0.
         25    1    3    3    0    0  0.34422897361E+02 -0.10489732981E+03  0.32669335311E+03  0.36683026147E+03  0.12509000000E+03 0.  0.
         25    1    4    4    0    0 -0.26325429213E+02  0.84015869822E+02  0.28623051079E+03  0.32454138105E+03  0.12509000000E+03 0.  0.
         25    1    4    4    0    0 -0.80974681479E+01  0.20881459983E+02  0.14844678144E+03  0.19541125705E+03  0.12509000000E+03 0.  0.
<mgrwt>
<rscale>  2 0.45464123E+03</rscale>
<asrwt>0</asrwt>
<pdfrwt beam="1">  1       21 0.12118775E+00 0.45464123E+03</pdfrwt>
<pdfrwt beam="2">  1       21 0.92214898E-02 0.45464123E+03</pdfrwt>
<totfact> 0.43933397E+04</totfact>
</mgrwt>
</event>
<event>
 7    0  0.4737014E-002  0.4523521E+03  0.7546771E-02  0.1027023E+00
         21   -1    0    0  502  501  0.00000000000E+00  0.00000000000E+00  0.34608012384E+03  0.34608012384E+03  0.00000000000E+00 0.  1.
         21   -1    0    0  501  502 -0.00000000000E+00 -0.00000000000E+00 -0.14781432730E+03  0.14781432730E+03  0.00000000000E+00 0.  1.
      99926    2    1    2    0    0  0.14210854715E-13 -0.35527136788E-14  0.19826579654E+03  0.49389445114E+03  0.45235207835E+03 0.  0.
      99925    2    3    3    0    0 -0.88214294843E+02  0.30280011700E+02  0.60062304771E+02  0.28545656072E+03  0.26301963174E+03 0.  0.
         25    1    4    4    0    0 -0.79891236619E+02  0.19469980780E+02  0.55137305394E+02  0.15952843128E+03  0.12509000000E+03 0.  0.
         25    1    3    3    0    0  0.88214294843E+02 -0.30280011700E+02  0.13820349177E+03  0.20843789042E+03  0.12509000000E+03 0.  0.
         25    1    4    4    0    0 -0.83230582240E+01  0.10810030920E+02  0.49249993770E+01  0.12592812945E+03  0.12509000000E+03 0.  0.
<mgrwt>
<rscale>  2 0.45235208E+03</rscale>
<asrwt>0</asrwt>
<pdfrwt beam="1">  1       21 0.50894136E-01 0.45235208E+03</pdfrwt>
<pdfrwt beam="2">  1       21 0.21737401E-01 0.45235208E+03</pdfrwt>
<totfact> 0.67101203E+04</totfact>
</mgrwt>
</event>
<event>
 7    0  0.4737014E-002  0.4532952E+03  0.7546771E-02  0.1026744E+00
         21   -1    0    0  502  501  0.00000000000E+00  0.00000000000E+00  0.82147463602E+03  0.82147463602E+03  0.00000000000E+00 0.  1.
         21   -1    0    0  501  502 -0.00000000000E+00 -0.00000000000E+00 -0.62532838629E+02  0.62532838629E+02  0.00000000000E+00 0.  1.
      99926    2    1    2    0    0  0.00000000000E+00  0.00000000000E+00  0.75894179739E+03  0.88400747465E+03  0.45329522765E+03 0.  0.
      99925    2    3    3    0    0 -0.96962830072E+02 -0.22586577156E+02  0.57647614878E+03  0.64141076217E+03  0.26300393881E+03 0.  0.
         25    1    4    4    0    0 -0.72605056216E+02  0.12553494630E+02  0.35414979776E+03  0.38275144907E+03  0.12509000000E+03 0.  0.
         25    1    4    4    0    0 -0.24357773857E+02 -0.35140071785E+02  0.22232635102E+03  0.25865931310E+03  0.12509000000E+03 0.  0.
         25    1    3    3    0    0  0.96962830072E+02  0.22586577156E+02  0.18246564861E+03  0.24259671248E+03  0.12509000000E+03 0.  0.
<mgrwt>
<rscale>  2 0.45329523E+03</rscale>
<asrwt>0</asrwt>
<pdfrwt beam="1">  1       21 0.12080509E+00 0.45329523E+03</pdfrwt>
<pdfrwt beam="2">  1       21 0.91960062E-02 0.45329523E+03</pdfrwt>
<totfact> 0.44523849E+04</totfact>
</mgrwt>
</event>
<event>
 7    0  0.4737014E-002  0.4573047E+03  0.7546771E-02  0.1025566E+00
         21   -1    0    0  502  501  0.00000000000E+00  0.00000000000E+00  0.27688842990E+03  0.27688842990E+03  0.00000000000E+00 0.  1.
         21   -1    0    0  501  502 -0.00000000000E+00 -0.00000000000E+00 -0.18881934999E+03  0.18881934999E+03  0.00000000000E+00 0.  1.
      99926    2    1    2    0    0  0.00000000000E+00 -0.35527136788E-14  0.88069079910E+02  0.46570777989E+03  0.45730468335E+03 0.  0.
      99925    2    3    3    0    0 -0.10691956193E+03 -0.27018981560E+02  0.89929482422E+02  0.29893611778E+03  0.26289479381E+03 0.  0.
         25    1    3    3    0    0  0.10691956193E+03  0.27018981560E+02 -0.18604025118E+01  0.16677166212E+03  0.12509000000E+03 0.  0.
         25    1    4    4    0    0 -0.80102278847E+02  0.89831681525E+01  0.24544204415E+02  0.15082108094E+03  0.12509000000E+03 0.  0.
         25    1    4    4    0    0 -0.26817283083E+02 -0.36002149713E+02  0.65385278006E+02  0.14811503683E+03  0.12509000000E+03 0.  0.
<mgrwt>
<rscale>  2 0.45730468E+03</rscale>
<asrwt>0</asrwt>
<pdfrwt beam="1">  1       21 0.40718887E-01 0.45730468E+03</pdfrwt>
<pdfrwt beam="2">  1       21 0.27767551E-01 0.45730468E+03</pdfrwt>
<totfact> 0.66530432E+04</totfact>
</mgrwt>
</event>
<event>
 7    0  0.4737014E-002  0.4494927E+03  0.7546771E-02  0.1027873E+00
         21   -1    0    0  502  501  0.00000000000E+00  0.00000000000E+00  0.19214679794E+03  0.19214679794E+03  0.00000000000E+00 0.  1.
         21   -1    0    0  501  502 -0.00000000000E+00 -0.00000000000E+00 -0.26287674560E+03  0.26287674560E+03  0.00000000000E+00 0.  1.
      99926    2    1    2    0    0  0.00000000000E+00  0.00000000000E+00 -0.70729947657E+02  0.45502354354E+03  0.44949271371E+03 0.  0.
      99925    2    3    3    0    0  0.72054553474E+02 -0.79108642035E+02 -0.59010408590E+02  0.28999357166E+03  0.26299050812E+03 0.  0.
         25    1    4    4    0    0  0.36349989867E+02 -0.39381950950E+02 -0.70916931547E+02  0.15345676624E+03  0.12509000000E+03 0.  0.
         25    1    4    4    0    0  0.35704563607E+02 -0.39726691084E+02  0.11906522958E+02  0.13653680543E+03  0.12509000000E+03 0.  0.
         25    1    3    3    0    0 -0.72054553474E+02  0.79108642035E+02 -0.11719539068E+02  0.16502997187E+03  0.12509000000E+03 0.  0.
<mgrwt>
<rscale>  2 0.44949271E+03</rscale>
<asrwt>0</asrwt>
<pdfrwt beam="1">  1       21 0.28256882E-01 0.44949271E+03</pdfrwt>
<pdfrwt beam="2">  1       21 0.38658344E-01 0.44949271E+03</pdfrwt>
<totfact> 0.71639711E+04</totfact>
</mgrwt>
</event>
<event>
 7    0  0.4737014E-002  0.4552983E+03  0.7546771E-02  0.1026154E+00
         21   -1    0    0  502  501  0.00000000000E+00  0.00000000000E+00  0.50884294487E+03  0.50884294487E+03  0.00000000000E+00 0.  1.
         21   -1    0    0  501  502 -0.00000000000E+00 -0.00000000000E+00 -0.10184701443E+03  0.10184701443E+03  0.00000000000E+00 0.  1.
      99926    2    1    2    0    0  0.00000000000E+00  0.00000000000E+00  0.40699593045E+03  0.61068995930E+03  0.45529829671E+03 0.  0.
      99925    2    3    3    0    0 -0.17771344668E+02 -0.23205700946E+02  0.40300119998E+03  0.48216839994E+03  0.26310088078E+03 0.  0.
         25    1    4    4    0    0 -0.41959585662E+02 -0.27050179623E+02  0.17344163199E+03  0.21959468767E+03  0.12509000000E+03 0.  0.
         25    1    4    4    0    0  0.24188240994E+02  0.38444786774E+01  0.22955956799E+03  0.26257371227E+03  0.12509000000E+03 0.  0.
         25    1    3    3    0    0  0.17771344668E+02  0.23205700946E+02  0.39947304635E+01  0.12852155936E+03  0.12509000000E+03 0.  0.
<mgrwt>
<rscale>  2 0.45529830E+03</rscale>
<asrwt>0</asrwt>
<pdfrwt beam="1">  1       21 0.74829844E-01 0.45529830E+03</pdfrwt>
<pdfrwt beam="2">  1       21 0.14977502E-01 0.45529830E+03</pdfrwt>
<totfact> 0.57888537E+04</totfact>
</mgrwt>
</event>
<event>
 7    0  0.4737014E-002  0.4647444E+03  0.7546771E-02  0.1023414E+00
         21   -1    0    0  502  501  0.00000000000E+00  0.00000000000E+00  0.60791946971E+03  0.60791946971E+03  0.00000000000E+00 0. -1.
         21   -1    0    0  501  502 -0.00000000000E+00 -0.00000000000E+00 -0.88822356348E+02  0.88822356348E+02  0.00000000000E+00 0. -1.
      99926    2    1    2    0    0  0.00000000000E+00 -0.71054273576E-14  0.51909711336E+03  0.69674182606E+03  0.46474440188E+03 0.  0.
      99925    2    3    3    0    0 -0.19959156784E+02 -0.33855531420E+02  0.15062431499E+03  0.30563534927E+03  0.26302227569E+03 0.  0.
         25    1    3    3    0    0  0.19959156784E+02  0.33855531420E+02  0.36847279837E+03  0.39110647679E+03  0.12509000000E+03 0.  0.
         25    1    4    4    0    0 -0.17367436722E+02  0.19817531167E+02  0.54450011790E+02  0.13894845909E+03  0.12509000000E+03 0.  0.
         25    1    4    4    0    0 -0.25917200620E+01 -0.53673062588E+02  0.96174303199E+02  0.16668689017E+03  0.12509000000E+03 0.  0.
<mgrwt>
<rscale>  2 0.46474440E+03</rscale>
<asrwt>0</asrwt>
<pdfrwt beam="1">  1       21 0.89399920E-01 0.46474440E+03</pdfrwt>
<pdfrwt beam="2">  1       21 0.13062112E-01 0.46474440E+03</pdfrwt>
<totfact> 0.49196321E+04</totfact>
</mgrwt>
</event>
<event>
 7    0  0.4737014E-002  0.4223724E+03  0.7546771E-02  0.1036297E+00
         21   -1    0    0  502  501  0.00000000000E+00  0.00000000000E+00  0.77805433380E+02  0.77805433380E+02  0.00000000000E+00 0. -1.
         21   -1    0    0  501  502 -0.00000000000E+00 -0.00000000000E+00 -0.57321967618E+03  0.57321967618E+03  0.00000000000E+00 0. -1.
      99926    2    1    2    0    0  0.00000000000E+00  0.00000000000E+00 -0.49541424280E+03  0.65102510956E+03  0.42237237281E+03 0.  0.
      99925    2    3    3    0    0 -0.33521250100E+02 -0.46613222188E+02 -0.40513548217E+03  0.48642186107E+03  0.26301140912E+03 0.  0.
         25    1    4    4    0    0 -0.20564375845E+02 -0.32844108131E+02 -0.27679546039E+03  0.30621048968E+03  0.12509000000E+03 0.  0.
         25    1    3    3    0    0  0.33521250100E+02  0.46613222188E+02 -0.90278760631E+02  0.16460324849E+03  0.12509000000E+03 0.  0.
         25    1    4    4    0    0 -0.12956874254E+02 -0.13769114057E+02 -0.12834002177E+03  0.18021137140E+03  0.12509000000E+03 0.  0.
<mgrwt>
<rscale>  2 0.42237237E+03</rscale>
<asrwt>0</asrwt>
<pdfrwt beam="1">  1       21 0.11441976E-01 0.42237237E+03</pdfrwt>
<pdfrwt beam="2">  1       21 0.84297006E-01 0.42237237E+03</pdfrwt>
<totfact> 0.72585733E+04</totfact>
</mgrwt>
</event>
<event>
 7    0  0.4737014E-002  0.4555154E+03  0.7546771E-02  0.1026090E+00
         21   -1    0    0  502  501  0.00000000000E+00  0.00000000000E+00  0.19786527814E+04  0.19786527814E+04  0.00000000000E+00 0. -1.
         21   -1    0    0  501  502 -0.00000000000E+00 -0.00000000000E+00 -0.26216616133E+02  0.26216616133E+02  0.00000000000E+00 0. -1.
      99926    2    1    2    0    0  0.14210854715E-13 -0.35527136788E-14  0.19524361652E+04  0.20048693975E+04  0.45551544620E+03 0.  0.
      99925    2    3    3    0    0  0.66445998893E+02 -0.12434671163E+02  0.16302458723E+04  0.16526992898E+04  0.26295179492E+03 0.  0.
         25    1    4    4    0    0  0.12287457721E+02 -0.35871784548E+02  0.90391097080E+03  0.91331282581E+03  0.12509000000E+03 0.  0.
         25    1    4    4    0    0  0.54158541172E+02  0.23437113385E+02  0.72633490151E+03  0.73938646398E+03  0.12509000000E+03 0.  0.
         25    1    3    3    0    0 -0.66445998893E+02  0.12434671163E+02  0.32219029293E+03  0.35217010773E+03  0.12509000000E+03 0.  0.
<mgrwt>
<rscale>  2 0.45551545E+03</rscale>
<asrwt>0</asrwt>
<pdfrwt beam="1">  1       21 0.29097825E+00 0.45551545E+03</pdfrwt>
<pdfrwt beam="2">  1       21 0.38553861E-02 0.45551545E+03</pdfrwt>
<totfact> 0.13575921E+04</totfact>
</mgrwt>
</event>
<event>
 7    0  0.4737014E-002  0.4467086E+03  0.7546771E-02  0.1028708E+00
         21   -1    0    0  502  501  0.00000000000E+00  0.00000000000E+00  0.27889760530E+04  0.27889760530E+04  0.00000000000E+00 0. -1.
         21   -1    0    0  501  502 -0.00000000000E+00 -0.00000000000E+00 -0.17887261324E+02  0.17887261324E+02  0.00000000000E+00 0. -1.
      99926    2    1    2    0    0 -0.28421709430E-13  0.00000000000E+00  0.27710887917E+04  0.28068633143E+04  0.44670860071E+03 0.  0.
      99925    2    3    3    0    0  0.10413876569E+03 -0.45664044124E+01  0.18473336537E+04  0.18688671536E+04  0.26297732793E+03 0.  0.
         25    1    4    4    0    0  0.95237921745E+02 -0.33628984848E+01  0.10638510526E+04  0.10754106848E+04  0.12509000000E+03 0.  0.
         25    1    3    3    0    0 -0.10413876569E+03  0.45664044124E+01  0.92375513798E+03  0.93799616077E+03  0.12509000000E+03 0.  0.
         25    1    4    4    0    0  0.89008439403E+01 -0.12035059276E+01  0.78348260114E+03  0.79345646877E+03  0.12509000000E+03 0.  0.
<mgrwt>
<rscale>  2 0.44670860E+03</rscale>
<asrwt>0</asrwt>
<pdfrwt beam="1">  1       21 0.41014324E+00 0.44670860E+03</pdfrwt>
<pdfrwt beam="2">  1       21 0.26304815E-02 0.44670860E+03</pdfrwt>
<totfact> 0.47748354E+03</totfact>
</mgrwt>
</event>
<event>
 7    0  0.4737014E-002  0.4359399E+03  0.7546771E-02  0.1032000E+00
         21   -1    0    0  502  501  0.00000000000E+00  0.00000000000E+00  0.11815192697E+03  0.11815192697E+03  0.00000000000E+00 0. -1.
         21   -1    0    0  501  502 -0.00000000000E+00 -0.00000000000E+00 -0.40211691418E+03  0.40211691418E+03  0.00000000000E+00 0. -1.
      99926    2    1    2    0    0 -0.14210854715E-13  0.00000000000E+00 -0.28396498721E+03  0.52026884115E+03  0.43593985033E+03 0.  0.
      99925    2    3    3    0    0  0.85494424029E+02  0.36481666186E+01 -0.13517737634E+03  0.30788271423E+03  0.26305177625E+03 0.  0.
         25    1    3    3    0    0 -0.85494424029E+02 -0.36481666186E+01 -0.14878761087E+03  0.21238612692E+03  0.12509000000E+03 0.  0.
         25    1    4    4    0    0  0.89358191553E+01  0.25018657572E+02 -0.72157756250E+02  0.14683334764E+03  0.12509000000E+03 0.  0.
         25    1    4    4    0    0  0.76558604873E+02 -0.21370490953E+02 -0.63019620093E+02  0.16104936659E+03  0.12509000000E+03 0.  0.
<mgrwt>
<rscale>  2 0.43593985E+03</rscale>
<asrwt>0</asrwt>
<pdfrwt beam="1">  1       21 0.17375284E-01 0.43593985E+03</pdfrwt>
<pdfrwt beam="2">  1       21 0.59134840E-01 0.43593985E+03</pdfrwt>
<totfact> 0.74496982E+04</totfact>
</mgrwt>
</event>
<event>
 7    0  0.4737014E-002  0.4733855E+03  0.7546771E-02  0.1020969E+00
         21   -1    0    0  502  501  0.00000000000E+00  0.00000000000E+00  0.60032857523E+03  0.60032857523E+03  0.00000000000E+00 0.  1.
         21   -1    0    0  501  502 -0.00000000000E+00 -0.00000000000E+00 -0.93321320866E+02  0.93321320866E+02  0.00000000000E+00 0.  1.
      99926    2    1    2    0    0  0.00000000000E+00 -0.71054273576E-14  0.50700725436E+03  0.69364989610E+03  0.47338549025E+03 0.  0.
      99925    2    3    3    0    0 -0.11554038867E+03 -0.57701253399E+02  0.29723012678E+03  0.41736568117E+03  0.26300066065E+03 0.  0.
         25    1    4    4    0    0 -0.84937970099E+02  0.10281046928E+01  0.14481157171E+03  0.20936431206E+03  0.12509000000E+03 0.  0.
         25    1    3    3    0    0  0.11554038867E+03  0.57701253399E+02  0.20977712759E+03  0.27628421492E+03  0.12509000000E+03 0.  0.
         25    1    4    4    0    0 -0.30602418566E+02 -0.58729358092E+02  0.15241855506E+03  0.20800136911E+03  0.12509000000E+03 0.  0.
<mgrwt>
<rscale>  2 0.47338549E+03</rscale>
<asrwt>0</asrwt>
<pdfrwt beam="1">  1       21 0.88283612E-01 0.47338549E+03</pdfrwt>
<pdfrwt beam="2">  1       21 0.13723724E-01 0.47338549E+03</pdfrwt>
<totfact> 0.46188305E+04</totfact>
</mgrwt>
</event>
<event>
 7    0  0.4737014E-002  0.4496772E+03  0.7546771E-02  0.1027818E+00
         21   -1    0    0  502  501  0.00000000000E+00  0.00000000000E+00  0.25385334890E+03  0.25385334890E+03  0.00000000000E+00 0. -1.
         21   -1    0    0  501  502 -0.00000000000E+00 -0.00000000000E+00 -0.19914014351E+03  0.19914014351E+03  0.00000000000E+00 0. -1.
      99926    2    1    2    0    0 -0.35527136788E-14  0.00000000000E+00  0.54713205386E+02  0.45299349241E+03  0.44967718346E+03 0.  0.
      99925    2    3    3    0    0 -0.11026926577E+02 -0.10740833765E+03  0.28035306312E+02  0.28560961473E+03  0.26292342901E+03 0.  0.
         25    1    4    4    0    0 -0.41019896508E+02 -0.46280336453E+02  0.31877229508E+02  0.14313688313E+03  0.12509000000E+03 0.  0.
         25    1    4    4    0    0  0.29992969930E+02 -0.61128001198E+02 -0.38419231956E+01  0.14247273160E+03  0.12509000000E+03 0.  0.
         25    1    3    3    0    0  0.11026926577E+02  0.10740833765E+03  0.26677899074E+02  0.16738387768E+03  0.12509000000E+03 0.  0.
<mgrwt>
<rscale>  2 0.44967718E+03</rscale>
<asrwt>0</asrwt>
<pdfrwt beam="1">  1       21 0.37331375E-01 0.44967718E+03</pdfrwt>
<pdfrwt beam="2">  1       21 0.29285315E-01 0.44967718E+03</pdfrwt>
<totfact> 0.71689333E+04</totfact>
</mgrwt>
</event>
<event>
 7    0  0.4737014E-002  0.4460627E+03  0.7546771E-02  0.1028903E+00
         21   -1    0    0  502  501  0.00000000000E+00  0.00000000000E+00  0.50421939858E+03  0.50421939858E+03  0.00000000000E+00 0. -1.
         21   -1    0    0  501  502 -0.00000000000E+00 -0.00000000000E+00 -0.98653459257E+02  0.98653459257E+02  0.00000000000E+00 0. -1.
      99926    2    1    2    0    0  0.00000000000E+00  0.00000000000E+00  0.40556593933E+03  0.60287285784E+03  0.44606272158E+03 0.  0.
      99925    2    3    3    0    0  0.89014938557E+02 -0.21249240550E+02  0.32576802733E+03  0.42854441963E+03  0.26296448896E+03 0.  0.
         25    1    4    4    0    0  0.63395936434E+02  0.17497014636E+02  0.13276097254E+03  0.19390248634E+03  0.12509000000E+03 0.  0.
         25    1    4    4    0    0  0.25619002123E+02 -0.38746255186E+02  0.19300705479E+03  0.23464193329E+03  0.12509000000E+03 0.  0.
         25    1    3    3    0    0 -0.89014938557E+02  0.21249240550E+02  0.79797911994E+02  0.17432843821E+03  0.12509000000E+03 0.  0.
<mgrwt>
<rscale>  2 0.44606272E+03</rscale>
<asrwt>0</asrwt>
<pdfrwt beam="1">  1       21 0.74149910E-01 0.44606272E+03</pdfrwt>
<pdfrwt beam="2">  1       21 0.14507862E-01 0.44606272E+03</pdfrwt>
<totfact> 0.62821267E+04</totfact>
</mgrwt>
</event>
<event>
 7    0  0.4737014E-002  0.4278757E+03  0.7546771E-02  0.1034533E+00
         21   -1    0    0  502  501  0.00000000000E+00  0.00000000000E+00  0.81200448337E+03  0.81200448337E+03  0.00000000000E+00 0. -1.
         21   -1    0    0  501  502 -0.00000000000E+00 -0.00000000000E+00 -0.56365955939E+02  0.56365955939E+02  0.00000000000E+00 0. -1.
      99926    2    1    2    0    0 -0.71054273576E-14  0.00000000000E+00  0.75563852743E+03  0.86837043931E+03  0.42787572463E+03 0.  0.
      99925    2    3    3    0    0  0.44102730503E+02 -0.34461605062E+02  0.36505655767E+03  0.45444479833E+03  0.26480394893E+03 0.  0.
         25    1    4    4    0    0  0.63473096300E+02 -0.26995443363E+02  0.21285791148E+03  0.25634661397E+03  0.12509000000E+03 0.  0.
         25    1    3    3    0    0 -0.44102730503E+02  0.34461605062E+02  0.39058196975E+03  0.41392564098E+03  0.12509000000E+03 0.  0.
         25    1    4    4    0    0 -0.19370365796E+02 -0.74661616986E+01  0.15219864620E+03  0.19809818436E+03  0.12509000000E+03 0.  0.
<mgrwt>
<rscale>  2 0.42787572E+03</rscale>
<asrwt>0</asrwt>
<pdfrwt beam="1">  1       21 0.11941242E+00 0.42787572E+03</pdfrwt>
<pdfrwt beam="2">  1       21 0.82891117E-02 0.42787572E+03</pdfrwt>
<totfact> 0.55515170E+04</totfact>
</mgrwt>
</event>
<event>
 7    0  0.4737014E-002  0.4755816E+03  0.7546771E-02  0.1020357E+00
         21   -1    0    0  502  501  0.00000000000E+00  0.00000000000E+00  0.12266094807E+04  0.12266094807E+04  0.00000000000E+00 0.  1.
         21   -1    0    0  501  502 -0.00000000000E+00 -0.00000000000E+00 -0.46098186866E+02  0.46098186866E+02  0.00000000000E+00 0.  1.
      99926    2    1    2    0    0 -0.35527136788E-14  0.14210854715E-13  0.11805112939E+04  0.12727076676E+04  0.47558163571E+03 0.  0.
      99925    2    3    3    0    0  0.72932874912E+01 -0.11008188573E+03  0.92178361281E+03  0.96487860034E+03  0.26293434719E+03 0.  0.
         25    1    3    3    0    0 -0.72932874912E+01  0.11008188573E+03  0.25872768107E+03  0.30782906728E+03  0.12509000000E+03 0.  0.
         25    1    4    4    0    0  0.35429261505E+02 -0.82364330476E+02  0.48776094222E+03  0.51146589365E+03  0.12509000000E+03 0.  0.
         25    1    4    4    0    0 -0.28135974014E+02 -0.27717555257E+02  0.43402267059E+03  0.45341270669E+03  0.12509000000E+03 0.  0.
<mgrwt>
<rscale>  2 0.47558164E+03</rscale>
<asrwt>0</asrwt>
<pdfrwt beam="1">  1       21 0.18038373E+00 0.47558164E+03</pdfrwt>
<pdfrwt beam="2">  1       21 0.67791459E-02 0.47558164E+03</pdfrwt>
<totfact> 0.25569666E+04</totfact>
</mgrwt>
</event>
<event>
 7    0  0.4737014E-002  0.4544451E+03  0.7546771E-02  0.1026405E+00
         21   -1    0    0  502  501  0.00000000000E+00  0.00000000000E+00  0.10146501969E+04  0.10146501969E+04  0.00000000000E+00 0.  1.
         21   -1    0    0  501  502 -0.00000000000E+00 -0.00000000000E+00 -0.50884626580E+02  0.50884626580E+02  0.00000000000E+00 0.  1.
      99926    2    1    2    0    0 -0.88817841970E-15  0.00000000000E+00  0.96376557035E+03  0.10655348235E+04  0.45444514028E+03 0.  0.
      99925    2    3    3    0    0  0.65050421673E+01 -0.84925944470E+02  0.77954673123E+03  0.82712588827E+03  0.26303877518E+03 0.  0.
         25    1    3    3    0    0 -0.65050421673E+01  0.84925944470E+02  0.18421883912E+03  0.23840893524E+03  0.12509000000E+03 0.  0.
         25    1    4    4    0    0  0.76838943194E+01 -0.15720390021E+02  0.46059695773E+03  0.47760154780E+03  0.12509000000E+03 0.  0.
         25    1    4    4    0    0 -0.11788521521E+01 -0.69205554449E+02  0.31894977350E+03  0.34952434046E+03  0.12509000000E+03 0.  0.
<mgrwt>
<rscale>  2 0.45444514E+03</rscale>
<asrwt>0</asrwt>
<pdfrwt beam="1">  1       21 0.14921325E+00 0.45444514E+03</pdfrwt>
<pdfrwt beam="2">  1       21 0.74830339E-02 0.45444514E+03</pdfrwt>
<totfact> 0.36871890E+04</totfact>
</mgrwt>
</event>
<event>
 7    0  0.4737014E-002  0.4591512E+03  0.7546771E-02  0.1025028E+00
         21   -1    0    0  502  501  0.00000000000E+00  0.00000000000E+00  0.25514633583E+03  0.25514633583E+03  0.00000000000E+00 0.  1.
         21   -1    0    0  501  502 -0.00000000000E+00 -0.00000000000E+00 -0.20656753955E+03  0.20656753955E+03  0.00000000000E+00 0.  1.
      99926    2    1    2    0    0  0.00000000000E+00  0.17763568394E-14  0.48578796281E+02  0.46171387539E+03  0.45915117693E+03 0.  0.
      99925    2    3    3    0    0 -0.10771215923E+03  0.13871947690E+02 -0.13376844825E+02  0.28485135888E+03  0.26299622906E+03 0.  0.
         25    1    4    4    0    0 -0.34836929773E+02  0.43060137271E+02 -0.37575109342E+01  0.13685544960E+03  0.12509000000E+03 0.  0.
         25    1    3    3    0    0  0.10771215923E+03 -0.13871947690E+02  0.61955641106E+02  0.17686251650E+03  0.12509000000E+03 0.  0.
         25    1    4    4    0    0 -0.72875229455E+02 -0.29188189580E+02 -0.96193338910E+01  0.14799590928E+03  0.12509000000E+03 0.  0.
<mgrwt>
<rscale>  2 0.45915118E+03</rscale>
<asrwt>0</asrwt>
<pdfrwt beam="1">  1       21 0.37521520E-01 0.45915118E+03</pdfrwt>
<pdfrwt beam="2">  1       21 0.30377580E-01 0.45915118E+03</pdfrwt>
<totfact> 0.65848583E+04</totfact>
</mgrwt>
</event>
<event>
 7    0  0.4737014E-002  0.4598263E+03  0.7546771E-02  0.1024832E+00
         21   -1    0    0  502  501  0.00000000000E+00  0.00000000000E+00  0.43445082279E+02  0.43445082279E+02  0.00000000000E+00 0. -1.
         21   -1    0    0  501  502 -0.00000000000E+00 -0.00000000000E+00 -0.12167095316E+04  0.12167095316E+04  0.00000000000E+00 0. -1.
      99926    2    1    2    0    0  0.00000000000E+00  0.00000000000E+00 -0.11732644493E+04  0.12601546139E+04  0.45982625288E+03 0.  0.
      99925    2    3    3    0    0 -0.67473312718E+02 -0.93993549490E+02 -0.79486210241E+03  0.84515668674E+03  0.26286237469E+03 0.  0.
         25    1    4    4    0    0 -0.35905265671E+02 -0.48357083102E+01 -0.37413239657E+03  0.39615038867E+03  0.12509000000E+03 0.  0.
         25    1    4    4    0    0 -0.31568047047E+02 -0.89157841180E+02 -0.42072970584E+03  0.44900629808E+03  0.12509000000E+03 0.  0.
         25    1    3    3    0    0  0.67473312718E+02  0.93993549490E+02 -0.37840234689E+03  0.41499792711E+03  0.12509000000E+03 0.  0.
<mgrwt>
<rscale>  2 0.45982625E+03</rscale>
<asrwt>0</asrwt>
<pdfrwt beam="1">  1       21 0.63889834E-02 0.45982625E+03</pdfrwt>
<pdfrwt beam="2">  1       21 0.17892785E+00 0.45982625E+03</pdfrwt>
<totfact> 0.29182413E+04</totfact>
</mgrwt>
</event>
<event>
 7    0  0.4737014E-002  0.4440593E+03  0.7546771E-02  0.1029509E+00
         21   -1    0    0  502  501  0.00000000000E+00  0.00000000000E+00  0.17077256225E+03  0.17077256225E+03  0.00000000000E+00 0.  1.
         21   -1    0    0  501  502 -0.00000000000E+00 -0.00000000000E+00 -0.28867146546E+03  0.28867146546E+03  0.00000000000E+00 0.  1.
      99926    2    1    2    0    0  0.35527136788E-14  0.00000000000E+00 -0.11789890320E+03  0.45944402771E+03  0.44405930147E+03 0.  0.
      99925    2    3    3    0    0 -0.20277779226E+02 -0.96908082814E+02 -0.10271328283E+03  0.29919273751E+03  0.26299032466E+03 0.  0.
         25    1    4    4    0    0 -0.27346391854E+02 -0.11732921224E+02 -0.59292760511E+02  0.14159317122E+03  0.12509000000E+03 0.  0.
         25    1    4    4    0    0  0.70686126275E+01 -0.85175161589E+02 -0.43420522315E+02  0.15759956629E+03  0.12509000000E+03 0.  0.
         25    1    3    3    0    0  0.20277779226E+02  0.96908082814E+02 -0.15185620377E+02  0.16025129020E+03  0.12509000000E+03 0.  0.
<mgrwt>
<rscale>  2 0.44405930E+03</rscale>
<asrwt>0</asrwt>
<pdfrwt beam="1">  1       21 0.25113612E-01 0.44405930E+03</pdfrwt>
<pdfrwt beam="2">  1       21 0.42451686E-01 0.44405930E+03</pdfrwt>
<totfact> 0.74486541E+04</totfact>
</mgrwt>
</event>
<event>
 7    0  0.4737014E-002  0.4514258E+03  0.7546771E-02  0.1027298E+00
         21   -1    0    0  502  501  0.00000000000E+00  0.00000000000E+00  0.31660543535E+03  0.31660543535E+03  0.00000000000E+00 0.  1.
         21   -1    0    0  501  502 -0.00000000000E+00 -0.00000000000E+00 -0.16091422568E+03  0.16091422568E+03  0.00000000000E+00 0.  1.
      99926    2    1    2    0    0  0.00000000000E+00  0.00000000000E+00  0.15569120967E+03  0.47751966102E+03  0.45142582325E+03 0.  0.
      99925    2    3    3    0    0  0.70884182529E+02 -0.28506810469E+01  0.10492643889E+02  0.27316011189E+03  0.26357856028E+03 0.  0.
         25    1    3    3    0    0 -0.70884182529E+02  0.28506810469E+01  0.14519856578E+03  0.20435954913E+03  0.12509000000E+03 0.  0.
         25    1    4    4    0    0  0.50972537233E+02 -0.18571932094E+01  0.44106017503E+02  0.14210734534E+03  0.12509000000E+03 0.  0.
         25    1    4    4    0    0  0.19911645297E+02 -0.99348783745E+00 -0.33613373614E+02  0.13105276656E+03  0.12509000000E+03 0.  0.
<mgrwt>
<rscale>  2 0.45142582E+03</rscale>
<asrwt>0</asrwt>
<pdfrwt beam="1">  1       21 0.46559623E-01 0.45142582E+03</pdfrwt>
<pdfrwt beam="2">  1       21 0.23663857E-01 0.45142582E+03</pdfrwt>
<totfact> 0.68812645E+04</totfact>
</mgrwt>
</event>
<event>
 7    0  0.4737014E-002  0.4521846E+03  0.7546771E-02  0.1027073E+00
         21   -1    0    0  502  501  0.00000000000E+00  0.00000000000E+00  0.20890200802E+04  0.20890200802E+04  0.00000000000E+00 0. -1.
         21   -1    0    0  501  502 -0.00000000000E+00 -0.00000000000E+00 -0.24469712083E+02  0.24469712083E+02  0.00000000000E+00 0. -1.
      99926    2    1    2    0    0  0.14210854715E-13 -0.71054273576E-14  0.20645503681E+04  0.21134897922E+04  0.45218456364E+03 0.  0.
      99925    2    3    3    0    0  0.74596054725E+02 -0.56356253317E+02  0.10268573675E+04  0.10641114666E+04  0.26297635180E+03 0.  0.
         25    1    4    4    0    0  0.36519756513E+02 -0.21175172890E+02  0.65970986632E+03  0.67279023208E+03  0.12509000000E+03 0.  0.
         25    1    4    4    0    0  0.38076298212E+02 -0.35181080427E+02  0.36714750116E+03  0.39132123455E+03  0.12509000000E+03 0.  0.
         25    1    3    3    0    0 -0.74596054725E+02  0.56356253317E+02  0.10376930006E+04  0.10493783256E+04  0.12509000000E+03 0.  0.
<mgrwt>
<rscale>  2 0.45218456E+03</rscale>
<asrwt>0</asrwt>
<pdfrwt beam="1">  1       21 0.30720871E+00 0.45218456E+03</pdfrwt>
<pdfrwt beam="2">  1       21 0.35984885E-02 0.45218456E+03</pdfrwt>
<totfact> 0.12208624E+04</totfact>
</mgrwt>
</event>
<event>
 7    0  0.4737014E-002  0.4559367E+03  0.7546771E-02  0.1025966E+00
         21   -1    0    0  502  501  0.00000000000E+00  0.00000000000E+00  0.62567912990E+02  0.62567912990E+02  0.00000000000E+00 0.  1.
         21   -1    0    0  501  502 -0.00000000000E+00 -0.00000000000E+00 -0.83061056291E+03  0.83061056291E+03  0.00000000000E+00 0.  1.
      99926    2    1    2    0    0 -0.71054273576E-14  0.00000000000E+00 -0.76804264992E+03  0.89317847590E+03  0.45593670363E+03 0.  0.
      99925    2    3    3    0    0  0.49235562987E+02 -0.12983540034E+02 -0.28255343956E+03  0.38925388387E+03  0.26284867686E+03 0.  0.
         25    1    3    3    0    0 -0.49235562987E+02  0.12983540034E+02 -0.48548921037E+03  0.50392459203E+03  0.12509000000E+03 0.  0.
         25    1    4    4    0    0 -0.33217171119E+01 -0.28797258874E+02 -0.16470177729E+03  0.20884084722E+03  0.12509000000E+03 0.  0.
         25    1    4    4    0    0  0.52557280099E+02  0.15813718840E+02 -0.11785166226E+03  0.18041303665E+03  0.12509000000E+03 0.  0.
<mgrwt>
<rscale>  2 0.45593670E+03</rscale>
<asrwt>0</asrwt>
<pdfrwt beam="1">  1       21 0.92011643E-02 0.45593670E+03</pdfrwt>
<pdfrwt beam="2">  1       21 0.12214860E+00 0.45593670E+03</pdfrwt>
<totfact> 0.43212121E+04</totfact>
</mgrwt>
</event>
<event>
 7    0  0.4737014E-002  0.4263932E+03  0.7546771E-02  0.1035005E+00
         21   -1    0    0  502  501  0.00000000000E+00  0.00000000000E+00  0.16027066899E+03  0.16027066899E+03  0.00000000000E+00 0.  1.
         21   -1    0    0  501  502 -0.00000000000E+00 -0.00000000000E+00 -0.28360023287E+03  0.28360023287E+03  0.00000000000E+00 0.  1.
      99926    2    1    2    0    0  0.35527136788E-14 -0.44408920985E-15 -0.12332956389E+03  0.44387090186E+03  0.42639324126E+03 0.  0.
      99925    2    3    3    0    0  0.18899306626E+02 -0.13201697189E+01  0.48836654565E+01  0.26374575948E+03  0.26301910352E+03 0.  0.
         25    1    4    4    0    0  0.54429143015E+01 -0.36994119305E+01 -0.37844625149E+02  0.13085501411E+03  0.12509000000E+03 0.  0.
         25    1    3    3    0    0 -0.18899306626E+02  0.13201697189E+01 -0.12821322934E+03  0.18012514238E+03  0.12509000000E+03 0.  0.
         25    1    4    4    0    0  0.13456392324E+02  0.23792422116E+01  0.42728290606E+02  0.13289074537E+03  0.12509000000E+03 0.  0.
<mgrwt>
<rscale>  2 0.42639324E+03</rscale>
<asrwt>0</asrwt>
<pdfrwt beam="1">  1       21 0.23569216E-01 0.42639324E+03</pdfrwt>
<pdfrwt beam="2">  1       21 0.41705916E-01 0.42639324E+03</pdfrwt>
<totfact> 0.87704818E+04</totfact>
</mgrwt>
</event>
<event>
 7    0  0.4737014E-002  0.4309043E+03  0.7546771E-02  0.1033575E+00
         21   -1    0    0  502  501  0.00000000000E+00  0.00000000000E+00  0.26903181132E+02  0.26903181132E+02  0.00000000000E+00 0. -1.
         21   -1    0    0  501  502 -0.00000000000E+00 -0.00000000000E+00 -0.17254325681E+04  0.17254325681E+04  0.00000000000E+00 0. -1.
      99926    2    1    2    0    0  0.00000000000E+00  0.00000000000E+00 -0.16985293870E+04  0.17523357492E+04  0.43090428130E+03 0.  0.
      99925    2    3    3    0    0  0.61782285414E+02  0.16951067040E+02 -0.84561213438E+03  0.88791702122E+03  0.26312043879E+03 0.  0.
         25    1    3    3    0    0 -0.61782285414E+02 -0.16951067040E+02 -0.85291725258E+03  0.86441872800E+03  0.12509000000E+03 0.  0.
         25    1    4    4    0    0  0.68903862561E+02  0.11763449756E+02 -0.50574680557E+03  0.52565526771E+03  0.12509000000E+03 0.  0.
         25    1    4    4    0    0 -0.71215771475E+01  0.51876172844E+01 -0.33986532881E+03  0.36226175351E+03  0.12509000000E+03 0.  0.
<mgrwt>
<rscale>  2 0.43090428E+03</rscale>
<asrwt>0</asrwt>
<pdfrwt beam="1">  1       21 0.39563506E-02 0.43090428E+03</pdfrwt>
<pdfrwt beam="2">  1       21 0.25374006E+00 0.43090428E+03</pdfrwt>
<totfact> 0.22035615E+04</totfact>
</mgrwt>
</event>
<event>
 7    0  0.4737014E-002  0.4511509E+03  0.7546771E-02  0.1027379E+00
         21   -1    0    0  502  501  0.00000000000E+00  0.00000000000E+00  0.28658767159E+03  0.28658767159E+03  0.00000000000E+00 0.  1.
         21   -1    0    0  501  502 -0.00000000000E+00 -0.00000000000E+00 -0.17755223777E+03  0.17755223777E+03  0.00000000000E+00 0.  1.
      99926    2    1    2    0    0  0.00000000000E+00  0.00000000000E+00  0.10903543382E+03  0.46413990936E+03  0.45115089452E+03 0.  0.
      99925    2    3    3    0    0 -0.60554051094E+02  0.91169387028E+02  0.70985430886E+02  0.29362902683E+03  0.26305973422E+03 0.  0.
         25    1    4    4    0    0 -0.28102709700E+02  0.87696516754E+02  0.45555390759E+02  0.16187415813E+03  0.12509000000E+03 0.  0.
         25    1    4    4    0    0 -0.32451341394E+02  0.34728702736E+01  0.25430040127E+02  0.13175486870E+03  0.12509000000E+03 0.  0.
         25    1    3    3    0    0  0.60554051094E+02 -0.91169387028E+02  0.38050002938E+02  0.17051088252E+03  0.12509000000E+03 0.  0.
<mgrwt>
<rscale>  2 0.45115089E+03</rscale>
<asrwt>0</asrwt>
<pdfrwt beam="1">  1       21 0.42145246E-01 0.45115089E+03</pdfrwt>
<pdfrwt beam="2">  1       21 0.26110623E-01 0.45115089E+03</pdfrwt>
<totfact> 0.69986771E+04</totfact>
</mgrwt>
</event>
<event>
 7    0  0.4737014E-002  0.4540579E+03  0.7546771E-02  0.1026519E+00
         21   -1    0    0  502  501  0.00000000000E+00  0.00000000000E+00  0.61365169362E+03  0.61365169362E+03  0.00000000000E+00 0. -1.
         21   -1    0    0  501  502 -0.00000000000E+00 -0.00000000000E+00 -0.83992498362E+02  0.83992498362E+02  0.00000000000E+00 0. -1.
      99926    2    1    2    0    0  0.00000000000E+00 -0.14210854715E-13  0.52965919526E+03  0.69764419198E+03  0.45405787680E+03 0.  0.
      99925    2    3    3    0    0  0.16416041011E+02 -0.90216812829E+02  0.43266448239E+03  0.51471239556E+03  0.26329021269E+03 0.  0.
         25    1    4    4    0    0  0.16076081722E+02 -0.87808811159E+02  0.24085159160E+03  0.28570233635E+03  0.12509000000E+03 0.  0.
         25    1    3    3    0    0 -0.16416041011E+02  0.90216812829E+02  0.96994712872E+02  0.18293179643E+03  0.12509000000E+03 0.  0.
         25    1    4    4    0    0  0.33995928947E+00 -0.24080016702E+01  0.19181289078E+03  0.22901005920E+03  0.12509000000E+03 0.  0.
<mgrwt>
<rscale>  2 0.45405788E+03</rscale>
<asrwt>0</asrwt>
<pdfrwt beam="1">  1       21 0.90242894E-01 0.45405788E+03</pdfrwt>
<pdfrwt beam="2">  1       21 0.12351838E-01 0.45405788E+03</pdfrwt>
<totfact> 0.53426101E+04</totfact>
</mgrwt>
</event>
<event>
 7    0  0.4737014E-002  0.4548294E+03  0.7546771E-02  0.1026292E+00
         21   -1    0    0  502  501  0.00000000000E+00  0.00000000000E+00  0.32301604030E+02  0.32301604030E+02  0.00000000000E+00 0.  1.
         21   -1    0    0  501  502 -0.00000000000E+00 -0.00000000000E+00 -0.16010795059E+04  0.16010795059E+04  0.00000000000E+00 0.  1.
      99926    2    1    2    0    0 -0.14210854715E-13  0.00000000000E+00 -0.15687779018E+04  0.16333811099E+04  0.45482935798E+03 0.  0.
      99925    2    3    3    0    0  0.62846119019E+02 -0.27039979614E+02 -0.13103302301E+04  0.13382142041E+04  0.26300408527E+03 0.  0.
         25    1    3    3    0    0 -0.62846119019E+02  0.27039979614E+02 -0.25844767173E+03  0.29516690583E+03  0.12509000000E+03 0.  0.
         25    1    4    4    0    0  0.71969388701E+02 -0.73042249731E+01 -0.72828240537E+03  0.74247943721E+03  0.12509000000E+03 0.  0.
         25    1    4    4    0    0 -0.91232696812E+01 -0.19735754641E+02 -0.58204782475E+03  0.59573476687E+03  0.12509000000E+03 0.  0.
<mgrwt>
<rscale>  2 0.45482936E+03</rscale>
<asrwt>0</asrwt>
<pdfrwt beam="1">  1       21 0.47502342E-02 0.45482936E+03</pdfrwt>
<pdfrwt beam="2">  1       21 0.23545295E+00 0.45482936E+03</pdfrwt>
<totfact> 0.20713262E+04</totfact>
</mgrwt>
</event>
<event>
 7    0  0.4737014E-002  0.4531132E+03  0.7546771E-02  0.1026798E+00
         21   -1    0    0  502  501  0.00000000000E+00  0.00000000000E+00  0.18939368798E+03  0.18939368798E+03  0.00000000000E+00 0. -1.
         21   -1    0    0  501  502 -0.00000000000E+00 -0.00000000000E+00 -0.27101163243E+03  0.27101163243E+03  0.00000000000E+00 0. -1.
      99926    2    1    2    0    0  0.14210854715E-13 -0.71054273576E-14 -0.81617944456E+02  0.46040532041E+03  0.45311319800E+03 0.  0.
      99925    2    3    3    0    0 -0.10168318683E+03  0.44530452067E+02 -0.42433810664E+02  0.28863414679E+03  0.26303347840E+03 0.  0.
         25    1    4    4    0    0 -0.91203975524E+02  0.17534605284E+02 -0.95440311519E+01  0.15609043585E+03  0.12509000000E+03 0.  0.
         25    1    4    4    0    0 -0.10479211305E+02  0.26995846783E+02 -0.32889779512E+02  0.13254371094E+03  0.12509000000E+03 0.  0.
         25    1    3    3    0    0  0.10168318683E+03 -0.44530452067E+02 -0.39184133792E+02  0.17177117362E+03  0.12509000000E+03 0.  0.
<mgrwt>
<rscale>  2 0.45311320E+03</rscale>
<asrwt>0</asrwt>
<pdfrwt beam="1">  1       21 0.27852013E-01 0.45311320E+03</pdfrwt>
<pdfrwt beam="2">  1       21 0.39854652E-01 0.45311320E+03</pdfrwt>
<totfact> 0.69184434E+04</totfact>
</mgrwt>
</event>
<event>
 7    0  0.4737014E-002  0.4574107E+03  0.7546771E-02  0.1025535E+00
         21   -1    0    0  502  501  0.00000000000E+00  0.00000000000E+00  0.37712582471E+03  0.37712582471E+03  0.00000000000E+00 0. -1.
         21   -1    0    0  501  502 -0.00000000000E+00 -0.00000000000E+00 -0.13869675201E+03  0.13869675201E+03  0.00000000000E+00 0. -1.
      99926    2    1    2    0    0  0.00000000000E+00  0.00000000000E+00  0.23842907270E+03  0.51582257672E+03  0.45741065569E+03 0.  0.
      99925    2    3    3    0    0 -0.17262256824E+02 -0.98091634852E+02  0.21646255258E+03  0.35442248240E+03  0.26237245477E+03 0.  0.
         25    1    4    4    0    0  0.84454409187E+01 -0.15675644801E+02  0.75875852455E+02  0.14738284974E+03  0.12509000000E+03 0.  0.
         25    1    3    3    0    0  0.17262256824E+02  0.98091634852E+02  0.21966520125E+02  0.16140009432E+03  0.12509000000E+03 0.  0.
         25    1    4    4    0    0 -0.25707697743E+02 -0.82415990051E+02  0.14058670012E+03  0.20703963266E+03  0.12509000000E+03 0.  0.
<mgrwt>
<rscale>  2 0.45741066E+03</rscale>
<asrwt>0</asrwt>
<pdfrwt beam="1">  1       21 0.55459680E-01 0.45741066E+03</pdfrwt>
<pdfrwt beam="2">  1       21 0.20396581E-01 0.45741066E+03</pdfrwt>
<totfact> 0.62959763E+04</totfact>
</mgrwt>
</event>
<event>
 7    0  0.4737014E-002  0.4233666E+03  0.7546771E-02  0.1035976E+00
         21   -1    0    0  502  501  0.00000000000E+00  0.00000000000E+00  0.16447789524E+03  0.16447789524E+03  0.00000000000E+00 0. -1.
         21   -1    0    0  501  502 -0.00000000000E+00 -0.00000000000E+00 -0.27243671631E+03  0.27243671631E+03  0.00000000000E+00 0. -1.
      99926    2    1    2    0    0  0.71054273576E-14  0.88817841970E-15 -0.10795882106E+03  0.43691461155E+03  0.42336659143E+03 0.  0.
      99925    2    3    3    0    0 -0.41796466728E+02  0.40345147152E+01 -0.14035718883E+03  0.30104561481E+03  0.26299258507E+03 0.  0.
         25    1    4    4    0    0 -0.39145742015E+02 -0.26805969469E+02 -0.96374922745E+02  0.16488354360E+03  0.12509000000E+03 0.  0.
         25    1    3    3    0    0  0.41796466728E+02 -0.40345147152E+01  0.32398367773E+02  0.13586899674E+03  0.12509000000E+03 0.  0.
         25    1    4    4    0    0 -0.26507247131E+01  0.30840484184E+02 -0.43982266090E+02  0.13616207121E+03  0.12509000000E+03 0.  0.
<mgrwt>
<rscale>  2 0.42336659E+03</rscale>
<asrwt>0</asrwt>
<pdfrwt beam="1">  1       21 0.24187926E-01 0.42336659E+03</pdfrwt>
<pdfrwt beam="2">  1       21 0.40064223E-01 0.42336659E+03</pdfrwt>
<totfact> 0.90682405E+04</totfact>
</mgrwt>
</event>
<event>
 7    0  0.4737014E-002  0.4531696E+03  0.7546771E-02  0.1026781E+00
         21   -1    0    0  502  501  0.00000000000E+00  0.00000000000E+00  0.79367099971E+02  0.79367099971E+02  0.00000000000E+00 0. -1.
         21   -1    0    0  501  502 -0.00000000000E+00 -0.00000000000E+00 -0.64687602671E+03  0.64687602671E+03  0.00000000000E+00 0. -1.
      99926    2    1    2    0    0 -0.14210854715E-13  0.00000000000E+00 -0.56750892674E+03  0.72624312668E+03  0.45316961187E+03 0.  0.
      99925    2    3    3    0    0  0.99405700306E+02 -0.27257923336E+02 -0.28955327658E+03  0.40448026495E+03  0.26294238364E+03 0.  0.
         25    1    3    3    0    0 -0.99405700306E+02  0.27257923336E+02 -0.27795565015E+03  0.32176286173E+03  0.12509000000E+03 0.  0.
         25    1    4    4    0    0  0.39402702543E+02 -0.16250417313E+02 -0.85197350205E+02  0.15723468324E+03  0.12509000000E+03 0.  0.
         25    1    4    4    0    0  0.60002997764E+02 -0.11007506023E+02 -0.20435592638E+03  0.24724558171E+03  0.12509000000E+03 0.  0.
<mgrwt>
<rscale>  2 0.45316961E+03</rscale>
<asrwt>0</asrwt>
<pdfrwt beam="1">  1       21 0.11671632E-01 0.45316961E+03</pdfrwt>
<pdfrwt beam="2">  1       21 0.95128829E-01 0.45316961E+03</pdfrwt>
<totfact> 0.52249279E+04</totfact>
</mgrwt>
</event>
<event>
 7    0  0.4737014E-002  0.4534179E+03  0.7546771E-02  0.1026708E+00
         21   -1    0    0  502  501  0.00000000000E+00  0.00000000000E+00  0.31024140425E+03  0.31024140425E+03  0.00000000000E+00 0. -1.
         21   -1    0    0  501  502 -0.00000000000E+00 -0.00000000000E+00 -0.16566760062E+03  0.16566760062E+03  0.00000000000E+00 0. -1.
      99926    2    1    2    0    0  0.00000000000E+00 -0.71054273576E-14  0.14457380364E+03  0.47590900487E+03  0.45341790461E+03 0.  0.
      99925    2    3    3    0    0 -0.10219137777E+03 -0.45085621404E+02  0.90896364382E+02  0.29982786865E+03  0.26298062821E+03 0.  0.
         25    1    4    4    0    0 -0.79113476302E+02  0.63928497097E+01  0.54580312341E+02  0.15788074378E+03  0.12509000000E+03 0.  0.
         25    1    4    4    0    0 -0.23077901465E+02 -0.51478471113E+02  0.36316052042E+02  0.14194712487E+03  0.12509000000E+03 0.  0.
         25    1    3    3    0    0  0.10219137777E+03  0.45085621404E+02  0.53677439257E+02  0.17608113622E+03  0.12509000000E+03 0.  0.
<mgrwt>
<rscale>  2 0.45341790E+03</rscale>
<asrwt>0</asrwt>
<pdfrwt beam="1">  1       21 0.45623736E-01 0.45341790E+03</pdfrwt>
<pdfrwt beam="2">  1       21 0.24362882E-01 0.45341790E+03</pdfrwt>
<totfact> 0.67847031E+04</totfact>
</mgrwt>
</event>
<event>
 7    0  0.4737014E-002  0.4538428E+03  0.7546771E-02  0.1026582E+00
         21   -1    0    0  502  501  0.00000000000E+00  0.00000000000E+00  0.22889990798E+02  0.22889990798E+02  0.00000000000E+00 0.  1.
         21   -1    0    0  501  502 -0.00000000000E+00 -0.00000000000E+00 -0.22496002079E+04  0.22496002079E+04  0.00000000000E+00 0.  1.
      99926    2    1    2    0    0 -0.14210854715E-13  0.71054273576E-14 -0.22267102171E+04  0.22724901987E+04  0.45384282767E+03 0.  0.
      99925    2    3    3    0    0 -0.10278312035E+03  0.42863816346E+02 -0.14671083083E+04  0.14946442984E+04  0.26296979677E+03 0.  0.
         25    1    3    3    0    0  0.10278312035E+03 -0.42863816346E+02 -0.75960190881E+03  0.77784590026E+03  0.12509000000E+03 0.  0.
         25    1    4    4    0    0 -0.13971276393E+02 -0.14218727557E+01 -0.63660845989E+03  0.64893378521E+03  0.12509000000E+03 0.  0.
         25    1    4    4    0    0 -0.88811843960E+02  0.44285689102E+02 -0.83049984838E+03  0.84571051320E+03  0.12509000000E+03 0.  0.
<mgrwt>
<rscale>  2 0.45384283E+03</rscale>
<asrwt>0</asrwt>
<pdfrwt beam="1">  1       21 0.33661740E-02 0.45384283E+03</pdfrwt>
<pdfrwt beam="2">  1       21 0.33082367E+00 0.45384283E+03</pdfrwt>
<totfact> 0.98372682E+03</totfact>
</mgrwt>
</event>
<event>
 7    0  0.4737014E-002  0.4628901E+03  0.7546771E-02  0.1023946E+00
         21   -1    0    0  502  501  0.00000000000E+00  0.00000000000E+00  0.58707623618E+03  0.58707623618E+03  0.00000000000E+00 0. -1.
         21   -1    0    0  501  502 -0.00000000000E+00 -0.00000000000E+00 -0.91243353523E+02  0.91243353523E+02  0.00000000000E+00 0. -1.
      99926    2    1    2    0    0 -0.35527136788E-14  0.00000000000E+00  0.49583288266E+03  0.67831958970E+03  0.46289007145E+03 0.  0.
      99925    2    3    3    0    0  0.10904546944E+02  0.78565037704E+02  0.44251585121E+03  0.52089790048E+03  0.26310258430E+03 0.  0.
         25    1    4    4    0    0  0.40773479532E+02  0.40052717586E+02  0.18536196243E+03  0.23081001286E+03  0.12509000000E+03 0.  0.
         25    1    3    3    0    0 -0.10904546944E+02 -0.78565037704E+02  0.53317031449E+02  0.15742168922E+03  0.12509000000E+03 0.  0.
         25    1    4    4    0    0 -0.29868932588E+02  0.38512320117E+02  0.25715388878E+03  0.29008788763E+03  0.12509000000E+03 0.  0.
<mgrwt>
<rscale>  2 0.46289007E+03</rscale>
<asrwt>0</asrwt>
<pdfrwt beam="1">  1       21 0.86334738E-01 0.46289007E+03</pdfrwt>
<pdfrwt beam="2">  1       21 0.13418141E-01 0.46289007E+03</pdfrwt>
<totfact> 0.50859329E+04</totfact>
</mgrwt>
</event>
<event>
 7    0  0.4737014E-002  0.4739590E+03  0.7546771E-02  0.1020809E+00
         21   -1    0    0  502  501  0.00000000000E+00  0.00000000000E+00  0.19298984717E+03  0.19298984717E+03  0.00000000000E+00 0.  1.
         21   -1    0    0  501  502 -0.00000000000E+00 -0.00000000000E+00 -0.29099610424E+03  0.29099610424E+03  0.00000000000E+00 0.  1.
      99926    2    1    2    0    0  0.00000000000E+00  0.00000000000E+00 -0.98006257066E+02  0.48398595141E+03  0.47395904331E+03 0.  0.
      99925    2    3    3    0    0 -0.52825404830E+02 -0.19984695373E+02 -0.18041348802E+03  0.32389731578E+03  0.26300291455E+03 0.  0.
         25    1    3    3    0    0  0.52825404830E+02  0.19984695373E+02  0.82407230958E+02  0.16008863563E+03  0.12509000000E+03 0.  0.
         25    1    4    4    0    0  0.49731805665E+01 -0.33159724488E+02 -0.10162903578E+03  0.16462159295E+03  0.12509000000E+03 0.  0.
         25    1    4    4    0    0 -0.57798585397E+02  0.13175029115E+02 -0.78784452246E+02  0.15927572283E+03  0.12509000000E+03 0.  0.
<mgrwt>
<rscale>  2 0.47395904E+03</rscale>
<asrwt>0</asrwt>
<pdfrwt beam="1">  1       21 0.28380860E-01 0.47395904E+03</pdfrwt>
<pdfrwt beam="2">  1       21 0.42793544E-01 0.47395904E+03</pdfrwt>
<totfact> 0.57290436E+04</totfact>
</mgrwt>
</event>
<event>
 7    0  0.4737014E-002  0.4532445E+03  0.7546771E-02  0.1026759E+00
         21   -1    0    0  502  501  0.00000000000E+00  0.00000000000E+00  0.24896221163E+03  0.24896221163E+03  0.00000000000E+00 0. -1.
         21   -1    0    0  501  502 -0.00000000000E+00 -0.00000000000E+00 -0.20628694603E+03  0.20628694603E+03  0.00000000000E+00 0. -1.
      99926    2    1    2    0    0  0.35527136788E-14  0.00000000000E+00  0.42675265593E+02  0.45524915766E+03  0.45324454465E+03 0.  0.
      99925    2    3    3    0    0 -0.36166570624E+01 -0.79360734383E+02  0.10550264722E+03  0.29429576580E+03  0.26299806620E+03 0.  0.
         25    1    3    3    0    0  0.36166570624E+01  0.79360734383E+02 -0.62827381628E+02  0.16095339186E+03  0.12509000000E+03 0.  0.
         25    1    4    4    0    0 -0.35568585801E+02 -0.28667625279E+02  0.72880395530E+02  0.15180914725E+03  0.12509000000E+03 0.  0.
         25    1    4    4    0    0  0.31951928739E+02 -0.50693109104E+02  0.32622251691E+02  0.14248661855E+03  0.12509000000E+03 0.  0.
<mgrwt>
<rscale>  2 0.45324454E+03</rscale>
<asrwt>0</asrwt>
<pdfrwt beam="1">  1       21 0.36612090E-01 0.45324454E+03</pdfrwt>
<pdfrwt beam="2">  1       21 0.30336316E-01 0.45324454E+03</pdfrwt>
<totfact> 0.69495827E+04</totfact>
</mgrwt>
</event>
<event>
 7    0  0.4737014E-002  0.4509876E+03  0.7546771E-02  0.1027428E+00
         21   -1    0    0  502  501  0.00000000000E+00  0.00000000000E+00  0.10177555717E+03  0.10177555717E+03  0.00000000000E+00 0. -1.
         21   -1    0    0  501  502 -0.00000000000E+00 -0.00000000000E+00 -0.49960370984E+03  0.49960370984E+03  0.00000000000E+00 0. -1.
      99926    2    1    2    0    0  0.00000000000E+00  0.71054273576E-14 -0.39782815267E+03  0.60137926701E+03  0.45098756495E+03 0.  0.
      99925    2    3    3    0    0 -0.99220341120E+02  0.41396056253E+02 -0.22470471864E+03  0.36226100950E+03  0.26302570000E+03 0.  0.
         25    1    4    4    0    0 -0.65338864615E+02 -0.14436274070E+02 -0.12909603199E+03  0.19180945444E+03  0.12509000000E+03 0.  0.
         25    1    4    4    0    0 -0.33881476505E+02  0.55832330323E+02 -0.95608686655E+02  0.17045155506E+03  0.12509000000E+03 0.  0.
         25    1    3    3    0    0  0.99220341120E+02 -0.41396056253E+02 -0.17312343402E+03  0.23911825751E+03  0.12509000000E+03 0.  0.
<mgrwt>
<rscale>  2 0.45098756E+03</rscale>
<asrwt>0</asrwt>
<pdfrwt beam="1">  1       21 0.14966994E-01 0.45098756E+03</pdfrwt>
<pdfrwt beam="2">  1       21 0.73471135E-01 0.45098756E+03</pdfrwt>
<totfact> 0.60488328E+04</totfact>
</mgrwt>
</event>
<event>
 7    0  0.4737014E-002  0.4588422E+03  0.7546771E-02  0.1025118E+00
         21   -1    0    0  502  501  0.00000000000E+00  0.00000000000E+00  0.87395429922E+03  0.87395429922E+03  0.00000000000E+00 0. -1.
         21   -1    0    0  501  502 -0.00000000000E+00 -0.00000000000E+00 -0.60225170782E+02  0.60225170782E+02  0.00000000000E+00 0. -1.
      99926    2    1    2    0    0  0.00000000000E+00  0.00000000000E+00  0.81372912844E+03  0.93417947000E+03  0.45884222528E+03 0.  0.
      99925    2    3    3    0    0  0.32046554856E+02  0.73024495758E+02  0.33676179715E+03  0.43467481349E+03  0.26300974660E+03 0.  0.
         25    1    4    4    0    0  0.29170050220E+01  0.64197809380E+02  0.13244802714E+03  0.19318347662E+03  0.12509000000E+03 0.  0.
         25    1    4    4    0    0  0.29129549834E+02  0.88266863780E+01  0.20431377001E+03  0.24149133687E+03  0.12509000000E+03 0.  0.
         25    1    3    3    0    0 -0.32046554856E+02 -0.73024495758E+02  0.47696733129E+03  0.49950465651E+03  0.12509000000E+03 0.  0.
<mgrwt>
<rscale>  2 0.45884223E+03</rscale>
<asrwt>0</asrwt>
<pdfrwt beam="1">  1       21 0.12852268E+00 0.45884223E+03</pdfrwt>
<pdfrwt beam="2">  1       21 0.88566433E-02 0.45884223E+03</pdfrwt>
<totfact> 0.40555644E+04</totfact>
</mgrwt>
</event>
<event>
 7    0  0.4737014E-002  0.4551907E+03  0.7546771E-02  0.1026185E+00
         21   -1    0    0  502  501  0.00000000000E+00  0.00000000000E+00  0.22334145044E+03  0.22334145044E+03  0.00000000000E+00 0.  1.
         21   -1    0    0  501  502 -0.00000000000E+00 -0.00000000000E+00 -0.23193022420E+03  0.23193022420E+03  0.00000000000E+00 0.  1.
      99926    2    1    2    0    0  0.35527136788E-14  0.00000000000E+00 -0.85887737655E+01  0.45527167464E+03  0.45519065313E+03 0.  0.
      99925    2    3    3    0    0 -0.31356972940E+02  0.34302156183E+02  0.97943514032E+02  0.28451882953E+03  0.26305538341E+03 0.  0.
         25    1    4    4    0    0 -0.22611532947E+02 -0.10546452223E+01  0.10383881731E+02  0.12754499911E+03  0.12509000000E+03 0.  0.
         25    1    3    3    0    0  0.31356972940E+02 -0.34302156183E+02 -0.10653228780E+03  0.17075284511E+03  0.12509000000E+03 0.  0.
         25    1    4    4    0    0 -0.87454399925E+01  0.35356801406E+02  0.87559632301E+02  0.15697383041E+03  0.12509000000E+03 0.  0.
<mgrwt>
<rscale>  2 0.45519065E+03</rscale>
<asrwt>0</asrwt>
<pdfrwt beam="1">  1       21 0.32844331E-01 0.45519065E+03</pdfrwt>
<pdfrwt beam="2">  1       21 0.34107386E-01 0.45519065E+03</pdfrwt>
<totfact> 0.68421754E+04</totfact>
</mgrwt>
</event>
<event>
 7    0  0.4737014E-002  0.4578386E+03  0.7546771E-02  0.1025410E+00
         21   -1    0    0  502  501  0.00000000000E+00  0.00000000000E+00  0.58397195744E+03  0.58397195744E+03  0.00000000000E+00 0. -1.
         21   -1    0    0  501  502 -0.00000000000E+00 -0.00000000000E+00 -0.89737267642E+02  0.89737267642E+02  0.00000000000E+00 0. -1.
      99926    2    1    2    0    0  0.00000000000E+00  0.00000000000E+00  0.49423468980E+03  0.67370922509E+03  0.45783860842E+03 0.  0.
      99925    2    3    3    0    0  0.45164518643E+02 -0.10511306694E+03  0.28594330420E+03  0.40515494751E+03  0.26324583129E+03 0.  0.
         25    1    4    4    0    0  0.19393560799E+02 -0.34469502167E+02  0.83237099508E+02  0.15537110289E+03  0.12509000000E+03 0.  0.
         25    1    3    3    0    0 -0.45164518643E+02  0.10511306694E+03  0.20829138560E+03  0.26855427757E+03  0.12509000000E+03 0.  0.
         25    1    4    4    0    0  0.25770957844E+02 -0.70643564776E+02  0.20270620469E+03  0.24978384462E+03  0.12509000000E+03 0.  0.
<mgrwt>
<rscale>  2 0.45783861E+03</rscale>
<asrwt>0</asrwt>
<pdfrwt beam="1">  1       21 0.85878227E-01 0.45783861E+03</pdfrwt>
<pdfrwt beam="2">  1       21 0.13196657E-01 0.45783861E+03</pdfrwt>
<totfact> 0.53154724E+04</totfact>
</mgrwt>
</event>
<event>
 7    0  0.4737014E-002  0.4554331E+03  0.7546771E-02  0.1026114E+00
         21   -1    0    0  502  501  0.00000000000E+00  0.00000000000E+00  0.61137824422E+03  0.61137824422E+03  0.00000000000E+00 0.  1.
         21   -1    0    0  501  502 -0.00000000000E+00 -0.00000000000E+00 -0.84816275976E+02  0.84816275976E+02  0.00000000000E+00 0.  1.
      99926    2    1    2    0    0  0.00000000000E+00  0.00000000000E+00  0.52656196824E+03  0.69619452019E+03  0.45543309448E+03 0.  0.
      99925    2    3    3    0    0 -0.10647497966E+03  0.26000873022E+02  0.37770278331E+03  0.47299162655E+03  0.26277123049E+03 0.  0.
         25    1    4    4    0    0 -0.36537460204E+02  0.24123966053E+02  0.24039970130E+03  0.27451134078E+03  0.12509000000E+03 0.  0.
         25    1    3    3    0    0  0.10647497966E+03 -0.26000873022E+02  0.14885918493E+03  0.22320289364E+03  0.12509000000E+03 0.  0.
         25    1    4    4    0    0 -0.69937519456E+02  0.18769069695E+01  0.13730308202E+03  0.19848028577E+03  0.12509000000E+03 0.  0.
<mgrwt>
<rscale>  2 0.45543309E+03</rscale>
<asrwt>0</asrwt>
<pdfrwt beam="1">  1       21 0.89908563E-01 0.45543309E+03</pdfrwt>
<pdfrwt beam="2">  1       21 0.12472982E-01 0.45543309E+03</pdfrwt>
<totfact> 0.52929425E+04</totfact>
</mgrwt>
</event>
<event>
 7    0  0.4737014E-002  0.4588312E+03  0.7546771E-02  0.1025121E+00
         21   -1    0    0  502  501  0.00000000000E+00  0.00000000000E+00  0.19938017741E+03  0.19938017741E+03  0.00000000000E+00 0.  1.
         21   -1    0    0  501  502 -0.00000000000E+00 -0.00000000000E+00 -0.26397565655E+03  0.26397565655E+03  0.00000000000E+00 0.  1.
      99926    2    1    2    0    0  0.00000000000E+00  0.00000000000E+00 -0.64595479135E+02  0.46335583396E+03  0.45883118131E+03 0.  0.
      99925    2    3    3    0    0  0.14682181200E+02  0.10823197514E+03 -0.82166888218E+02  0.29636484796E+03  0.26296577477E+03 0.  0.
         25    1    4    4    0    0  0.38101065963E+01  0.70578586713E+02 -0.39815207228E+01  0.14373313613E+03  0.12509000000E+03 0.  0.
         25    1    3    3    0    0 -0.14682181200E+02 -0.10823197514E+03  0.17571409084E+02  0.16699098600E+03  0.12509000000E+03 0.  0.
         25    1    4    4    0    0  0.10872074604E+02  0.37653388428E+02 -0.78185367495E+02  0.15263171183E+03  0.12509000000E+03 0.  0.
<mgrwt>
<rscale>  2 0.45883118E+03</rscale>
<asrwt>0</asrwt>
<pdfrwt beam="1">  1       21 0.29320615E-01 0.45883118E+03</pdfrwt>
<pdfrwt beam="2">  1       21 0.38819949E-01 0.45883118E+03</pdfrwt>
<totfact> 0.65900137E+04</totfact>
</mgrwt>
</event>
<event>
 7    0  0.4737014E-002  0.4643154E+03  0.7546771E-02  0.1023537E+00
         21   -1    0    0  502  501  0.00000000000E+00  0.00000000000E+00  0.13016830555E+03  0.13016830555E+03  0.00000000000E+00 0.  1.
         21   -1    0    0  501  502 -0.00000000000E+00 -0.00000000000E+00 -0.41405782460E+03  0.41405782460E+03  0.00000000000E+00 0.  1.
      99926    2    1    2    0    0  0.17763568394E-14  0.00000000000E+00 -0.28388951905E+03  0.54422613016E+03  0.46431543342E+03 0.  0.
      99925    2    3    3    0    0  0.10714038850E+02  0.85275823147E+02 -0.76114409978E+02  0.28692327224E+03  0.26295399617E+03 0.  0.
         25    1    4    4    0    0  0.39297331268E+02  0.65822228560E+02 -0.35652091096E+02  0.15098154098E+03  0.12509000000E+03 0.  0.
         25    1    4    4    0    0 -0.28583292419E+02  0.19453594586E+02 -0.40462318882E+02  0.13594173126E+03  0.12509000000E+03 0.  0.
         25    1    3    3    0    0 -0.10714038850E+02 -0.85275823147E+02 -0.20777510907E+03  0.25730285792E+03  0.12509000000E+03 0.  0.
<mgrwt>
<rscale>  2 0.46431543E+03</rscale>
<asrwt>0</asrwt>
<pdfrwt beam="1">  1       21 0.19142398E-01 0.46431543E+03</pdfrwt>
<pdfrwt beam="2">  1       21 0.60890857E-01 0.46431543E+03</pdfrwt>
<totfact> 0.57862804E+04</totfact>
</mgrwt>
</event>
<event>
 7    0  0.4737014E-002  0.4567943E+03  0.7546771E-02  0.1025715E+00
         21   -1    0    0  502  501  0.00000000000E+00  0.00000000000E+00  0.82698839200E+03  0.82698839200E+03  0.00000000000E+00 0. -1.
         21   -1    0    0  501  502 -0.00000000000E+00 -0.00000000000E+00 -0.63078586066E+02  0.63078586066E+02  0.00000000000E+00 0. -1.
      99926    2    1    2    0    0  0.00000000000E+00  0.00000000000E+00  0.76390980594E+03  0.89006697807E+03  0.45679430146E+03 0.  0.
      99925    2    3    3    0    0 -0.40912887653E+02  0.98648738638E+02  0.39696538581E+03  0.48794615845E+03  0.26287734402E+03 0.  0.
         25    1    4    4    0    0  0.48711507371E+00  0.78337123639E+02  0.24268515953E+03  0.28404319562E+03  0.12509000000E+03 0.  0.
         25    1    4    4    0    0 -0.41400002726E+02  0.20311614999E+02  0.15428022629E+03  0.20390296283E+03  0.12509000000E+03 0.  0.
         25    1    3    3    0    0  0.40912887653E+02 -0.98648738638E+02  0.36694442012E+03  0.40212081962E+03  0.12509000000E+03 0.  0.
<mgrwt>
<rscale>  2 0.45679430E+03</rscale>
<asrwt>0</asrwt>
<pdfrwt beam="1">  1       21 0.12161593E+00 0.45679430E+03</pdfrwt>
<pdfrwt beam="2">  1       21 0.92762631E-02 0.45679430E+03</pdfrwt>
<totfact> 0.43057767E+04</totfact>
</mgrwt>
</event>
<event>
 7    0  0.4737014E-002  0.4564543E+03  0.7546771E-02  0.1025815E+00
         21   -1    0    0  502  501  0.00000000000E+00  0.00000000000E+00  0.73307770837E+03  0.73307770837E+03  0.00000000000E+00 0.  1.
         21   -1    0    0  501  502 -0.00000000000E+00 -0.00000000000E+00 -0.71053349057E+02  0.71053349057E+02  0.00000000000E+00 0.  1.
      99926    2    1    2    0    0  0.00000000000E+00  0.00000000000E+00  0.66202435931E+03  0.80413105743E+03  0.45645427503E+03 0.  0.
      99925    2    3    3    0    0  0.27979485171E+02  0.56372827314E+01  0.22095251501E+03  0.34477660770E+03  0.26312784874E+03 0.  0.
         25    1    4    4    0    0 -0.32071160204E+01  0.35869930888E+02  0.87956713458E+02  0.15710133379E+03  0.12509000000E+03 0.  0.
         25    1    3    3    0    0 -0.27979485171E+02 -0.56372827314E+01  0.44107184430E+03  0.45935444973E+03  0.12509000000E+03 0.  0.
         25    1    4    4    0    0  0.31186601191E+02 -0.30232648157E+02  0.13299580155E+03  0.18767527391E+03  0.12509000000E+03 0.  0.
<mgrwt>
<rscale>  2 0.45645428E+03</rscale>
<asrwt>0</asrwt>
<pdfrwt beam="1">  1       21 0.10780554E+00 0.45645428E+03</pdfrwt>
<pdfrwt beam="2">  1       21 0.10449022E-01 0.45645428E+03</pdfrwt>
<totfact> 0.47026649E+04</totfact>
</mgrwt>
</event>
<event>
 7    0  0.4737014E-002  0.4460406E+03  0.7546771E-02  0.1028909E+00
         21   -1    0    0  502  501  0.00000000000E+00  0.00000000000E+00  0.64995155959E+02  0.64995155959E+02  0.00000000000E+00 0.  1.
         21   -1    0    0  501  502 -0.00000000000E+00 -0.00000000000E+00 -0.76525771153E+03  0.76525771153E+03  0.00000000000E+00 0.  1.
      99926    2    1    2    0    0 -0.17763568394E-14  0.00000000000E+00 -0.70026255557E+03  0.83025286749E+03  0.44604055560E+03 0.  0.
      99925    2    3    3    0    0 -0.15291186543E+02 -0.65264990347E+02 -0.29462821044E+03  0.40050867683E+03  0.26288415411E+03 0.  0.
         25    1    4    4    0    0  0.18228986241E+01 -0.60566806972E+02 -0.19573076657E+03  0.24006187150E+03  0.12509000000E+03 0.  0.
         25    1    3    3    0    0  0.15291186543E+02  0.65264990347E+02 -0.40563434513E+03  0.42974419065E+03  0.12509000000E+03 0.  0.
         25    1    4    4    0    0 -0.17114085167E+02 -0.46981833745E+01 -0.98897443871E+02  0.16044680534E+03  0.12509000000E+03 0.  0.
<mgrwt>
<rscale>  2 0.44604056E+03</rscale>
<asrwt>0</asrwt>
<pdfrwt beam="1">  1       21 0.95581120E-02 0.44604056E+03</pdfrwt>
<pdfrwt beam="2">  1       21 0.11253789E+00 0.44604056E+03</pdfrwt>
<totfact> 0.49741585E+04</totfact>
</mgrwt>
</event>
<event>
 7    0  0.4737014E-002  0.4751544E+03  0.7546771E-02  0.1020475E+00
         21   -1    0    0  502  501  0.00000000000E+00  0.00000000000E+00  0.10681640176E+03  0.10681640176E+03  0.00000000000E+00 0. -1.
         21   -1    0    0  501  502 -0.00000000000E+00 -0.00000000000E+00 -0.52841056701E+03  0.52841056701E+03  0.00000000000E+00 0. -1.
      99926    2    1    2    0    0  0.00000000000E+00  0.14210854715E-13 -0.42159416525E+03  0.63522696878E+03  0.47515435565E+03 0.  0.
      99925    2    3    3    0    0  0.60712645298E+02  0.10998488188E+03 -0.31109934121E+03  0.42632672038E+03  0.26303796849E+03 0.  0.
         25    1    4    4    0    0  0.24468671321E+02  0.35927332417E+02 -0.93377454797E+02  0.16203810125E+03  0.12509000000E+03 0.  0.
         25    1    4    4    0    0  0.36243973977E+02  0.74057549459E+02 -0.21772188642E+03  0.26428861914E+03  0.12509000000E+03 0.  0.
         25    1    3    3    0    0 -0.60712645298E+02 -0.10998488188E+03 -0.11049482403E+03  0.20890024839E+03  0.12509000000E+03 0.  0.
<mgrwt>
<rscale>  2 0.47515436E+03</rscale>
<asrwt>0</asrwt>
<pdfrwt beam="1">  1       21 0.15708295E-01 0.47515436E+03</pdfrwt>
<pdfrwt beam="2">  1       21 0.77707435E-01 0.47515436E+03</pdfrwt>
<totfact> 0.48390036E+04</totfact>
</mgrwt>
</event>
<event>
 7    0  0.4737014E-002  0.4501756E+03  0.7546771E-02  0.1027670E+00
         21   -1    0    0  502  501  0.00000000000E+00  0.00000000000E+00  0.40700833660E+02  0.40700833660E+02  0.00000000000E+00 0.  1.
         21   -1    0    0  501  502 -0.00000000000E+00 -0.00000000000E+00 -0.12448032229E+04  0.12448032229E+04  0.00000000000E+00 0.  1.
      99926    2    1    2    0    0 -0.71054273576E-14  0.00000000000E+00 -0.12041023892E+04  0.12855040565E+04  0.45017564978E+03 0.  0.
      99925    2    3    3    0    0 -0.33332475713E+02 -0.74927774347E+02 -0.96454236555E+03  0.10030828492E+04  0.26288400891E+03 0.  0.
         25    1    4    4    0    0  0.11764199339E+02 -0.47899723683E+02 -0.57740391889E+03  0.59285375395E+03  0.12509000000E+03 0.  0.
         25    1    3    3    0    0  0.33332475713E+02  0.74927774347E+02 -0.23956002365E+03  0.28242120731E+03  0.12509000000E+03 0.  0.
         25    1    4    4    0    0 -0.45096675052E+02 -0.27028050664E+02 -0.38713844666E+03  0.41022909527E+03  0.12509000000E+03 0.  0.
<mgrwt>
<rscale>  2 0.45017565E+03</rscale>
<asrwt>0</asrwt>
<pdfrwt beam="1">  1       21 0.59854166E-02 0.45017565E+03</pdfrwt>
<pdfrwt beam="2">  1       21 0.18305930E+00 0.45017565E+03</pdfrwt>
<totfact> 0.30673610E+04</totfact>
</mgrwt>
</event>
<event>
 7    0  0.4737014E-002  0.4754783E+03  0.7546771E-02  0.1020385E+00
         21   -1    0    0  502  501  0.00000000000E+00  0.00000000000E+00  0.74922600887E+02  0.74922600887E+02  0.00000000000E+00 0.  1.
         21   -1    0    0  501  502 -0.00000000000E+00 -0.00000000000E+00 -0.75437729165E+03  0.75437729165E+03  0.00000000000E+00 0.  1.
      99926    2    1    2    0    0 -0.26645352591E-14 -0.71054273576E-14 -0.67945469077E+03  0.82929989254E+03  0.47547832229E+03 0.  0.
      99925    2    3    3    0    0  0.70878451371E+01  0.61805620890E+02 -0.21811786503E+03  0.34727359948E+03  0.26297029780E+03 0.  0.
         25    1    4    4    0    0 -0.34122060528E+02  0.35127746573E+02 -0.90674718981E+02  0.16207308955E+03  0.12509000000E+03 0.  0.
         25    1    4    4    0    0  0.41209905665E+02  0.26677874317E+02 -0.12744314605E+03  0.18520050993E+03  0.12509000000E+03 0.  0.
         25    1    3    3    0    0 -0.70878451371E+01 -0.61805620890E+02 -0.46133682574E+03  0.48202629306E+03  0.12509000000E+03 0.  0.
<mgrwt>
<rscale>  2 0.47547832E+03</rscale>
<asrwt>0</asrwt>
<pdfrwt beam="1">  1       21 0.11018029E-01 0.47547832E+03</pdfrwt>
<pdfrwt beam="2">  1       21 0.11093784E+00 0.47547832E+03</pdfrwt>
<totfact> 0.39619865E+04</totfact>
</mgrwt>
</event>
<event>
 7    0  0.4737014E-002  0.4719279E+03  0.7546771E-02  0.1021377E+00
         21   -1    0    0  502  501  0.00000000000E+00  0.00000000000E+00  0.37530277183E+02  0.37530277183E+02  0.00000000000E+00 0. -1.
         21   -1    0    0  501  502 -0.00000000000E+00 -0.00000000000E+00 -0.14835752844E+04  0.14835752844E+04  0.00000000000E+00 0. -1.
      99926    2    1    2    0    0  0.71054273576E-14  0.00000000000E+00 -0.14460450072E+04  0.15211055616E+04  0.47192792520E+03 0.  0.
      99925    2    3    3    0    0  0.40065815366E+02  0.72945865901E+02 -0.12118577568E+04  0.12428654759E+04  0.26303801930E+03 0.  0.
         25    1    4    4    0    0  0.43181488455E+01  0.41145670256E+02 -0.76880620219E+03  0.78001416475E+03  0.12509000000E+03 0.  0.
         25    1    3    3    0    0 -0.40065815366E+02 -0.72945865901E+02 -0.23418725042E+03  0.27824008566E+03  0.12509000000E+03 0.  0.
         25    1    4    4    0    0  0.35747666520E+02  0.31800195645E+02 -0.44305155464E+03  0.46285131119E+03  0.12509000000E+03 0.  0.
<mgrwt>
<rscale>  2 0.47192793E+03</rscale>
<asrwt>0</asrwt>
<pdfrwt beam="1">  1       21 0.55191586E-02 0.47192793E+03</pdfrwt>
<pdfrwt beam="2">  1       21 0.21817283E+00 0.47192793E+03</pdfrwt>
<totfact> 0.20443740E+04</totfact>
</mgrwt>
</event>
<event>
 7    0  0.4737014E-002  0.4529669E+03  0.7546771E-02  0.1026841E+00
         21   -1    0    0  502  501  0.00000000000E+00  0.00000000000E+00  0.10071343253E+04  0.10071343253E+04  0.00000000000E+00 0. -1.
         21   -1    0    0  501  502 -0.00000000000E+00 -0.00000000000E+00 -0.50931390764E+02  0.50931390764E+02  0.00000000000E+00 0. -1.
      99926    2    1    2    0    0 -0.17763568394E-14  0.00000000000E+00  0.95620293456E+03  0.10580657161E+04  0.45296689449E+03 0.  0.
      99925    2    3    3    0    0 -0.97804127412E+01 -0.10909285949E+03  0.62706454702E+03  0.68931580799E+03  0.26447954280E+03 0.  0.
         25    1    3    3    0    0  0.97804127412E+01  0.10909285949E+03  0.32913838754E+03  0.36874990809E+03  0.12509000000E+03 0.  0.
         25    1    4    4    0    0 -0.33651175500E+02 -0.75961609375E+02  0.27275601944E+03  0.31136140087E+03  0.12509000000E+03 0.  0.
         25    1    4    4    0    0  0.23870762759E+02 -0.33131250120E+02  0.35430852758E+03  0.37795440713E+03  0.12509000000E+03 0.  0.
<mgrwt>
<rscale>  2 0.45296689E+03</rscale>
<asrwt>0</asrwt>
<pdfrwt beam="1">  1       21 0.14810798E+00 0.45296689E+03</pdfrwt>
<pdfrwt beam="2">  1       21 0.74899110E-02 0.45296689E+03</pdfrwt>
<totfact> 0.37575518E+04</totfact>
</mgrwt>
</event>
<event>
 7    0  0.4737014E-002  0.4323701E+03  0.7546771E-02  0.1033114E+00
         21   -1    0    0  502  501  0.00000000000E+00  0.00000000000E+00  0.36544165578E+02  0.36544165578E+02  0.00000000000E+00 0.  1.
         21   -1    0    0  501  502 -0.00000000000E+00 -0.00000000000E+00 -0.12788900271E+04  0.12788900271E+04  0.00000000000E+00 0.  1.
      99926    2    1    2    0    0  0.00000000000E+00  0.00000000000E+00 -0.12423458616E+04  0.13154341927E+04  0.43237006791E+03 0.  0.
      99925    2    3    3    0    0  0.60146658151E+02 -0.69177820718E+02 -0.77007242514E+03  0.81834979524E+03  0.26130758895E+03 0.  0.
         25    1    3    3    0    0 -0.60146658151E+02  0.69177820718E+02 -0.47227343641E+03  0.49708439747E+03  0.12509000000E+03 0.  0.
         25    1    4    4    0    0  0.35725970388E+01 -0.31632675031E+02 -0.44812572811E+03  0.46634490013E+03  0.12509000000E+03 0.  0.
         25    1    4    4    0    0  0.56574061113E+02 -0.37545145687E+02 -0.32194669703E+03  0.35200489512E+03  0.12509000000E+03 0.  0.
<mgrwt>
<rscale>  2 0.43237007E+03</rscale>
<asrwt>0</asrwt>
<pdfrwt beam="1">  1       21 0.53741433E-02 0.43237007E+03</pdfrwt>
<pdfrwt beam="2">  1       21 0.18807202E+00 0.43237007E+03</pdfrwt>
<totfact> 0.34324234E+04</totfact>
</mgrwt>
</event>
<event>
 7    0  0.4737014E-002  0.4582560E+03  0.7546771E-02  0.1025288E+00
         21   -1    0    0  502  501  0.00000000000E+00  0.00000000000E+00  0.32540690985E+02  0.32540690985E+02  0.00000000000E+00 0.  1.
         21   -1    0    0  501  502 -0.00000000000E+00 -0.00000000000E+00 -0.16133533559E+04  0.16133533559E+04  0.00000000000E+00 0.  1.
      99926    2    1    2    0    0  0.00000000000E+00 -0.17763568394E-14 -0.15808126649E+04  0.16458940469E+04  0.45825596779E+03 0.  0.
      99925    2    3    3    0    0  0.10030919652E+03 -0.91567199716E+01 -0.78540357780E+03  0.83443307778E+03  0.26319954566E+03 0.  0.
         25    1    4    4    0    0  0.42854175472E+02  0.35417504848E+02 -0.36477191420E+03  0.38961126459E+03  0.12509000000E+03 0.  0.
         25    1    4    4    0    0  0.57455021048E+02 -0.44574224819E+02 -0.42063166360E+03  0.44482181318E+03  0.12509000000E+03 0.  0.
         25    1    3    3    0    0 -0.10030919652E+03  0.91567199716E+01 -0.79540908711E+03  0.81146096911E+03  0.12509000000E+03 0.  0.
<mgrwt>
<rscale>  2 0.45825597E+03</rscale>
<asrwt>0</asrwt>
<pdfrwt beam="1">  1       21 0.47853942E-02 0.45825597E+03</pdfrwt>
<pdfrwt beam="2">  1       21 0.23725792E+00 0.45825597E+03</pdfrwt>
<totfact> 0.19904293E+04</totfact>
</mgrwt>
</event>
<event>
 7    0  0.4737014E-002  0.4527211E+03  0.7546771E-02  0.1026914E+00
         21   -1    0    0  502  501  0.00000000000E+00  0.00000000000E+00  0.47485672335E+03  0.47485672335E+03  0.00000000000E+00 0. -1.
         21   -1    0    0  501  502 -0.00000000000E+00 -0.00000000000E+00 -0.10790432851E+03  0.10790432851E+03  0.00000000000E+00 0. -1.
      99926    2    1    2    0    0  0.88817841970E-15  0.00000000000E+00  0.36695239484E+03  0.58276105186E+03  0.45272108796E+03 0.  0.
      99925    2    3    3    0    0 -0.72994426696E+01  0.97497834583E+01  0.37346013994E+03  0.45691114528E+03  0.26295813052E+03 0.  0.
         25    1    3    3    0    0  0.72994426696E+01 -0.97497834583E+01 -0.65077451075E+01  0.12584990658E+03  0.12509000000E+03 0.  0.
         25    1    4    4    0    0  0.31680266910E+02  0.61314975147E+01  0.15111443209E+03  0.19880722889E+03  0.12509000000E+03 0.  0.
         25    1    4    4    0    0 -0.38979709579E+02  0.36182859436E+01  0.22234570785E+03  0.25810391638E+03  0.12509000000E+03 0.  0.
<mgrwt>
<rscale>  2 0.45272109E+03</rscale>
<asrwt>0</asrwt>
<pdfrwt beam="1">  1       21 0.69831870E-01 0.45272109E+03</pdfrwt>
<pdfrwt beam="2">  1       21 0.15868284E-01 0.45272109E+03</pdfrwt>
<totfact> 0.60840771E+04</totfact>
</mgrwt>
</event>
<event>
 7    0  0.4737014E-002  0.4556906E+03  0.7546771E-02  0.1026039E+00
         21   -1    0    0  502  501  0.00000000000E+00  0.00000000000E+00  0.46048685923E+03  0.46048685923E+03  0.00000000000E+00 0.  1.
         21   -1    0    0  501  502 -0.00000000000E+00 -0.00000000000E+00 -0.11273609518E+03  0.11273609518E+03  0.00000000000E+00 0.  1.
      99926    2    1    2    0    0  0.00000000000E+00 -0.14210854715E-13  0.34775076405E+03  0.57322295441E+03  0.45569064240E+03 0.  0.
      99925    2    3    3    0    0  0.42492178351E+02 -0.98136931209E+02  0.16958494535E+03  0.33068015501E+03  0.26297123177E+03 0.  0.
         25    1    4    4    0    0  0.10525105290E+01 -0.82266054538E+02  0.10642092362E+03  0.18368922830E+03  0.12509000000E+03 0.  0.
         25    1    4    4    0    0  0.41439667822E+02 -0.15870876671E+02  0.63164021728E+02  0.14699092671E+03  0.12509000000E+03 0.  0.
         25    1    3    3    0    0 -0.42492178351E+02  0.98136931209E+02  0.17816581870E+03  0.24254279940E+03  0.12509000000E+03 0.  0.
<mgrwt>
<rscale>  2 0.45569064E+03</rscale>
<asrwt>0</asrwt>
<pdfrwt beam="1">  1       21 0.67718655E-01 0.45569064E+03</pdfrwt>
<pdfrwt beam="2">  1       21 0.16578838E-01 0.45569064E+03</pdfrwt>
<totfact> 0.60029008E+04</totfact>
</mgrwt>
</event>
<event>
 7    0  0.4737014E-002  0.4546897E+03  0.7546771E-02  0.1026333E+00
         21   -1    0    0  502  501  0.00000000000E+00  0.00000000000E+00  0.21142162554E+03  0.21142162554E+03  0.00000000000E+00 0.  1.
         21   -1    0    0  501  502 -0.00000000000E+00 -0.00000000000E+00 -0.24446737282E+03  0.24446737282E+03  0.00000000000E+00 0.  1.
      99926    2    1    2    0    0  0.18873791419E-14  0.44408920985E-15 -0.33045747281E+02  0.45588899836E+03  0.45468973753E+03 0.  0.
      99925    2    3    3    0    0 -0.97935194162E+00 -0.13254085102E+01 -0.13417245496E+03  0.29502621539E+03  0.26274608325E+03 0.  0.
         25    1    3    3    0    0  0.97935194162E+00  0.13254085102E+01  0.10112670768E+03  0.16086278297E+03  0.12509000000E+03 0.  0.
         25    1    4    4    0    0  0.26545681464E+02 -0.71045865601E+01 -0.34528593223E+02  0.13264569426E+03  0.12509000000E+03 0.  0.
         25    1    4    4    0    0 -0.27525033406E+02  0.57791780499E+01 -0.99643861736E+02  0.16238052114E+03  0.12509000000E+03 0.  0.
<mgrwt>
<rscale>  2 0.45468974E+03</rscale>
<asrwt>0</asrwt>
<pdfrwt beam="1">  1       21 0.31091416E-01 0.45468974E+03</pdfrwt>
<pdfrwt beam="2">  1       21 0.35951084E-01 0.45468974E+03</pdfrwt>
<totfact> 0.68650538E+04</totfact>
</mgrwt>
</event>
<event>
 7    0  0.4737014E-002  0.4699665E+03  0.7546771E-02  0.1021930E+00
         21   -1    0    0  502  501  0.00000000000E+00  0.00000000000E+00  0.80578447545E+03  0.80578447545E+03  0.00000000000E+00 0. -1.
         21   -1    0    0  501  502 -0.00000000000E+00 -0.00000000000E+00 -0.68525915805E+02  0.68525915805E+02  0.00000000000E+00 0. -1.
      99926    2    1    2    0    0  0.14210854715E-13  0.00000000000E+00  0.73725855965E+03  0.87431039126E+03  0.46996646315E+03 0.  0.
      99925    2    3    3    0    0 -0.12157649288E+03 -0.34658415388E+02  0.47450516243E+03  0.55702675596E+03  0.26294791938E+03 0.  0.
         25    1    4    4    0    0 -0.44356189142E+02 -0.50229678006E+02  0.19973249219E+03  0.24501238460E+03  0.12509000000E+03 0.  0.
         25    1    4    4    0    0 -0.77220303735E+02  0.15571262618E+02  0.27477267024E+03  0.31201437136E+03  0.12509000000E+03 0.  0.
         25    1    3    3    0    0  0.12157649288E+03  0.34658415388E+02  0.26275339722E+03  0.31728363530E+03  0.12509000000E+03 0.  0.
<mgrwt>
<rscale>  2 0.46996646E+03</rscale>
<asrwt>0</asrwt>
<pdfrwt beam="1">  1       21 0.11849771E+00 0.46996646E+03</pdfrwt>
<pdfrwt beam="2">  1       21 0.10077341E-01 0.46996646E+03</pdfrwt>
<totfact> 0.39522191E+04</totfact>
</mgrwt>
</event>
<event>
 7    0  0.4737014E-002  0.4554094E+03  0.7546771E-02  0.1026121E+00
         21   -1    0    0  502  501  0.00000000000E+00  0.00000000000E+00  0.36665148994E+03  0.36665148994E+03  0.00000000000E+00 0. -1.
         21   -1    0    0  501  502 -0.00000000000E+00 -0.00000000000E+00 -0.14141341706E+03  0.14141341706E+03  0.00000000000E+00 0. -1.
      99926    2    1    2    0    0  0.71054273576E-14  0.00000000000E+00  0.22523807288E+03  0.50806490699E+03  0.45540944242E+03 0.  0.
      99925    2    3    3    0    0 -0.45798734753E+02  0.18492367441E+02  0.27093964342E+02  0.26859029956E+03  0.26261602075E+03 0.  0.
         25    1    4    4    0    0 -0.50425992311E+02  0.15806764189E+02  0.42858669295E+02  0.14239735998E+03  0.12509000000E+03 0.  0.
         25    1    3    3    0    0  0.45798734753E+02 -0.18492367441E+02  0.19814410854E+03  0.23947460744E+03  0.12509000000E+03 0.  0.
         25    1    4    4    0    0  0.46272575574E+01  0.26856032513E+01 -0.15764704953E+02  0.12619293958E+03  0.12509000000E+03 0.  0.
<mgrwt>
<rscale>  2 0.45540944E+03</rscale>
<asrwt>0</asrwt>
<pdfrwt beam="1">  1       21 0.53919337E-01 0.45540944E+03</pdfrwt>
<pdfrwt beam="2">  1       21 0.20796091E-01 0.45540944E+03</pdfrwt>
<totfact> 0.64497860E+04</totfact>
</mgrwt>
</event>
<event>
 7    0  0.4737014E-002  0.4581196E+03  0.7546771E-02  0.1025328E+00
         21   -1    0    0  502  501  0.00000000000E+00  0.00000000000E+00  0.46499785394E+02  0.46499785394E+02  0.00000000000E+00 0. -1.
         21   -1    0    0  501  502 -0.00000000000E+00 -0.00000000000E+00 -0.11283577022E+04  0.11283577022E+04  0.00000000000E+00 0. -1.
      99926    2    1    2    0    0  0.00000000000E+00  0.00000000000E+00 -0.10818579168E+04  0.11748574876E+04  0.45811959573E+03 0.  0.
      99925    2    3    3    0    0  0.52426986646E+02 -0.35819596587E+02 -0.92807305317E+03  0.96670147683E+03  0.26298387948E+03 0.  0.
         25    1    4    4    0    0  0.45149124865E+02  0.16580090403E+02 -0.49584478478E+03  0.51363693556E+03  0.12509000000E+03 0.  0.
         25    1    4    4    0    0  0.72778617809E+01 -0.52399686990E+02 -0.43222826839E+03  0.45306454128E+03  0.12509000000E+03 0.  0.
         25    1    3    3    0    0 -0.52426986646E+02  0.35819596587E+02 -0.15378486361E+03  0.20815601073E+03  0.12509000000E+03 0.  0.
<mgrwt>
<rscale>  2 0.45811960E+03</rscale>
<asrwt>0</asrwt>
<pdfrwt beam="1">  1       21 0.68382044E-02 0.45811960E+03</pdfrwt>
<pdfrwt beam="2">  1       21 0.16593494E+00 0.45811960E+03</pdfrwt>
<totfact> 0.32173978E+04</totfact>
</mgrwt>
</event>
<event>
 7    0  0.4737014E-002  0.4521788E+03  0.7546771E-02  0.1027074E+00
         21   -1    0    0  502  501  0.00000000000E+00  0.00000000000E+00  0.13668982143E+04  0.13668982143E+04  0.00000000000E+00 0. -1.
         21   -1    0    0  501  502 -0.00000000000E+00 -0.00000000000E+00 -0.37395923932E+02  0.37395923932E+02  0.00000000000E+00 0. -1.
      99926    2    1    2    0    0  0.71054273576E-14  0.00000000000E+00  0.13295022903E+04  0.14042941382E+04  0.45217882146E+03 0.  0.
      99925    2    3    3    0    0 -0.40891327184E+02  0.96422007972E+02  0.72932810075E+03  0.78234086809E+03  0.26299895641E+03 0.  0.
         25    1    4    4    0    0 -0.55765111174E+02  0.44158665449E+02  0.42914794041E+03  0.45263141541E+03  0.12509000000E+03 0.  0.
         25    1    3    3    0    0  0.40891327184E+02 -0.96422007972E+02  0.60017418959E+03  0.62195327012E+03  0.12509000000E+03 0.  0.
         25    1    4    4    0    0  0.14873783990E+02  0.52263342523E+02  0.30018016033E+03  0.32970945267E+03  0.12509000000E+03 0.  0.
<mgrwt>
<rscale>  2 0.45217882E+03</rscale>
<asrwt>0</asrwt>
<pdfrwt beam="1">  1       21 0.20101441E+00 0.45217882E+03</pdfrwt>
<pdfrwt beam="2">  1       21 0.54994015E-02 0.45217882E+03</pdfrwt>
<totfact> 0.26800565E+04</totfact>
</mgrwt>
</event>
<event>
 7    0  0.4737014E-002  0.4563658E+03  0.7546771E-02  0.1025841E+00
         21   -1    0    0  502  501  0.00000000000E+00  0.00000000000E+00  0.14788795353E+03  0.14788795353E+03  0.00000000000E+00 0.  1.
         21   -1    0    0  501  502 -0.00000000000E+00 -0.00000000000E+00 -0.35207348738E+03  0.35207348738E+03  0.00000000000E+00 0.  1.
      99926    2    1    2    0    0  0.00000000000E+00 -0.14210854715E-13 -0.20418553385E+03  0.49996144091E+03  0.45636576357E+03 0.  0.
      99925    2    3    3    0    0 -0.73751480977E+02  0.88459340650E+02 -0.12431486876E+03  0.31210200639E+03  0.26208613070E+03 0.  0.
         25    1    4    4    0    0 -0.14491987740E+02  0.71412903772E+02 -0.44679201795E+02  0.15150432240E+03  0.12509000000E+03 0.  0.
         25    1    4    4    0    0 -0.59259493237E+02  0.17046436879E+02 -0.79635666969E+02  0.16059768399E+03  0.12509000000E+03 0.  0.
         25    1    3    3    0    0  0.73751480977E+02 -0.88459340650E+02 -0.79870665086E+02  0.18785943451E+03  0.12509000000E+03 0.  0.
<mgrwt>
<rscale>  2 0.45636576E+03</rscale>
<asrwt>0</asrwt>
<pdfrwt beam="1">  1       21 0.21748228E-01 0.45636576E+03</pdfrwt>
<pdfrwt beam="2">  1       21 0.51775513E-01 0.45636576E+03</pdfrwt>
<totfact> 0.64570475E+04</totfact>
</mgrwt>
</event>
<event>
 7    0  0.4737014E-002  0.4473712E+03  0.7546771E-02  0.1028509E+00
         21   -1    0    0  502  501  0.00000000000E+00  0.00000000000E+00  0.66455020963E+03  0.66455020963E+03  0.00000000000E+00 0. -1.
         21   -1    0    0  501  502 -0.00000000000E+00 -0.00000000000E+00 -0.75291897516E+02  0.75291897516E+02  0.00000000000E+00 0. -1.
      99926    2    1    2    0    0  0.17763568394E-14 -0.35527136788E-14  0.58925831212E+03  0.73984210715E+03  0.44737119388E+03 0.  0.
      99925    2    3    3    0    0 -0.79411437395E+01 -0.23183740874E+02  0.54359563761E+03  0.60444219744E+03  0.26316079727E+03 0.  0.
         25    1    3    3    0    0  0.79411437395E+01  0.23183740874E+02  0.45662674508E+02  0.13539990970E+03  0.12509000000E+03 0.  0.
         25    1    4    4    0    0 -0.35182162219E+02 -0.29594609119E+02  0.32120023703E+03  0.34775095369E+03  0.12509000000E+03 0.  0.
         25    1    4    4    0    0  0.27241018479E+02  0.64108682453E+01  0.22239540058E+03  0.25669124375E+03  0.12509000000E+03 0.  0.
<mgrwt>
<rscale>  2 0.44737119E+03</rscale>
<asrwt>0</asrwt>
<pdfrwt beam="1">  1       21 0.97727969E-01 0.44737119E+03</pdfrwt>
<pdfrwt beam="2">  1       21 0.11072338E-01 0.44737119E+03</pdfrwt>
<totfact> 0.53956476E+04</totfact>
</mgrwt>
</event>
<event>
 7    0  0.4737014E-002  0.4575637E+03  0.7546771E-02  0.1025490E+00
         21   -1    0    0  502  501  0.00000000000E+00  0.00000000000E+00  0.84263711229E+03  0.84263711229E+03  0.00000000000E+00 0.  1.
         21   -1    0    0  501  502 -0.00000000000E+00 -0.00000000000E+00 -0.62115879533E+02  0.62115879533E+02  0.00000000000E+00 0.  1.
      99926    2    1    2    0    0  0.00000000000E+00  0.00000000000E+00  0.78052123276E+03  0.90475299183E+03  0.45756374576E+03 0.  0.
      99925    2    3    3    0    0 -0.23518130382E+02  0.11236621911E+03  0.51772951891E+03  0.59188518808E+03  0.26287820652E+03 0.  0.
         25    1    4    4    0    0 -0.68395152562E+01  0.88406928232E+02  0.22572741560E+03  0.27287898084E+03  0.12509000000E+03 0.  0.
         25    1    4    4    0    0 -0.16678615126E+02  0.23959290878E+02  0.29200210331E+03  0.31900620724E+03  0.12509000000E+03 0.  0.
         25    1    3    3    0    0  0.23518130382E+02 -0.11236621911E+03  0.26279171385E+03  0.31286780375E+03  0.12509000000E+03 0.  0.
<mgrwt>
<rscale>  2 0.45756375E+03</rscale>
<asrwt>0</asrwt>
<pdfrwt beam="1">  1       21 0.12391722E+00 0.45756375E+03</pdfrwt>
<pdfrwt beam="2">  1       21 0.91346887E-02 0.45756375E+03</pdfrwt>
<totfact> 0.42175913E+04</totfact>
</mgrwt>
</event>
<event>
 7    0  0.4737014E-002  0.4545705E+03  0.7546771E-02  0.1026368E+00
         21   -1    0    0  502  501  0.00000000000E+00  0.00000000000E+00  0.15320093272E+03  0.15320093272E+03  0.00000000000E+00 0.  1.
         21   -1    0    0  501  502 -0.00000000000E+00 -0.00000000000E+00 -0.33719492907E+03  0.33719492907E+03  0.00000000000E+00 0.  1.
      99926    2    1    2    0    0  0.00000000000E+00  0.00000000000E+00 -0.18399399635E+03  0.49039586179E+03  0.45457046820E+03 0.  0.
      99925    2    3    3    0    0 -0.95677384021E+02 -0.58208876777E+02 -0.13547475914E+03  0.31562727299E+03  0.26215401951E+03 0.  0.
         25    1    4    4    0    0 -0.33365897068E+02 -0.57737671702E+02 -0.93096271259E+02  0.16959170275E+03  0.12509000000E+03 0.  0.
         25    1    4    4    0    0 -0.62311486953E+02 -0.47120507481E+00 -0.42378487878E+02  0.14603557024E+03  0.12509000000E+03 0.  0.
         25    1    3    3    0    0  0.95677384021E+02  0.58208876777E+02 -0.48519237216E+02  0.17476858879E+03  0.12509000000E+03 0.  0.
<mgrwt>
<rscale>  2 0.45457047E+03</rscale>
<asrwt>0</asrwt>
<pdfrwt beam="1">  1       21 0.22529549E-01 0.45457047E+03</pdfrwt>
<pdfrwt beam="2">  1       21 0.49587488E-01 0.45457047E+03</pdfrwt>
<totfact> 0.66176155E+04</totfact>
</mgrwt>
</event>
<event>
 7    0  0.4737014E-002  0.4548927E+03  0.7546771E-02  0.1026273E+00
         21   -1    0    0  502  501  0.00000000000E+00  0.00000000000E+00  0.62199409246E+03  0.62199409246E+03  0.00000000000E+00 0.  1.
         21   -1    0    0  501  502 -0.00000000000E+00 -0.00000000000E+00 -0.83170951134E+02  0.83170951134E+02  0.00000000000E+00 0.  1.
      99926    2    1    2    0    0  0.00000000000E+00  0.00000000000E+00  0.53882314132E+03  0.70516504359E+03  0.45489269183E+03 0.  0.
      99925    2    3    3    0    0  0.60504219304E+02 -0.65705493332E+02  0.23196604412E+03  0.36196428804E+03  0.26311960737E+03 0.  0.
         25    1    3    3    0    0 -0.60504219304E+02  0.65705493332E+02  0.30685709720E+03  0.34320075555E+03  0.12509000000E+03 0.  0.
         25    1    4    4    0    0  0.59612901004E+02 -0.68899088532E+01  0.13072488150E+03  0.19062442539E+03  0.12509000000E+03 0.  0.
         25    1    4    4    0    0  0.89131829931E+00 -0.58815584479E+02  0.10124116262E+03  0.17133986265E+03  0.12509000000E+03 0.  0.
<mgrwt>
<rscale>  2 0.45489269E+03</rscale>
<asrwt>0</asrwt>
<pdfrwt beam="1">  1       21 0.91469717E-01 0.45489269E+03</pdfrwt>
<pdfrwt beam="2">  1       21 0.12231023E-01 0.45489269E+03</pdfrwt>
<totfact> 0.52667881E+04</totfact>
</mgrwt>
</event>
<event>
 7    0  0.4737014E-002  0.4556387E+03  0.7546771E-02  0.1026054E+00
         21   -1    0    0  502  501  0.00000000000E+00  0.00000000000E+00  0.18895641761E+03  0.18895641761E+03  0.00000000000E+00 0.  1.
         21   -1    0    0  501  502 -0.00000000000E+00 -0.00000000000E+00 -0.27467525912E+03  0.27467525912E+03  0.00000000000E+00 0.  1.
      99926    2    1    2    0    0  0.00000000000E+00  0.00000000000E+00 -0.85718841516E+02  0.46363167673E+03  0.45563868567E+03 0.  0.
      99925    2    3    3    0    0 -0.48544466938E+02  0.10179579024E+03 -0.36385163185E+02  0.28813162517E+03  0.26263473712E+03 0.  0.
         25    1    4    4    0    0 -0.21079109302E+02  0.80554039284E+01 -0.15322510487E+02  0.12802931621E+03  0.12509000000E+03 0.  0.
         25    1    3    3    0    0  0.48544466938E+02 -0.10179579024E+03 -0.49333678331E+02  0.17550005156E+03  0.12509000000E+03 0.  0.
         25    1    4    4    0    0 -0.27465357636E+02  0.93740386308E+02 -0.21062652697E+02  0.16010230896E+03  0.12509000000E+03 0.  0.
<mgrwt>
<rscale>  2 0.45563869E+03</rscale>
<asrwt>0</asrwt>
<pdfrwt beam="1">  1       21 0.27787709E-01 0.45563869E+03</pdfrwt>
<pdfrwt beam="2">  1       21 0.40393420E-01 0.45563869E+03</pdfrwt>
<totfact> 0.67568154E+04</totfact>
</mgrwt>
</event>
<event>
 7    0  0.4737014E-002  0.4520413E+03  0.7546771E-02  0.1027115E+00
         21   -1    0    0  502  501  0.00000000000E+00  0.00000000000E+00  0.54839489169E+03  0.54839489169E+03  0.00000000000E+00 0.  1.
         21   -1    0    0  501  502 -0.00000000000E+00 -0.00000000000E+00 -0.93154294270E+02  0.93154294270E+02  0.00000000000E+00 0.  1.
      99926    2    1    2    0    0 -0.71054273576E-14  0.14210854715E-13  0.45524059743E+03  0.64154918596E+03  0.45204132164E+03 0.  0.
      99925    2    3    3    0    0 -0.35507934852E+02  0.86149108419E+02  0.37019558037E+03  0.46389039686E+03  0.26356602637E+03 0.  0.
         25    1    4    4    0    0 -0.34682912018E+02  0.82559718557E+02  0.18934687538E+03  0.24396466717E+03  0.12509000000E+03 0.  0.
         25    1    3    3    0    0  0.35507934852E+02 -0.86149108419E+02  0.85045017057E+02  0.17765878910E+03  0.12509000000E+03 0.  0.
         25    1    4    4    0    0 -0.82502283350E+00  0.35893898618E+01  0.18084870499E+03  0.21992572969E+03  0.12509000000E+03 0.  0.
<mgrwt>
<rscale>  2 0.45204132E+03</rscale>
<asrwt>0</asrwt>
<pdfrwt beam="1">  1       21 0.80646306E-01 0.45204132E+03</pdfrwt>
<pdfrwt beam="2">  1       21 0.13699161E-01 0.45204132E+03</pdfrwt>
<totfact> 0.57522225E+04</totfact>
</mgrwt>
</event>
<event>
 7    0  0.4737014E-002  0.4499035E+03  0.7546771E-02  0.1027751E+00
         21   -1    0    0  502  501  0.00000000000E+00  0.00000000000E+00  0.14293028814E+03  0.14293028814E+03  0.00000000000E+00 0.  1.
         21   -1    0    0  501  502 -0.00000000000E+00 -0.00000000000E+00 -0.35404180684E+03  0.35404180684E+03  0.00000000000E+00 0.  1.
      99926    2    1    2    0    0  0.00000000000E+00  0.17763568394E-14 -0.21111151870E+03  0.49697209497E+03  0.44990353394E+03 0.  0.
      99925    2    3    3    0    0 -0.53480823404E+01  0.89645343278E+01 -0.25255717866E+03  0.36478202087E+03  0.26300537903E+03 0.  0.
         25    1    4    4    0    0 -0.18494835081E+01 -0.35971755055E+02 -0.12936366198E+03  0.18352071516E+03  0.12509000000E+03 0.  0.
         25    1    3    3    0    0  0.53480823404E+01 -0.89645343278E+01  0.41445659961E+02  0.13219007410E+03  0.12509000000E+03 0.  0.
         25    1    4    4    0    0 -0.34985988323E+01  0.44936289383E+02 -0.12319351668E+03  0.18126130572E+03  0.12509000000E+03 0.  0.
<mgrwt>
<rscale>  2 0.44990353E+03</rscale>
<asrwt>0</asrwt>
<pdfrwt beam="1">  1       21 0.21019160E-01 0.44990353E+03</pdfrwt>
<pdfrwt beam="2">  1       21 0.52064971E-01 0.44990353E+03</pdfrwt>
<totfact> 0.68201590E+04</totfact>
</mgrwt>
</event>
<event>
 7    0  0.4737014E-002  0.4535170E+03  0.7546771E-02  0.1026678E+00
         21   -1    0    0  502  501  0.00000000000E+00  0.00000000000E+00  0.16957751161E+03  0.16957751161E+03  0.00000000000E+00 0.  1.
         21   -1    0    0  501  502 -0.00000000000E+00 -0.00000000000E+00 -0.30322073141E+03  0.30322073141E+03  0.00000000000E+00 0.  1.
      99926    2    1    2    0    0  0.44408920985E-14  0.14210854715E-13 -0.13364321980E+03  0.47279824302E+03  0.45351699902E+03 0.  0.
      99925    2    3    3    0    0  0.41043443088E+01  0.10920989133E+03 -0.10882927986E+03  0.30484918609E+03  0.26295544889E+03 0.  0.
         25    1    4    4    0    0  0.40515532884E+02  0.65561370038E+02 -0.47800690199E+02  0.15450636145E+03  0.12509000000E+03 0.  0.
         25    1    4    4    0    0 -0.36411188576E+02  0.43648521292E+02 -0.61028589664E+02  0.15034282464E+03  0.12509000000E+03 0.  0.
         25    1    3    3    0    0 -0.41043443088E+01 -0.10920989133E+03 -0.24813939937E+02  0.16794905692E+03  0.12509000000E+03 0.  0.
<mgrwt>
<rscale>  2 0.45351700E+03</rscale>
<asrwt>0</asrwt>
<pdfrwt beam="1">  1       21 0.24937870E-01 0.45351700E+03</pdfrwt>
<pdfrwt beam="2">  1       21 0.44591284E-01 0.45351700E+03</pdfrwt>
<totfact> 0.68025218E+04</totfact>
</mgrwt>
</event>
<event>
 7    0  0.4737014E-002  0.4554689E+03  0.7546771E-02  0.1026104E+00
         21   -1    0    0  502  501  0.00000000000E+00  0.00000000000E+00  0.73515691220E+03  0.73515691220E+03  0.00000000000E+00 0.  1.
         21   -1    0    0  501  502 -0.00000000000E+00 -0.00000000000E+00 -0.70546811025E+02  0.70546811025E+02  0.00000000000E+00 0.  1.
      99926    2    1    2    0    0  0.00000000000E+00  0.14210854715E-13  0.66461010117E+03  0.80570372322E+03  0.45546888262E+03 0.  0.
      99925    2    3    3    0    0 -0.11438119341E+02 -0.98872631781E+02  0.32118350538E+03  0.42689511365E+03  0.26300944097E+03 0.  0.
         25    1    3    3    0    0  0.11438119341E+02  0.98872631781E+02  0.34342659580E+03  0.37880860958E+03  0.12509000000E+03 0.  0.
         25    1    4    4    0    0 -0.26355880132E+01 -0.58207184743E+02  0.10385313896E+03  0.17270786100E+03  0.12509000000E+03 0.  0.
         25    1    4    4    0    0 -0.88025313274E+01 -0.40665447038E+02  0.21733036642E+03  0.25418725264E+03  0.12509000000E+03 0.  0.
<mgrwt>
<rscale>  2 0.45546888E+03</rscale>
<asrwt>0</asrwt>
<pdfrwt beam="1">  1       21 0.10811131E+00 0.45546888E+03</pdfrwt>
<pdfrwt beam="2">  1       21 0.10374531E-01 0.45546888E+03</pdfrwt>
<totfact> 0.47315821E+04</totfact>
</mgrwt>
</event>
<event>
 7    0  0.4737014E-002  0.4630509E+03  0.7546771E-02  0.1023900E+00
         21   -1    0    0  502  501  0.00000000000E+00  0.00000000000E+00  0.39674980285E+03  0.39674980285E+03  0.00000000000E+00 0. -1.
         21   -1    0    0  501  502 -0.00000000000E+00 -0.00000000000E+00 -0.13510787998E+03  0.13510787998E+03  0.00000000000E+00 0. -1.
      99926    2    1    2    0    0 -0.14210854715E-13  0.00000000000E+00  0.26164192287E+03  0.53185768283E+03  0.46305086004E+03 0.  0.
      99925    2    3    3    0    0  0.80507675492E+02 -0.54274182794E+02  0.81287058119E+02  0.29185235357E+03  0.26295063746E+03 0.  0.
         25    1    4    4    0    0  0.15024492887E+02  0.72455413701E+01  0.32875152474E+02  0.13040903729E+03  0.12509000000E+03 0.  0.
         25    1    3    3    0    0 -0.80507675492E+02  0.54274182794E+02  0.18035486476E+03  0.24000532926E+03  0.12509000000E+03 0.  0.
         25    1    4    4    0    0  0.65483182605E+02 -0.61519724164E+02  0.48411905645E+02  0.16144331629E+03  0.12509000000E+03 0.  0.
<mgrwt>
<rscale>  2 0.46305086E+03</rscale>
<asrwt>0</asrwt>
<pdfrwt beam="1">  1       21 0.58345559E-01 0.46305086E+03</pdfrwt>
<pdfrwt beam="2">  1       21 0.19868806E-01 0.46305086E+03</pdfrwt>
<totfact> 0.59211097E+04</totfact>
</mgrwt>
</event>
<event>
 7    0  0.4737014E-002  0.4549263E+03  0.7546771E-02  0.1026263E+00
         21   -1    0    0  502  501  0.00000000000E+00  0.00000000000E+00  0.13433799948E+04  0.13433799948E+04  0.00000000000E+00 0.  1.
         21   -1    0    0  501  502 -0.00000000000E+00 -0.00000000000E+00 -0.38514407212E+02  0.38514407212E+02  0.00000000000E+00 0.  1.
      99926    2    1    2    0    0  0.00000000000E+00  0.00000000000E+00  0.13048655876E+04  0.13818944021E+04  0.45492629804E+03 0.  0.
      99925    2    3    3    0    0 -0.32327001019E+02 -0.22856898628E+02  0.11429252648E+04  0.11734725964E+04  0.26304429434E+03 0.  0.
         25    1    3    3    0    0  0.32327001019E+02  0.22856898628E+02  0.16194032280E+03  0.20842180562E+03  0.12509000000E+03 0.  0.
         25    1    4    4    0    0  0.20209499092E+02 -0.21990308289E+02  0.48970617743E+03  0.50631180692E+03  0.12509000000E+03 0.  0.
         25    1    4    4    0    0 -0.52536500111E+02 -0.86659033870E+00  0.65321908739E+03  0.66716078951E+03  0.12509000000E+03 0.  0.
<mgrwt>
<rscale>  2 0.45492630E+03</rscale>
<asrwt>0</asrwt>
<pdfrwt beam="1">  1       21 0.19755585E+00 0.45492630E+03</pdfrwt>
<pdfrwt beam="2">  1       21 0.56638843E-02 0.45492630E+03</pdfrwt>
<totfact> 0.26833879E+04</totfact>
</mgrwt>
</event>
<event>
 7    0  0.4737014E-002  0.4581316E+03  0.7546771E-02  0.1025324E+00
         21   -1    0    0  502  501  0.00000000000E+00  0.00000000000E+00  0.19434860658E+04  0.19434860658E+04  0.00000000000E+00 0.  1.
         21   -1    0    0  501  502 -0.00000000000E+00 -0.00000000000E+00 -0.26998470539E+02  0.26998470539E+02  0.00000000000E+00 0.  1.
      99926    2    1    2    0    0  0.00000000000E+00  0.00000000000E+00  0.19164875952E+04  0.19704845363E+04  0.45813164610E+03 0.  0.
      99925    2    3    3    0    0  0.22409535077E+02 -0.10950600934E+03  0.10669785884E+04  0.11045706756E+04  0.26294356048E+03 0.  0.
         25    1    4    4    0    0 -0.78667535542E+01 -0.39636168823E+02  0.37815020403E+03  0.40034734493E+03  0.12509000000E+03 0.  0.
         25    1    3    3    0    0 -0.22409535077E+02  0.10950600934E+03  0.84950900687E+03  0.86591386072E+03  0.12509000000E+03 0.  0.
         25    1    4    4    0    0  0.30276288631E+02 -0.69869840514E+02  0.68882838434E+03  0.70422333066E+03  0.12509000000E+03 0.  0.
<mgrwt>
<rscale>  2 0.45813165E+03</rscale>
<asrwt>0</asrwt>
<pdfrwt beam="1">  1       21 0.28580668E+00 0.45813165E+03</pdfrwt>
<pdfrwt beam="2">  1       21 0.39703646E-02 0.45813165E+03</pdfrwt>
<totfact> 0.13857883E+04</totfact>
</mgrwt>
</event>
<event>
 7    0  0.4737014E-002  0.4551640E+03  0.7546771E-02  0.1026193E+00
         21   -1    0    0  502  501  0.00000000000E+00  0.00000000000E+00  0.15198276151E+03  0.15198276151E+03  0.00000000000E+00 0. -1.
         21   -1    0    0  501  502 -0.00000000000E+00 -0.00000000000E+00 -0.34078587223E+03  0.34078587223E+03  0.00000000000E+00 0. -1.
      99926    2    1    2    0    0  0.14210854715E-13  0.14210854715E-13 -0.18880311072E+03  0.49276863374E+03  0.45516404930E+03 0.  0.
      99925    2    3    3    0    0 -0.78357087364E+02 -0.65541691503E+02 -0.17220078525E+03  0.33041503268E+03  0.26284108681E+03 0.  0.
         25    1    3    3    0    0  0.78357087364E+02  0.65541691503E+02 -0.16602325470E+02  0.16235360106E+03  0.12509000000E+03 0.  0.
         25    1    4    4    0    0  0.15265820196E+01 -0.20855464519E+02 -0.71856951990E+02  0.14576765932E+03  0.12509000000E+03 0.  0.
         25    1    4    4    0    0 -0.79883669384E+02 -0.44686226984E+02 -0.10034383326E+03  0.18464737336E+03  0.12509000000E+03 0.  0.
<mgrwt>
<rscale>  2 0.45516405E+03</rscale>
<asrwt>0</asrwt>
<pdfrwt beam="1">  1       21 0.22350407E-01 0.45516405E+03</pdfrwt>
<pdfrwt beam="2">  1       21 0.50115568E-01 0.45516405E+03</pdfrwt>
<totfact> 0.65696127E+04</totfact>
</mgrwt>
</event>
<event>
 7    0  0.4737014E-002  0.4546695E+03  0.7546771E-02  0.1026339E+00
         21   -1    0    0  502  501  0.00000000000E+00  0.00000000000E+00  0.97685195860E+03  0.97685195860E+03  0.00000000000E+00 0. -1.
         21   -1    0    0  501  502 -0.00000000000E+00 -0.00000000000E+00 -0.52905754829E+02  0.52905754829E+02  0.00000000000E+00 0. -1.
      99926    2    1    2    0    0  0.00000000000E+00 -0.71054273576E-14  0.92394620377E+03  0.10297577134E+04  0.45466950734E+03 0.  0.
      99925    2    3    3    0    0  0.68277071819E+02  0.62077801090E+02  0.43458459931E+03  0.51630109409E+03  0.26303542323E+03 0.  0.
         25    1    4    4    0    0  0.32370124703E+02  0.68467629083E+02  0.19711650597E+03  0.24543444386E+03  0.12509000000E+03 0.  0.
         25    1    3    3    0    0 -0.68277071819E+02 -0.62077801090E+02  0.48936160446E+03  0.51345661934E+03  0.12509000000E+03 0.  0.
         25    1    4    4    0    0  0.35906947116E+02 -0.63898279928E+01  0.23746809334E+03  0.27086665023E+03  0.12509000000E+03 0.  0.
<mgrwt>
<rscale>  2 0.45466951E+03</rscale>
<asrwt>0</asrwt>
<pdfrwt beam="1">  1       21 0.14365469E+00 0.45466951E+03</pdfrwt>
<pdfrwt beam="2">  1       21 0.77802586E-02 0.45466951E+03</pdfrwt>
<totfact> 0.38127307E+04</totfact>
</mgrwt>
</event>
<event>
 7    0  0.4737014E-002  0.4622012E+03  0.7546771E-02  0.1024145E+00
         21   -1    0    0  502  501  0.00000000000E+00  0.00000000000E+00  0.49370377898E+03  0.49370377898E+03  0.00000000000E+00 0. -1.
         21   -1    0    0  501  502 -0.00000000000E+00 -0.00000000000E+00 -0.10817718084E+03  0.10817718084E+03  0.00000000000E+00 0. -1.
      99926    2    1    2    0    0  0.00000000000E+00  0.14210854715E-13  0.38552659814E+03  0.60188095983E+03  0.46220118123E+03 0.  0.
      99925    2    3    3    0    0  0.15842495043E+02  0.10452512210E+03  0.31463394174E+03  0.42341594188E+03  0.26288791670E+03 0.  0.
         25    1    3    3    0    0 -0.15842495043E+02 -0.10452512210E+03  0.70892656404E+02  0.17846501795E+03  0.12509000000E+03 0.  0.
         25    1    4    4    0    0 -0.10579614321E+01  0.17465104771E+02  0.10854682242E+03  0.16654149611E+03  0.12509000000E+03 0.  0.
         25    1    4    4    0    0  0.16900456475E+02  0.87060017324E+02  0.20608711931E+03  0.25687444578E+03  0.12509000000E+03 0.  0.
<mgrwt>
<rscale>  2 0.46220118E+03</rscale>
<asrwt>0</asrwt>
<pdfrwt beam="1">  1       21 0.72603496E-01 0.46220118E+03</pdfrwt>
<pdfrwt beam="2">  1       21 0.15908409E-01 0.46220118E+03</pdfrwt>
<totfact> 0.55345749E+04</totfact>
</mgrwt>
</event>
<event>
 7    0  0.4737014E-002  0.4483883E+03  0.7546771E-02  0.1028204E+00
         21   -1    0    0  502  501  0.00000000000E+00  0.00000000000E+00  0.38075177114E+03  0.38075177114E+03  0.00000000000E+00 0. -1.
         21   -1    0    0  501  502 -0.00000000000E+00 -0.00000000000E+00 -0.13200995006E+03  0.13200995006E+03  0.00000000000E+00 0. -1.
      99926    2    1    2    0    0  0.00000000000E+00  0.00000000000E+00  0.24874182108E+03  0.51276172120E+03  0.44838832408E+03 0.  0.
      99925    2    3    3    0    0 -0.25989889983E+02  0.47221008667E+02  0.52143805194E+02  0.27358900956E+03  0.26310961916E+03 0.  0.
         25    1    3    3    0    0  0.25989889983E+02 -0.47221008667E+02  0.19659801589E+03  0.23917271164E+03  0.12509000000E+03 0.  0.
         25    1    4    4    0    0  0.22040666133E+02  0.35466834390E+02  0.83875114165E+01  0.13214214223E+03  0.12509000000E+03 0.  0.
         25    1    4    4    0    0 -0.48030556115E+02  0.11754174277E+02  0.43756293778E+02  0.14144686733E+03  0.12509000000E+03 0.  0.
<mgrwt>
<rscale>  2 0.44838832E+03</rscale>
<asrwt>0</asrwt>
<pdfrwt beam="1">  1       21 0.55992907E-01 0.44838832E+03</pdfrwt>
<pdfrwt beam="2">  1       21 0.19413228E-01 0.44838832E+03</pdfrwt>
<totfact> 0.67874603E+04</totfact>
</mgrwt>
</event>
<event>
 7    0  0.4737014E-002  0.4574830E+03  0.7546771E-02  0.1025514E+00
         21   -1    0    0  502  501  0.00000000000E+00  0.00000000000E+00  0.34393435711E+03  0.34393435711E+03  0.00000000000E+00 0.  1.
         21   -1    0    0  501  502 -0.00000000000E+00 -0.00000000000E+00 -0.15212981207E+03  0.15212981207E+03  0.00000000000E+00 0.  1.
      99926    2    1    2    0    0 -0.14210854715E-13 -0.71054273576E-14  0.19180454504E+03  0.49606416918E+03  0.45748297940E+03 0.  0.
      99925    2    3    3    0    0 -0.10264658546E+03  0.46980553402E+02  0.93127511794E+02  0.30079983835E+03  0.26280090448E+03 0.  0.
         25    1    3    3    0    0  0.10264658546E+03 -0.46980553402E+02  0.98677033248E+02  0.19526433083E+03  0.12509000000E+03 0.  0.
         25    1    4    4    0    0 -0.64082232231E+02  0.12560500477E+02  0.86026007305E+02  0.16526427531E+03  0.12509000000E+03 0.  0.
         25    1    4    4    0    0 -0.38564353225E+02  0.34420052924E+02  0.71015044894E+01  0.13553556304E+03  0.12509000000E+03 0.  0.
<mgrwt>
<rscale>  2 0.45748298E+03</rscale>
<asrwt>0</asrwt>
<pdfrwt beam="1">  1       21 0.50578582E-01 0.45748298E+03</pdfrwt>
<pdfrwt beam="2">  1       21 0.22372031E-01 0.45748298E+03</pdfrwt>
<totfact> 0.64271803E+04</totfact>
</mgrwt>
</event>
<event>
 7    0  0.4737014E-002  0.4524492E+03  0.7546771E-02  0.1026994E+00
         21   -1    0    0  502  501  0.00000000000E+00  0.00000000000E+00  0.58817123672E+02  0.58817123672E+02  0.00000000000E+00 0. -1.
         21   -1    0    0  501  502 -0.00000000000E+00 -0.00000000000E+00 -0.87011338435E+03  0.87011338435E+03  0.00000000000E+00 0. -1.
      99926    2    1    2    0    0  0.35527136788E-14 -0.35527136788E-14 -0.81129626068E+03  0.92893050802E+03  0.45244918626E+03 0.  0.
      99925    2    3    3    0    0 -0.19039124636E+02 -0.41952907962E+01 -0.28768762065E+03  0.39023429981E+03  0.26294210949E+03 0.  0.
         25    1    4    4    0    0 -0.22778363740E+02 -0.35694871307E+02 -0.17255239436E+03  0.21728970199E+03  0.12509000000E+03 0.  0.
         25    1    4    4    0    0  0.37392391033E+01  0.31499580511E+02 -0.11513522629E+03  0.17294459782E+03  0.12509000000E+03 0.  0.
         25    1    3    3    0    0  0.19039124636E+02  0.41952907962E+01 -0.52360864003E+03  0.53869620821E+03  0.12509000000E+03 0.  0.
<mgrwt>
<rscale>  2 0.45244919E+03</rscale>
<asrwt>0</asrwt>
<pdfrwt beam="1">  1       21 0.86495774E-02 0.45244919E+03</pdfrwt>
<pdfrwt beam="2">  1       21 0.12795784E+00 0.45244919E+03</pdfrwt>
<totfact> 0.42854630E+04</totfact>
</mgrwt>
</event>
<event>
 7    0  0.4737014E-002  0.4465360E+03  0.7546771E-02  0.1028760E+00
         21   -1    0    0  502  501  0.00000000000E+00  0.00000000000E+00  0.57128899028E+03  0.57128899028E+03  0.00000000000E+00 0. -1.
         21   -1    0    0  501  502 -0.00000000000E+00 -0.00000000000E+00 -0.87256378305E+02  0.87256378305E+02  0.00000000000E+00 0. -1.
      99926    2    1    2    0    0  0.00000000000E+00  0.00000000000E+00  0.48403261197E+03  0.65854536858E+03  0.44653603777E+03 0.  0.
      99925    2    3    3    0    0 -0.26690595151E+02 -0.19167003430E+02  0.45402834776E+03  0.52577667551E+03  0.26309619923E+03 0.  0.
         25    1    3    3    0    0  0.26690595151E+02  0.19167003430E+02  0.30004264218E+02  0.13276869308E+03  0.12509000000E+03 0.  0.
         25    1    4    4    0    0 -0.45870798168E+01 -0.44591808112E+02  0.26734935477E+03  0.29855092739E+03  0.12509000000E+03 0.  0.
         25    1    4    4    0    0 -0.22103515334E+02  0.25424804682E+02  0.18667899299E+03  0.22722574811E+03  0.12509000000E+03 0.  0.
<mgrwt>
<rscale>  2 0.44653604E+03</rscale>
<asrwt>0</asrwt>
<pdfrwt beam="1">  1       21 0.84013085E-01 0.44653604E+03</pdfrwt>
<pdfrwt beam="2">  1       21 0.12831821E-01 0.44653604E+03</pdfrwt>
<totfact> 0.59054962E+04</totfact>
</mgrwt>
</event>
<event>
 7    0  0.4737014E-002  0.4549510E+03  0.7546771E-02  0.1026256E+00
         21   -1    0    0  502  501  0.00000000000E+00  0.00000000000E+00  0.49306182214E+02  0.49306182214E+02  0.00000000000E+00 0. -1.
         21   -1    0    0  501  502 -0.00000000000E+00 -0.00000000000E+00 -0.10494649080E+04  0.10494649080E+04  0.00000000000E+00 0. -1.
      99926    2    1    2    0    0  0.00000000000E+00  0.00000000000E+00 -0.10001587257E+04  0.10987710902E+04  0.45495102145E+03 0.  0.
      99925    2    3    3    0    0 -0.72478251058E+02  0.71965555778E+02 -0.51187719151E+03  0.58447691087E+03  0.26298833064E+03 0.  0.
         25    1    3    3    0    0  0.72478251058E+02 -0.71965555778E+02 -0.48828153423E+03  0.51429417930E+03  0.12509000000E+03 0.  0.
         25    1    4    4    0    0 -0.13326842470E+02  0.28655601544E+02 -0.17239087516E+03  0.21532503377E+03  0.12509000000E+03 0.  0.
         25    1    4    4    0    0 -0.59151408588E+02  0.43309954234E+02 -0.33948631636E+03  0.36915187710E+03  0.12509000000E+03 0.  0.
<mgrwt>
<rscale>  2 0.45495102E+03</rscale>
<asrwt>0</asrwt>
<pdfrwt beam="1">  1       21 0.72509093E-02 0.45495102E+03</pdfrwt>
<pdfrwt beam="2">  1       21 0.15433307E+00 0.45495102E+03</pdfrwt>
<totfact> 0.35550468E+04</totfact>
</mgrwt>
</event>
<event>
 7    0  0.4737014E-002  0.4548059E+03  0.7546771E-02  0.1026298E+00
         21   -1    0    0  502  501  0.00000000000E+00  0.00000000000E+00  0.65701446032E+03  0.65701446032E+03  0.00000000000E+00 0.  1.
         21   -1    0    0  501  502 -0.00000000000E+00 -0.00000000000E+00 -0.78707708823E+02  0.78707708823E+02  0.00000000000E+00 0.  1.
      99926    2    1    2    0    0  0.00000000000E+00  0.00000000000E+00  0.57830675149E+03  0.73572216914E+03  0.45480590513E+03 0.  0.
      99925    2    3    3    0    0  0.58572875601E+02  0.68336188343E+02  0.47440722738E+03  0.54986406304E+03  0.26303546155E+03 0.  0.
         25    1    3    3    0    0 -0.58572875601E+02 -0.68336188343E+02  0.10389952411E+03  0.18585810610E+03  0.12509000000E+03 0.  0.
         25    1    4    4    0    0  0.73469031958E+01  0.56732896575E+02  0.28958341220E+03  0.32059110915E+03  0.12509000000E+03 0.  0.
         25    1    4    4    0    0  0.51225972405E+02  0.11603291768E+02  0.18482381518E+03  0.22927295389E+03  0.12509000000E+03 0.  0.
<mgrwt>
<rscale>  2 0.45480591E+03</rscale>
<asrwt>0</asrwt>
<pdfrwt beam="1">  1       21 0.96619771E-01 0.45480591E+03</pdfrwt>
<pdfrwt beam="2">  1       21 0.11574663E-01 0.45480591E+03</pdfrwt>
<totfact> 0.51083948E+04</totfact>
</mgrwt>
</event>
<event>
 7    0  0.4737014E-002  0.4549633E+03  0.7546771E-02  0.1026252E+00
         21   -1    0    0  502  501  0.00000000000E+00  0.00000000000E+00  0.97820185675E+02  0.97820185675E+02  0.00000000000E+00 0.  1.
         21   -1    0    0  501  502 -0.00000000000E+00 -0.00000000000E+00 -0.52901057048E+03  0.52901057048E+03  0.00000000000E+00 0.  1.
      99926    2    1    2    0    0  0.88817841970E-15  0.00000000000E+00 -0.43119038481E+03  0.62683075616E+03  0.45496334898E+03 0.  0.
      99925    2    3    3    0    0 -0.72709204045E+01  0.11255155255E+03 -0.28175507166E+03  0.40166606270E+03  0.26311401949E+03 0.  0.
         25    1    3    3    0    0  0.72709204045E+01 -0.11255155255E+03 -0.14943531315E+03  0.22516469346E+03  0.12509000000E+03 0.  0.
         25    1    4    4    0    0  0.97465733566E+01  0.23491652896E+02 -0.16167360237E+03  0.20599202715E+03  0.12509000000E+03 0.  0.
         25    1    4    4    0    0 -0.17017493761E+02  0.89059899651E+02 -0.12008146929E+03  0.19567403554E+03  0.12509000000E+03 0.  0.
<mgrwt>
<rscale>  2 0.45496335E+03</rscale>
<asrwt>0</asrwt>
<pdfrwt beam="1">  1       21 0.14385321E-01 0.45496335E+03</pdfrwt>
<pdfrwt beam="2">  1       21 0.77795673E-01 0.45496335E+03</pdfrwt>
<totfact> 0.57072937E+04</totfact>
</mgrwt>
</event>
<event>
 7    0  0.4737014E-002  0.4525529E+03  0.7546771E-02  0.1026963E+00
         21   -1    0    0  502  501  0.00000000000E+00  0.00000000000E+00  0.68171947411E+02  0.68171947411E+02  0.00000000000E+00 0.  1.
         21   -1    0    0  501  502 -0.00000000000E+00 -0.00000000000E+00 -0.75105732990E+03  0.75105732990E+03  0.00000000000E+00 0.  1.
      99926    2    1    2    0    0  0.00000000000E+00  0.00000000000E+00 -0.68288538249E+03  0.81922927732E+03  0.45255293965E+03 0.  0.
      99925    2    3    3    0    0  0.49577396209E+02  0.99120474962E+02 -0.43549591694E+03  0.52067971269E+03  0.26299787597E+03 0.  0.
         25    1    4    4    0    0  0.29177992608E+01  0.21952908781E+02 -0.24137768178E+03  0.27276571837E+03  0.12509000000E+03 0.  0.
         25    1    4    4    0    0  0.46659596948E+02  0.77167566181E+02 -0.19411823516E+03  0.24791399432E+03  0.12509000000E+03 0.  0.
         25    1    3    3    0    0 -0.49577396209E+02 -0.99120474962E+02 -0.24738946555E+03  0.29854956463E+03  0.12509000000E+03 0.  0.
<mgrwt>
<rscale>  2 0.45255294E+03</rscale>
<asrwt>0</asrwt>
<pdfrwt beam="1">  1       21 0.10025286E-01 0.45255294E+03</pdfrwt>
<pdfrwt beam="2">  1       21 0.11044961E+00 0.45255294E+03</pdfrwt>
<totfact> 0.47759202E+04</totfact>
</mgrwt>
</event>
<event>
 7    0  0.4737014E-002  0.4641990E+03  0.7546771E-02  0.1023570E+00
         21   -1    0    0  502  501  0.00000000000E+00  0.00000000000E+00  0.23182168221E+02  0.23182168221E+02  0.00000000000E+00 0. -1.
         21   -1    0    0  501  502 -0.00000000000E+00 -0.00000000000E+00 -0.23237763311E+04  0.23237763311E+04  0.00000000000E+00 0. -1.
      99926    2    1    2    0    0  0.00000000000E+00 -0.17763568394E-14 -0.23005941628E+04  0.23469584993E+04  0.46419898239E+03 0.  0.
      99925    2    3    3    0    0 -0.97190385532E+02 -0.14617096742E+02 -0.10750694787E+04  0.11111519246E+04  0.26310565348E+03 0.  0.
         25    1    4    4    0    0 -0.68254057154E+02 -0.15554271768E+02 -0.70545127963E+03  0.71986774321E+03  0.12509000000E+03 0.  0.
         25    1    4    4    0    0 -0.28936328378E+02  0.93717502633E+00 -0.36961819905E+03  0.39128418134E+03  0.12509000000E+03 0.  0.
         25    1    3    3    0    0  0.97190385532E+02  0.14617096742E+02 -0.12255246842E+04  0.12358065747E+04  0.12509000000E+03 0.  0.
<mgrwt>
<rscale>  2 0.46419898E+03</rscale>
<asrwt>0</asrwt>
<pdfrwt beam="1">  1       21 0.34091435E-02 0.46419898E+03</pdfrwt>
<pdfrwt beam="2">  1       21 0.34173171E+00 0.46419898E+03</pdfrwt>
<totfact> 0.82235441E+03</totfact>
</mgrwt>
</event>
<event>
 7    0  0.4737014E-002  0.4577476E+03  0.7546771E-02  0.1025437E+00
         21   -1    0    0  502  501  0.00000000000E+00  0.00000000000E+00  0.22229738925E+03  0.22229738925E+03  0.00000000000E+00 0.  1.
         21   -1    0    0  501  502 -0.00000000000E+00 -0.00000000000E+00 -0.23564471586E+03  0.23564471586E+03  0.00000000000E+00 0.  1.
      99926    2    1    2    0    0  0.00000000000E+00  0.00000000000E+00 -0.13347326611E+02  0.45794210511E+03  0.45774755107E+03 0.  0.
      99925    2    3    3    0    0 -0.23977556207E+02  0.98213768974E+02 -0.64472042458E+02  0.28917566210E+03  0.26314454521E+03 0.  0.
         25    1    4    4    0    0 -0.21740046325E+02  0.91689524530E+02 -0.34907431899E+02  0.16045446527E+03  0.12509000000E+03 0.  0.
         25    1    3    3    0    0  0.23977556207E+02 -0.98213768974E+02  0.51124715847E+02  0.16876644302E+03  0.12509000000E+03 0.  0.
         25    1    4    4    0    0 -0.22375098829E+01  0.65242444440E+01 -0.29564610559E+02  0.12872119683E+03  0.12509000000E+03 0.  0.
<mgrwt>
<rscale>  2 0.45774755E+03</rscale>
<asrwt>0</asrwt>
<pdfrwt beam="1">  1       21 0.32690793E-01 0.45774755E+03</pdfrwt>
<pdfrwt beam="2">  1       21 0.34653635E-01 0.45774755E+03</pdfrwt>
<totfact> 0.66853148E+04</totfact>
</mgrwt>
</event>
<event>
 7    0  0.4737014E-002  0.4200373E+03  0.7546771E-02  0.1037054E+00
         21   -1    0    0  502  501  0.00000000000E+00  0.00000000000E+00  0.91701282949E+03  0.91701282949E+03  0.00000000000E+00 0. -1.
         21   -1    0    0  501  502 -0.00000000000E+00 -0.00000000000E+00 -0.48099477937E+02  0.48099477937E+02  0.00000000000E+00 0. -1.
      99926    2    1    2    0    0 -0.71054273576E-14  0.11102230246E-14  0.86891335155E+03  0.96511230742E+03  0.42003732387E+03 0.  0.
      99925    2    3    3    0    0  0.62341861833E+02  0.41715828560E+00  0.46824709788E+03  0.54076853560E+03  0.26322724529E+03 0.  0.
         25    1    4    4    0    0 -0.96851797388E+00 -0.18210435406E+02  0.18344383940E+03  0.22278175037E+03  0.12509000000E+03 0.  0.
         25    1    4    4    0    0  0.63310379807E+02  0.18627593692E+02  0.28480325848E+03  0.31798678522E+03  0.12509000000E+03 0.  0.
         25    1    3    3    0    0 -0.62341861833E+02 -0.41715828560E+00  0.40066625367E+03  0.42434377183E+03  0.12509000000E+03 0.  0.
<mgrwt>
<rscale>  2 0.42003732E+03</rscale>
<asrwt>0</asrwt>
<pdfrwt beam="1">  1       21 0.13485482E+00 0.42003732E+03</pdfrwt>
<pdfrwt beam="2">  1       21 0.70734532E-02 0.42003732E+03</pdfrwt>
<totfact> 0.53804473E+04</totfact>
</mgrwt>
</event>
<event>
 7    0  0.4737014E-002  0.4534598E+03  0.7546771E-02  0.1026695E+00
         21   -1    0    0  502  501  0.00000000000E+00  0.00000000000E+00  0.60734410901E+02  0.60734410901E+02  0.00000000000E+00 0. -1.
         21   -1    0    0  501  502 -0.00000000000E+00 -0.00000000000E+00 -0.84641380718E+03  0.84641380718E+03  0.00000000000E+00 0. -1.
      99926    2    1    2    0    0  0.00000000000E+00  0.00000000000E+00 -0.78567939628E+03  0.90714821808E+03  0.45345978414E+03 0.  0.
      99925    2    3    3    0    0 -0.67424966494E+02 -0.72625293801E+02 -0.59804891824E+03  0.66082878361E+03  0.26308100129E+03 0.  0.
         25    1    4    4    0    0 -0.40830874997E+02 -0.78083049296E+02 -0.31616271275E+03  0.35124135858E+03  0.12509000000E+03 0.  0.
         25    1    4    4    0    0 -0.26594091496E+02  0.54577554950E+01 -0.28188620548E+03  0.30958742503E+03  0.12509000000E+03 0.  0.
         25    1    3    3    0    0  0.67424966494E+02  0.72625293801E+02 -0.18763047804E+03  0.24631943447E+03  0.12509000000E+03 0.  0.
<mgrwt>
<rscale>  2 0.45345978E+03</rscale>
<asrwt>0</asrwt>
<pdfrwt beam="1">  1       21 0.89315314E-02 0.45345978E+03</pdfrwt>
<pdfrwt beam="2">  1       21 0.12447261E+00 0.45345978E+03</pdfrwt>
<totfact> 0.43447620E+04</totfact>
</mgrwt>
</event>
<event>
 7    0  0.4737014E-002  0.4534582E+03  0.7546771E-02  0.1026696E+00
         21   -1    0    0  502  501  0.00000000000E+00  0.00000000000E+00  0.37892348404E+02  0.37892348404E+02  0.00000000000E+00 0. -1.
         21   -1    0    0  501  502 -0.00000000000E+00 -0.00000000000E+00 -0.13566348026E+04  0.13566348026E+04  0.00000000000E+00 0. -1.
      99926    2    1    2    0    0 -0.14210854715E-13  0.00000000000E+00 -0.13187424542E+04  0.13945271510E+04  0.45345817269E+03 0.  0.
      99925    2    3    3    0    0 -0.10562930561E+03 -0.22488405891E+01 -0.71842655352E+03  0.77228178445E+03  0.26290651248E+03 0.  0.
         25    1    4    4    0    0 -0.47769152515E+02 -0.22251324026E+02 -0.44784374464E+03  0.46796211499E+03  0.12509000000E+03 0.  0.
         25    1    4    4    0    0 -0.57860153098E+02  0.20002483437E+02 -0.27058280888E+03  0.30431966946E+03  0.12509000000E+03 0.  0.
         25    1    3    3    0    0  0.10562930561E+03  0.22488405891E+01 -0.60031590064E+03  0.62224536651E+03  0.12509000000E+03 0.  0.
<mgrwt>
<rscale>  2 0.45345817E+03</rscale>
<asrwt>0</asrwt>
<pdfrwt beam="1">  1       21 0.55724043E-02 0.45345817E+03</pdfrwt>
<pdfrwt beam="2">  1       21 0.19950511E+00 0.45345817E+03</pdfrwt>
<totfact> 0.26797867E+04</totfact>
</mgrwt>
</event>
<event>
 7    0  0.4737014E-002  0.4522777E+03  0.7546771E-02  0.1027045E+00
         21   -1    0    0  502  501  0.00000000000E+00  0.00000000000E+00  0.92724455377E+02  0.92724455377E+02  0.00000000000E+00 0.  1.
         21   -1    0    0  501  502 -0.00000000000E+00 -0.00000000000E+00 -0.55151331349E+03  0.55151331349E+03  0.00000000000E+00 0.  1.
      99926    2    1    2    0    0  0.35527136788E-14  0.00000000000E+00 -0.45878885811E+03  0.64423776887E+03  0.45227766527E+03 0.  0.
      99925    2    3    3    0    0 -0.18302517366E+02  0.77891031820E+02 -0.39803184145E+03  0.48379800399E+03  0.26311436083E+03 0.  0.
         25    1    3    3    0    0  0.18302517366E+02 -0.77891031820E+02 -0.60757016661E+02  0.16043976488E+03  0.12509000000E+03 0.  0.
         25    1    4    4    0    0 -0.34185216943E+02  0.52920682301E+02 -0.15528482629E+03  0.20911746232E+03  0.12509000000E+03 0.  0.
         25    1    4    4    0    0  0.15882699577E+02  0.24970349519E+02 -0.24274701516E+03  0.27468054167E+03  0.12509000000E+03 0.  0.
<mgrwt>
<rscale>  2 0.45227767E+03</rscale>
<asrwt>0</asrwt>
<pdfrwt beam="1">  1       21 0.13635949E-01 0.45227767E+03</pdfrwt>
<pdfrwt beam="2">  1       21 0.81104901E-01 0.45227767E+03</pdfrwt>
<totfact> 0.57254627E+04</totfact>
</mgrwt>
</event>
<event>
 7    0  0.4737014E-002  0.4593080E+03  0.7546771E-02  0.1024982E+00
         21   -1    0    0  502  501  0.00000000000E+00  0.00000000000E+00  0.92805588360E+02  0.92805588360E+02  0.00000000000E+00 0.  1.
         21   -1    0    0  501  502 -0.00000000000E+00 -0.00000000000E+00 -0.56829516764E+03  0.56829516764E+03  0.00000000000E+00 0.  1.
      99926    2    1    2    0    0  0.00000000000E+00  0.71054273576E-14 -0.47548957928E+03  0.66110075600E+03  0.45930803344E+03 0.  0.
      99925    2    3    3    0    0 -0.97656117695E+02  0.62923945330E+02 -0.31970188229E+03  0.42998724525E+03  0.26302775009E+03 0.  0.
         25    1    4    4    0    0 -0.33151709581E+02  0.47143929516E+02 -0.10680903635E+03  0.17429074641E+03  0.12509000000E+03 0.  0.
         25    1    4    4    0    0 -0.64504408114E+02  0.15780015814E+02 -0.21289284594E+03  0.25569649884E+03  0.12509000000E+03 0.  0.
         25    1    3    3    0    0  0.97656117695E+02 -0.62923945330E+02 -0.15578769700E+03  0.23111351076E+03  0.12509000000E+03 0.  0.
<mgrwt>
<rscale>  2 0.45930803E+03</rscale>
<asrwt>0</asrwt>
<pdfrwt beam="1">  1       21 0.13647881E-01 0.45930803E+03</pdfrwt>
<pdfrwt beam="2">  1       21 0.83572816E-01 0.45930803E+03</pdfrwt>
<totfact> 0.53234310E+04</totfact>
</mgrwt>
</event>
<event>
 7    0  0.4737014E-002  0.4106225E+03  0.7546771E-02  0.1040162E+00
         21   -1    0    0  502  501  0.00000000000E+00  0.00000000000E+00  0.65600207006E+02  0.65600207006E+02  0.00000000000E+00 0.  1.
         21   -1    0    0  501  502 -0.00000000000E+00 -0.00000000000E+00 -0.64256987522E+03  0.64256987522E+03  0.00000000000E+00 0.  1.
      99926    2    1    2    0    0  0.00000000000E+00  0.00000000000E+00 -0.57696966821E+03  0.70817008222E+03  0.41062253630E+03 0.  0.
      99925    2    3    3    0    0 -0.59476885181E+02  0.17319154321E+02 -0.35871349034E+03  0.44909341354E+03  0.26300584205E+03 0.  0.
         25    1    4    4    0    0  0.89149137857E+01  0.21513129136E+02 -0.15797273670E+03  0.20284275697E+03  0.12509000000E+03 0.  0.
         25    1    4    4    0    0 -0.68391798967E+02 -0.41939748143E+01 -0.20074075364E+03  0.24625065657E+03  0.12509000000E+03 0.  0.
         25    1    3    3    0    0  0.59476885181E+02 -0.17319154321E+02 -0.21825617787E+03  0.25907666868E+03  0.12509000000E+03 0.  0.
<mgrwt>
<rscale>  2 0.41062254E+03</rscale>
<asrwt>0</asrwt>
<pdfrwt beam="1">  1       21 0.96470894E-02 0.41062254E+03</pdfrwt>
<pdfrwt beam="2">  1       21 0.94495568E-01 0.41062254E+03</pdfrwt>
<totfact> 0.75598266E+04</totfact>
</mgrwt>
</event>
<event>
 7    0  0.4737014E-002  0.4624973E+03  0.7546771E-02  0.1024059E+00
         21   -1    0    0  502  501  0.00000000000E+00  0.00000000000E+00  0.13334248346E+04  0.13334248346E+04  0.00000000000E+00 0. -1.
         21   -1    0    0  501  502 -0.00000000000E+00 -0.00000000000E+00 -0.40104194334E+02  0.40104194334E+02  0.00000000000E+00 0. -1.
      99926    2    1    2    0    0 -0.35527136788E-14  0.00000000000E+00  0.12933206402E+04  0.13735290289E+04  0.46249725921E+03 0.  0.
      99925    2    3    3    0    0 -0.21067471069E+02 -0.23611623665E+01  0.11592140239E+04  0.11889172577E+04  0.26324452318E+03 0.  0.
         25    1    4    4    0    0  0.11013019964E+02  0.34291271232E+01  0.41629177524E+03  0.43483260659E+03  0.12509000000E+03 0.  0.
         25    1    3    3    0    0  0.21067471069E+02  0.23611623665E+01  0.13410661630E+03  0.18461177118E+03  0.12509000000E+03 0.  0.
         25    1    4    4    0    0 -0.32080491033E+02 -0.57902894897E+01  0.74292224869E+03  0.75408465112E+03  0.12509000000E+03 0.  0.
<mgrwt>
<rscale>  2 0.46249726E+03</rscale>
<asrwt>0</asrwt>
<pdfrwt beam="1">  1       21 0.19609186E+00 0.46249726E+03</pdfrwt>
<pdfrwt beam="2">  1       21 0.58976765E-02 0.46249726E+03</pdfrwt>
<totfact> 0.25525923E+04</totfact>
</mgrwt>
</event>
<event>
 7    0  0.4737014E-002  0.4435095E+03  0.7546771E-02  0.1029675E+00
         21   -1    0    0  502  501  0.00000000000E+00  0.00000000000E+00  0.66891960580E+02  0.66891960580E+02  0.00000000000E+00 0. -1.
         21   -1    0    0  501  502 -0.00000000000E+00 -0.00000000000E+00 -0.73514310234E+03  0.73514310234E+03  0.00000000000E+00 0. -1.
      99926    2    1    2    0    0  0.00000000000E+00  0.14210854715E-13 -0.66825114176E+03  0.80203506292E+03  0.44350947418E+03 0.  0.
      99925    2    3    3    0    0 -0.38028060032E+02 -0.90587841863E+02 -0.47449499641E+03  0.55135350715E+03  0.26304542912E+03 0.  0.
         25    1    4    4    0    0 -0.74843425290E+01 -0.11224394477E+02 -0.17149169537E+03  0.21269441012E+03  0.12509000000E+03 0.  0.
         25    1    3    3    0    0  0.38028060032E+02  0.90587841863E+02 -0.19375614534E+03  0.25068155577E+03  0.12509000000E+03 0.  0.
         25    1    4    4    0    0 -0.30543717503E+02 -0.79363447385E+02 -0.30300330104E+03  0.33865909703E+03  0.12509000000E+03 0.  0.
<mgrwt>
<rscale>  2 0.44350947E+03</rscale>
<asrwt>0</asrwt>
<pdfrwt beam="1">  1       21 0.98370529E-02 0.44350947E+03</pdfrwt>
<pdfrwt beam="2">  1       21 0.10810928E+00 0.44350947E+03</pdfrwt>
<totfact> 0.52218490E+04</totfact>
</mgrwt>
</event>
<event>
 7    0  0.4737014E-002  0.4498182E+03  0.7546771E-02  0.1027776E+00
         21   -1    0    0  502  501  0.00000000000E+00  0.00000000000E+00  0.73874151384E+03  0.73874151384E+03  0.00000000000E+00 0.  1.
         21   -1    0    0  501  502 -0.00000000000E+00 -0.00000000000E+00 -0.68473360544E+02  0.68473360544E+02  0.00000000000E+00 0.  1.
      99926    2    1    2    0    0 -0.14210854715E-13  0.00000000000E+00  0.67026815330E+03  0.80721487439E+03  0.44981824786E+03 0.  0.
      99925    2    3    3    0    0 -0.76723760981E+02 -0.75084810836E+02  0.39899203413E+03  0.48978377123E+03  0.26300044667E+03 0.  0.
         25    1    3    3    0    0  0.76723760981E+02  0.75084810836E+02  0.27127611917E+03  0.31743110316E+03  0.12509000000E+03 0.  0.
         25    1    4    4    0    0 -0.37499060821E+02 -0.46770206450E+02  0.27077690374E+03  0.30423883952E+03  0.12509000000E+03 0.  0.
         25    1    4    4    0    0 -0.39224700160E+02 -0.28314604386E+02  0.12821513039E+03  0.18554493172E+03  0.12509000000E+03 0.  0.
<mgrwt>
<rscale>  2 0.44981825E+03</rscale>
<asrwt>0</asrwt>
<pdfrwt beam="1">  1       21 0.10863845E+00 0.44981825E+03</pdfrwt>
<pdfrwt beam="2">  1       21 0.10069612E-01 0.44981825E+03</pdfrwt>
<totfact> 0.49395997E+04</totfact>
</mgrwt>
</event>
<event>
 7    0  0.4737014E-002  0.4542543E+03  0.7546771E-02  0.1026461E+00
         21   -1    0    0  502  501  0.00000000000E+00  0.00000000000E+00  0.22921456582E+04  0.22921456582E+04  0.00000000000E+00 0. -1.
         21   -1    0    0  501  502 -0.00000000000E+00 -0.00000000000E+00 -0.22505869566E+02  0.22505869566E+02  0.00000000000E+00 0. -1.
      99926    2    1    2    0    0  0.00000000000E+00 -0.17763568394E-14  0.22696397886E+04  0.23146515278E+04  0.45425425132E+03 0.  0.
      99925    2    3    3    0    0 -0.69513306851E+02  0.15860053744E+02  0.98497315411E+03  0.10219413858E+04  0.26288484285E+03 0.  0.
         25    1    4    4    0    0 -0.23914409584E+02 -0.27374867392E+02  0.53881443726E+03  0.55433725136E+03  0.12509000000E+03 0.  0.
         25    1    4    4    0    0 -0.45598897267E+02  0.43234921135E+02  0.44615871685E+03  0.46760413445E+03  0.12509000000E+03 0.  0.
         25    1    3    3    0    0  0.69513306851E+02 -0.15860053744E+02  0.12846666345E+04  0.12927101420E+04  0.12509000000E+03 0.  0.
<mgrwt>
<rscale>  2 0.45425425E+03</rscale>
<asrwt>0</asrwt>
<pdfrwt beam="1">  1       21 0.33708008E+00 0.45425425E+03</pdfrwt>
<pdfrwt beam="2">  1       21 0.33096883E-02 0.45425425E+03</pdfrwt>
<totfact> 0.92728915E+03</totfact>
</mgrwt>
</event>
<event>
 7    0  0.4737014E-002  0.4356406E+03  0.7546771E-02  0.1032093E+00
         21   -1    0    0  502  501  0.00000000000E+00  0.00000000000E+00  0.38234992071E+02  0.38234992071E+02  0.00000000000E+00 0.  1.
         21   -1    0    0  501  502 -0.00000000000E+00 -0.00000000000E+00 -0.12408970908E+04  0.12408970908E+04  0.00000000000E+00 0.  1.
      99926    2    1    2    0    0  0.00000000000E+00  0.00000000000E+00 -0.12026620987E+04  0.12791320829E+04  0.43564063368E+03 0.  0.
      99925    2    3    3    0    0  0.35059289389E+02 -0.76649598403E+02 -0.64877349380E+03  0.70507249583E+03  0.26289896045E+03 0.  0.
         25    1    4    4    0    0  0.55826040656E+02 -0.46393905297E+02 -0.30978109594E+03  0.34187830695E+03  0.12509000000E+03 0.  0.
         25    1    4    4    0    0 -0.20766751267E+02 -0.30255693105E+02 -0.33899239786E+03  0.36319418887E+03  0.12509000000E+03 0.  0.
         25    1    3    3    0    0 -0.35059289389E+02  0.76649598403E+02 -0.55388860493E+03  0.57405958704E+03  0.12509000000E+03 0.  0.
<mgrwt>
<rscale>  2 0.43564063E+03</rscale>
<asrwt>0</asrwt>
<pdfrwt beam="1">  1       21 0.56227940E-02 0.43564063E+03</pdfrwt>
<pdfrwt beam="2">  1       21 0.18248483E+00 0.43564063E+03</pdfrwt>
<totfact> 0.34659571E+04</totfact>
</mgrwt>
</event>
<event>
 7    0  0.4737014E-002  0.4461556E+03  0.7546771E-02  0.1028875E+00
         21   -1    0    0  502  501  0.00000000000E+00  0.00000000000E+00  0.29020276352E+03  0.29020276352E+03  0.00000000000E+00 0. -1.
         21   -1    0    0  501  502 -0.00000000000E+00 -0.00000000000E+00 -0.17147908079E+03  0.17147908079E+03  0.00000000000E+00 0. -1.
      99926    2    1    2    0    0 -0.14210854715E-13  0.00000000000E+00  0.11872368272E+03  0.46168184431E+03  0.44615559228E+03 0.  0.
      99925    2    3    3    0    0  0.66285872656E+02  0.54901990179E+01 -0.82098317784E+01  0.27146201253E+03  0.26305942999E+03 0.  0.
         25    1    4    4    0    0  0.68376547840E+02  0.15179047855E+02 -0.22685092299E+02  0.14514777746E+03  0.12509000000E+03 0.  0.
         25    1    4    4    0    0 -0.20906751838E+01 -0.96888488367E+01  0.14475260520E+02  0.12631423507E+03  0.12509000000E+03 0.  0.
         25    1    3    3    0    0 -0.66285872656E+02 -0.54901990179E+01  0.12693351450E+03  0.19021983178E+03  0.12509000000E+03 0.  0.
<mgrwt>
<rscale>  2 0.44615559E+03</rscale>
<asrwt>0</asrwt>
<pdfrwt beam="1">  1       21 0.42676877E-01 0.44615559E+03</pdfrwt>
<pdfrwt beam="2">  1       21 0.25217512E-01 0.44615559E+03</pdfrwt>
<totfact> 0.73051722E+04</totfact>
</mgrwt>
</event>
<event>
 7    0  0.4737014E-002  0.4332500E+03  0.7546771E-02  0.1032838E+00
         21   -1    0    0  502  501  0.00000000000E+00  0.00000000000E+00  0.45945462783E+03  0.45945462783E+03  0.00000000000E+00 0.  1.
         21   -1    0    0  501  502 -0.00000000000E+00 -0.00000000000E+00 -0.10213499805E+03  0.10213499805E+03  0.00000000000E+00 0.  1.
      99926    2    1    2    0    0  0.00000000000E+00  0.00000000000E+00  0.35731962978E+03  0.56158962589E+03  0.43325003183E+03 0.  0.
      99925    2    3    3    0    0 -0.46108360979E+02 -0.77035271480E+02  0.20807806850E+03  0.34715789848E+03  0.26298614010E+03 0.  0.
         25    1    4    4    0    0 -0.38680046645E+02 -0.41258912073E+02  0.59764698140E+02  0.14972565270E+03  0.12509000000E+03 0.  0.
         25    1    3    3    0    0  0.46108360979E+02  0.77035271480E+02  0.14924156128E+03  0.21443172740E+03  0.12509000000E+03 0.  0.
         25    1    4    4    0    0 -0.74283143345E+01 -0.35776359407E+02  0.14831337036E+03  0.19743224578E+03  0.12509000000E+03 0.  0.
<mgrwt>
<rscale>  2 0.43325003E+03</rscale>
<asrwt>0</asrwt>
<pdfrwt beam="1">  1       21 0.67566856E-01 0.43325003E+03</pdfrwt>
<pdfrwt beam="2">  1       21 0.15019853E-01 0.43325003E+03</pdfrwt>
<totfact> 0.72854131E+04</totfact>
</mgrwt>
</event>
<event>
 7    0  0.4737014E-002  0.4624444E+03  0.7546771E-02  0.1024075E+00
         21   -1    0    0  502  501  0.00000000000E+00  0.00000000000E+00  0.29659785861E+02  0.29659785861E+02  0.00000000000E+00 0.  1.
         21   -1    0    0  501  502 -0.00000000000E+00 -0.00000000000E+00 -0.18025656874E+04  0.18025656874E+04  0.00000000000E+00 0.  1.
      99926    2    1    2    0    0  0.00000000000E+00 -0.71054273576E-14 -0.17729059015E+04  0.18322254732E+04  0.46244442818E+03 0.  0.
      99925    2    3    3    0    0  0.52001357474E+02  0.45462133571E+02 -0.14972480790E+04  0.15217328163E+04  0.26296008732E+03 0.  0.
         25    1    4    4    0    0  0.57889577115E+02 -0.22367249969E+01 -0.76875950275E+03  0.78102169448E+03  0.12509000000E+03 0.  0.
         25    1    3    3    0    0 -0.52001357474E+02 -0.45462133571E+02 -0.27565782253E+03  0.31049265690E+03  0.12509000000E+03 0.  0.
         25    1    4    4    0    0 -0.58882196410E+01  0.47698858568E+02 -0.72848857624E+03  0.74071112186E+03  0.12509000000E+03 0.  0.
<mgrwt>
<rscale>  2 0.46244443E+03</rscale>
<asrwt>0</asrwt>
<pdfrwt beam="1">  1       21 0.43617342E-02 0.46244443E+03</pdfrwt>
<pdfrwt beam="2">  1       21 0.26508313E+00 0.46244443E+03</pdfrwt>
<totfact> 0.15720089E+04</totfact>
</mgrwt>
</event>
<event>
 7    0  0.4737014E-002  0.4427589E+03  0.7546771E-02  0.1029904E+00
         21   -1    0    0  502  501  0.00000000000E+00  0.00000000000E+00  0.15710908503E+03  0.15710908503E+03  0.00000000000E+00 0.  1.
         21   -1    0    0  501  502 -0.00000000000E+00 -0.00000000000E+00 -0.31194167672E+03  0.31194167672E+03  0.00000000000E+00 0.  1.
      99926    2    1    2    0    0 -0.35527136788E-14  0.00000000000E+00 -0.15483259169E+03  0.46905076176E+03  0.44275894757E+03 0.  0.
      99925    2    3    3    0    0  0.21211263893E+02 -0.65202311205E+02 -0.18952669230E+02  0.27204284179E+03  0.26257731242E+03 0.  0.
         25    1    4    4    0    0 -0.29154831719E+02 -0.29100818952E+02 -0.57792821219E+01  0.13182477035E+03  0.12509000000E+03 0.  0.
         25    1    3    3    0    0 -0.21211263893E+02  0.65202311205E+02 -0.13587992246E+03  0.19700791997E+03  0.12509000000E+03 0.  0.
         25    1    4    4    0    0  0.50366095611E+02 -0.36101492253E+02 -0.13173387108E+02  0.14021807144E+03  0.12509000000E+03 0.  0.
<mgrwt>
<rscale>  2 0.44275895E+03</rscale>
<asrwt>0</asrwt>
<pdfrwt beam="1">  1       21 0.23104277E-01 0.44275895E+03</pdfrwt>
<pdfrwt beam="2">  1       21 0.45873775E-01 0.44275895E+03</pdfrwt>
<totfact> 0.74483255E+04</totfact>
</mgrwt>
</event>
<event>
 7    0  0.4737014E-002  0.4521553E+03  0.7546771E-02  0.1027081E+00
         21   -1    0    0  502  501  0.00000000000E+00  0.00000000000E+00  0.35818834589E+03  0.35818834589E+03  0.00000000000E+00 0. -1.
         21   -1    0    0  501  502 -0.00000000000E+00 -0.00000000000E+00 -0.14269337460E+03  0.14269337460E+03  0.00000000000E+00 0. -1.
      99926    2    1    2    0    0  0.00000000000E+00 -0.35527136788E-14  0.21549497129E+03  0.50088172050E+03  0.45215529996E+03 0.  0.
      99925    2    3    3    0    0  0.96390066077E+02 -0.17741951312E+02  0.19237279948E+03  0.34029540538E+03  0.26303582886E+03 0.  0.
         25    1    3    3    0    0 -0.96390066077E+02  0.17741951312E+02  0.23122171805E+02  0.16058631512E+03  0.12509000000E+03 0.  0.
         25    1    4    4    0    0  0.61952411608E+02  0.29408373201E+02  0.98295921348E+02  0.17324130562E+03  0.12509000000E+03 0.  0.
         25    1    4    4    0    0  0.34437654469E+02 -0.47150324513E+02  0.94076878135E+02  0.16705409976E+03  0.12509000000E+03 0.  0.
<mgrwt>
<rscale>  2 0.45215530E+03</rscale>
<asrwt>0</asrwt>
<pdfrwt beam="1">  1       21 0.52674757E-01 0.45215530E+03</pdfrwt>
<pdfrwt beam="2">  1       21 0.20984320E-01 0.45215530E+03</pdfrwt>
<totfact> 0.66702248E+04</totfact>
</mgrwt>
</event>
<event>
 7    0  0.4737014E-002  0.4559676E+03  0.7546771E-02  0.1025957E+00
         21   -1    0    0  502  501  0.00000000000E+00  0.00000000000E+00  0.27040471236E+03  0.27040471236E+03  0.00000000000E+00 0.  1.
         21   -1    0    0  501  502 -0.00000000000E+00 -0.00000000000E+00 -0.19221786760E+03  0.19221786760E+03  0.00000000000E+00 0.  1.
      99926    2    1    2    0    0  0.00000000000E+00  0.00000000000E+00  0.78186844759E+02  0.46262257995E+03  0.45596761814E+03 0.  0.
      99925    2    3    3    0    0  0.64232013359E+02 -0.64417246536E+02  0.11914946026E+03  0.30262015135E+03  0.26288215788E+03 0.  0.
         25    1    4    4    0    0  0.68244774572E+02 -0.26347330871E+02  0.82578507848E+02  0.16678803662E+03  0.12509000000E+03 0.  0.
         25    1    3    3    0    0 -0.64232013359E+02  0.64417246536E+02 -0.40962615500E+02  0.16000242861E+03  0.12509000000E+03 0.  0.
         25    1    4    4    0    0 -0.40127612132E+01 -0.38069915665E+02  0.36570952411E+02  0.13583211473E+03  0.12509000000E+03 0.  0.
<mgrwt>
<rscale>  2 0.45596762E+03</rscale>
<asrwt>0</asrwt>
<pdfrwt beam="1">  1       21 0.39765399E-01 0.45596762E+03</pdfrwt>
<pdfrwt beam="2">  1       21 0.28267333E-01 0.45596762E+03</pdfrwt>
<totfact> 0.67466493E+04</totfact>
</mgrwt>
</event>
<event>
 7    0  0.4737014E-002  0.4268960E+03  0.7546771E-02  0.1034845E+00
         21   -1    0    0  502  501  0.00000000000E+00  0.00000000000E+00  0.81132480372E+03  0.81132480372E+03  0.00000000000E+00 0.  1.
         21   -1    0    0  501  502 -0.00000000000E+00 -0.00000000000E+00 -0.56155120843E+02  0.56155120843E+02  0.00000000000E+00 0.  1.
      99926    2    1    2    0    0  0.00000000000E+00 -0.71054273576E-14  0.75516968288E+03  0.86747992456E+03  0.42689597045E+03 0.  0.
      99925    2    3    3    0    0 -0.28412842112E+02  0.35712168199E+02  0.34552971660E+03  0.43674211728E+03  0.26319240756E+03 0.  0.
         25    1    4    4    0    0  0.49491198662E+01  0.34813465903E+02  0.22516741757E+03  0.25996989293E+03  0.12509000000E+03 0.  0.
         25    1    3    3    0    0  0.28412842112E+02 -0.35712168199E+02  0.40963996627E+03  0.43073780728E+03  0.12509000000E+03 0.  0.
         25    1    4    4    0    0 -0.33361961978E+02  0.89870229635E+00  0.12036229904E+03  0.17677222435E+03  0.12509000000E+03 0.  0.
<mgrwt>
<rscale>  2 0.42689597E+03</rscale>
<asrwt>0</asrwt>
<pdfrwt beam="1">  1       21 0.11931246E+00 0.42689597E+03</pdfrwt>
<pdfrwt beam="2">  1       21 0.82581065E-02 0.42689597E+03</pdfrwt>
<totfact> 0.56017794E+04</totfact>
</mgrwt>
</event>
<event>
 7    0  0.4737014E-002  0.4534262E+03  0.7546771E-02  0.1026705E+00
         21   -1    0    0  502  501  0.00000000000E+00  0.00000000000E+00  0.18456668912E+02  0.18456668912E+02  0.00000000000E+00 0.  1.
         21   -1    0    0  501  502 -0.00000000000E+00 -0.00000000000E+00 -0.27848380760E+04  0.27848380760E+04  0.00000000000E+00 0.  1.
      99926    2    1    2    0    0  0.00000000000E+00  0.00000000000E+00 -0.27663814071E+04  0.28032947449E+04  0.45342622042E+03 0.  0.
      99925    2    3    3    0    0  0.52157703970E+02 -0.24252452275E+02 -0.23348245527E+04  0.23503075109E+04  0.26311802730E+03 0.  0.
         25    1    3    3    0    0 -0.52157703970E+02  0.24252452275E+02 -0.43155685438E+03  0.45298723403E+03  0.12509000000E+03 0.  0.
         25    1    4    4    0    0  0.42146273760E+02  0.25187266484E+02 -0.11926727792E+04  0.12002193854E+04  0.12509000000E+03 0.  0.
         25    1    4    4    0    0  0.10011430210E+02 -0.49439718759E+02 -0.11421517735E+04  0.11500881255E+04  0.12509000000E+03 0.  0.
<mgrwt>
<rscale>  2 0.45342622E+03</rscale>
<asrwt>0</asrwt>
<pdfrwt beam="1">  1       21 0.27142141E-02 0.45342622E+03</pdfrwt>
<pdfrwt beam="2">  1       21 0.40953530E+00 0.45342622E+03</pdfrwt>
<totfact> 0.45554485E+03</totfact>
</mgrwt>
</event>
<event>
 7    0  0.4737014E-002  0.4555836E+03  0.7546771E-02  0.1026070E+00
         21   -1    0    0  502  501  0.00000000000E+00  0.00000000000E+00  0.28730231084E+03  0.28730231084E+03  0.00000000000E+00 0. -1.
         21   -1    0    0  501  502 -0.00000000000E+00 -0.00000000000E+00 -0.18060803755E+03  0.18060803755E+03  0.00000000000E+00 0. -1.
      99926    2    1    2    0    0 -0.71054273576E-14  0.00000000000E+00  0.10669427329E+03  0.46791034840E+03  0.45558361053E+03 0.  0.
      99925    2    3    3    0    0 -0.49764570249E+02 -0.89502585396E+02  0.16336114533E+02  0.28270956492E+03  0.26300304982E+03 0.  0.
         25    1    4    4    0    0 -0.15150191757E+02 -0.37358261907E+02  0.46885904129E+02  0.13953839668E+03  0.12509000000E+03 0.  0.
         25    1    4    4    0    0 -0.34614378493E+02 -0.52144323490E+02 -0.30549789597E+02  0.14317116824E+03  0.12509000000E+03 0.  0.
         25    1    3    3    0    0  0.49764570249E+02  0.89502585396E+02  0.90358158761E+02  0.18520078347E+03  0.12509000000E+03 0.  0.
<mgrwt>
<rscale>  2 0.45558361E+03</rscale>
<asrwt>0</asrwt>
<pdfrwt beam="1">  1       21 0.42250340E-01 0.45558361E+03</pdfrwt>
<pdfrwt beam="2">  1       21 0.26560005E-01 0.45558361E+03</pdfrwt>
<totfact> 0.67279641E+04</totfact>
</mgrwt>
</event>
<event>
 7    0  0.4737014E-002  0.4501721E+03  0.7546771E-02  0.1027671E+00
         21   -1    0    0  502  501  0.00000000000E+00  0.00000000000E+00  0.37290482786E+02  0.37290482786E+02  0.00000000000E+00 0. -1.
         21   -1    0    0  501  502 -0.00000000000E+00 -0.00000000000E+00 -0.13586238564E+04  0.13586238564E+04  0.00000000000E+00 0. -1.
      99926    2    1    2    0    0  0.00000000000E+00  0.00000000000E+00 -0.13213333736E+04  0.13959143392E+04  0.45017214276E+03 0.  0.
      99925    2    3    3    0    0  0.10323488074E+03 -0.19522987153E+02 -0.75001384231E+03  0.80169880373E+03  0.26298597037E+03 0.  0.
         25    1    4    4    0    0  0.17551064075E+02 -0.33361887619E+02 -0.36474166822E+03  0.38743392731E+03  0.12509000000E+03 0.  0.
         25    1    4    4    0    0  0.85683816669E+02  0.13838900465E+02 -0.38527217409E+03  0.41426487642E+03  0.12509000000E+03 0.  0.
         25    1    3    3    0    0 -0.10323488074E+03  0.19522987153E+02 -0.57131953128E+03  0.59421553543E+03  0.12509000000E+03 0.  0.
<mgrwt>
<rscale>  2 0.45017214E+03</rscale>
<asrwt>0</asrwt>
<pdfrwt beam="1">  1       21 0.54838948E-02 0.45017214E+03</pdfrwt>
<pdfrwt beam="2">  1       21 0.19979762E+00 0.45017214E+03</pdfrwt>
<totfact> 0.27456879E+04</totfact>
</mgrwt>
</event>
<event>
 7    0  0.4737014E-002  0.4560776E+03  0.7546771E-02  0.1025925E+00
         21   -1    0    0  502  501  0.00000000000E+00  0.00000000000E+00  0.12256192370E+04  0.12256192370E+04  0.00000000000E+00 0.  1.
         21   -1    0    0  501  502 -0.00000000000E+00 -0.00000000000E+00 -0.42428916749E+02  0.42428916749E+02  0.00000000000E+00 0.  1.
      99926    2    1    2    0    0  0.00000000000E+00  0.00000000000E+00  0.11831903202E+04  0.12680481537E+04  0.45607760993E+03 0.  0.
      99925    2    3    3    0    0  0.10799307276E+03  0.32464072281E+02  0.69233290980E+03  0.74910217848E+03  0.26289312668E+03 0.  0.
         25    1    4    4    0    0  0.50694241484E+02  0.54013539306E+02  0.39070774917E+03  0.41687818594E+03  0.12509000000E+03 0.  0.
         25    1    4    4    0    0  0.57298831278E+02 -0.21549467026E+02  0.30162516063E+03  0.33222399254E+03  0.12509000000E+03 0.  0.
         25    1    3    3    0    0 -0.10799307276E+03 -0.32464072281E+02  0.49085741040E+03  0.51894597522E+03  0.12509000000E+03 0.  0.
<mgrwt>
<rscale>  2 0.45607761E+03</rscale>
<asrwt>0</asrwt>
<pdfrwt beam="1">  1       21 0.18023810E+00 0.45607761E+03</pdfrwt>
<pdfrwt beam="2">  1       21 0.62395474E-02 0.45607761E+03</pdfrwt>
<totfact> 0.29806183E+04</totfact>
</mgrwt>
</event>
<event>
 7    0  0.4737014E-002  0.4630128E+03  0.7546771E-02  0.1023911E+00
         21   -1    0    0  502  501  0.00000000000E+00  0.00000000000E+00  0.23807637628E+03  0.23807637628E+03  0.00000000000E+00 0. -1.
         21   -1    0    0  501  502 -0.00000000000E+00 -0.00000000000E+00 -0.22511769453E+03  0.22511769453E+03  0.00000000000E+00 0. -1.
      99926    2    1    2    0    0 -0.35527136788E-14 -0.14210854715E-13  0.12958681749E+02  0.46319407080E+03  0.46301276418E+03 0.  0.
      99925    2    3    3    0    0  0.22330244171E+02 -0.11376492002E+03  0.41050848699E+02  0.29034218399E+03  0.26300630181E+03 0.  0.
         25    1    3    3    0    0 -0.22330244171E+02  0.11376492002E+03 -0.28092166951E+02  0.17285188682E+03  0.12509000000E+03 0.  0.
         25    1    4    4    0    0  0.28170807060E+01 -0.31383550755E+02  0.51584216061E+02  0.13892912815E+03  0.12509000000E+03 0.  0.
         25    1    4    4    0    0  0.19513163465E+02 -0.82381369265E+02 -0.10533367362E+02  0.15141305584E+03  0.12509000000E+03 0.  0.
<mgrwt>
<rscale>  2 0.46301276E+03</rscale>
<asrwt>0</asrwt>
<pdfrwt beam="1">  1       21 0.35011232E-01 0.46301276E+03</pdfrwt>
<pdfrwt beam="2">  1       21 0.33105543E-01 0.46301276E+03</pdfrwt>
<totfact> 0.63773794E+04</totfact>
</mgrwt>
</event>
<event>
 7    0  0.4737014E-002  0.4517000E+03  0.7546771E-02  0.1027216E+00
         21   -1    0    0  502  501  0.00000000000E+00  0.00000000000E+00  0.28533496261E+02  0.28533496261E+02  0.00000000000E+00 0. -1.
         21   -1    0    0  501  502 -0.00000000000E+00 -0.00000000000E+00 -0.17876612762E+04  0.17876612762E+04  0.00000000000E+00 0. -1.
      99926    2    1    2    0    0  0.00000000000E+00 -0.14210854715E-13 -0.17591277799E+04  0.18161947725E+04  0.45170001701E+03 0.  0.
      99925    2    3    3    0    0  0.36757129866E+02 -0.99243214220E+02 -0.99044635835E+03  0.10302437955E+04  0.26309311520E+03 0.  0.
         25    1    4    4    0    0  0.18790653399E+02 -0.87134140302E+02 -0.61601401186E+03  0.63487496247E+03  0.12509000000E+03 0.  0.
         25    1    4    4    0    0  0.17966476467E+02 -0.12109073918E+02 -0.37443234649E+03  0.39536883304E+03  0.12509000000E+03 0.  0.
         25    1    3    3    0    0 -0.36757129866E+02  0.99243214220E+02 -0.76868142159E+03  0.78595097695E+03  0.12509000000E+03 0.  0.
<mgrwt>
<rscale>  2 0.45170002E+03</rscale>
<asrwt>0</asrwt>
<pdfrwt beam="1">  1       21 0.41961026E-02 0.45170002E+03</pdfrwt>
<pdfrwt beam="2">  1       21 0.26289135E+00 0.45170002E+03</pdfrwt>
<totfact> 0.17391581E+04</totfact>
</mgrwt>
</event>
<event>
 7    0  0.4737014E-002  0.4356230E+03  0.7546771E-02  0.1032098E+00
         21   -1    0    0  502  501  0.00000000000E+00  0.00000000000E+00  0.83959442880E+02  0.83959442880E+02  0.00000000000E+00 0. -1.
         21   -1    0    0  501  502 -0.00000000000E+00 -0.00000000000E+00 -0.56505662583E+03  0.56505662583E+03  0.00000000000E+00 0. -1.
      99926    2    1    2    0    0  0.00000000000E+00  0.88817841970E-15 -0.48109718295E+03  0.64901606871E+03  0.43562295394E+03 0.  0.
      99925    2    3    3    0    0  0.43603394787E+02  0.65365988768E+01 -0.43182541742E+03  0.50752685308E+03  0.26299492828E+03 0.  0.
         25    1    4    4    0    0 -0.17424159145E+02 -0.60656630999E+01 -0.22019136052E+03  0.25391364071E+03  0.12509000000E+03 0.  0.
         25    1    3    3    0    0 -0.43603394787E+02 -0.65365988768E+01 -0.49271765522E+02  0.14148921563E+03  0.12509000000E+03 0.  0.
         25    1    4    4    0    0  0.61027553931E+02  0.12602261977E+02 -0.21163405691E+03  0.25361321237E+03  0.12509000000E+03 0.  0.
<mgrwt>
<rscale>  2 0.43562295E+03</rscale>
<asrwt>0</asrwt>
<pdfrwt beam="1">  1       21 0.12346977E-01 0.43562295E+03</pdfrwt>
<pdfrwt beam="2">  1       21 0.83096562E-01 0.43562295E+03</pdfrwt>
<totfact> 0.65157578E+04</totfact>
</mgrwt>
</event>
<event>
 6    0  0.4737014E-002  0.4459475E+03  0.7546771E-02  0.1028937E+00
         21   -1    0    0  502  501  0.00000000000E+00  0.00000000000E+00  0.31546018361E+03  0.31546018361E+03  0.00000000000E+00 0.  1.
         21   -1    0    0  501  502 -0.00000000000E+00 -0.00000000000E+00 -0.15760244670E+03  0.15760244670E+03  0.00000000000E+00 0.  1.
      99926    2    1    2    0    0  0.00000000000E+00  0.00000000000E+00  0.15785773691E+03  0.47306263032E+03  0.44594751608E+03 0.  0.
         25    1    3    3    0    0  0.63577456141E+02 -0.39664000203E+01  0.12140286971E+03  0.18559092147E+03  0.12509000000E+03 0.  0.
         25    1    3    3    0    0 -0.67390858045E+02 -0.33605043949E+02 -0.15556561466E+02  0.14683440139E+03  0.12509000000E+03 0.  0.
         25    1    3    3    0    0  0.38134019043E+01  0.37571443969E+02  0.52011428663E+02  0.14063730745E+03  0.12509000000E+03 0.  0.
<mgrwt>
<rscale>  2 0.44594752E+03</rscale>
<asrwt>0</asrwt>
<pdfrwt beam="1">  1       21 0.46391204E-01 0.44594752E+03</pdfrwt>
<pdfrwt beam="2">  1       21 0.23176830E-01 0.44594752E+03</pdfrwt>
<totfact> 0.72262748E+04</totfact>
</mgrwt>
</event>
<event>
 7    0  0.4737014E-002  0.4562827E+03  0.7546771E-02  0.1025865E+00
         21   -1    0    0  502  501  0.00000000000E+00  0.00000000000E+00  0.11866229170E+03  0.11866229170E+03  0.00000000000E+00 0.  1.
         21   -1    0    0  501  502 -0.00000000000E+00 -0.00000000000E+00 -0.43862685553E+03  0.43862685553E+03  0.00000000000E+00 0.  1.
      99926    2    1    2    0    0 -0.71054273576E-14  0.00000000000E+00 -0.31996456383E+03  0.55728914722E+03  0.45628266624E+03 0.  0.
      99925    2    3    3    0    0  0.62529775450E+02 -0.58888754967E+02 -0.29398729957E+03  0.40334050437E+03  0.26244460725E+03 0.  0.
         25    1    3    3    0    0 -0.62529775450E+02  0.58888754967E+02 -0.25977264256E+02  0.15394864286E+03  0.12509000000E+03 0.  0.
         25    1    4    4    0    0  0.60293011051E+02 -0.31681195556E+02 -0.19513125141E+03  0.24158364744E+03  0.12509000000E+03 0.  0.
         25    1    4    4    0    0  0.22367643991E+01 -0.27207559411E+02 -0.98856048160E+02  0.16175685692E+03  0.12509000000E+03 0.  0.
<mgrwt>
<rscale>  2 0.45628267E+03</rscale>
<asrwt>0</asrwt>
<pdfrwt beam="1">  1       21 0.17450337E-01 0.45628267E+03</pdfrwt>
<pdfrwt beam="2">  1       21 0.64503949E-01 0.45628267E+03</pdfrwt>
<totfact> 0.60768457E+04</totfact>
</mgrwt>
</event>
<event>
 7    0  0.4737014E-002  0.4597848E+03  0.7546771E-02  0.1024844E+00
         21   -1    0    0  502  501  0.00000000000E+00  0.00000000000E+00  0.10311901546E+03  0.10311901546E+03  0.00000000000E+00 0.  1.
         21   -1    0    0  501  502 -0.00000000000E+00 -0.00000000000E+00 -0.51251964839E+03  0.51251964839E+03  0.00000000000E+00 0.  1.
      99926    2    1    2    0    0  0.00000000000E+00  0.00000000000E+00 -0.40940063294E+03  0.61563866385E+03  0.45978482596E+03 0.  0.
      99925    2    3    3    0    0 -0.74916908367E+02  0.19604387013E+02 -0.37508288105E+03  0.46456884111E+03  0.26294517551E+03 0.  0.
         25    1    4    4    0    0 -0.56620170411E+02  0.45873258673E+02 -0.20757356134E+03  0.25307013065E+03  0.12509000000E+03 0.  0.
         25    1    4    4    0    0 -0.18296737955E+02 -0.26268871660E+02 -0.16750931971E+03  0.21149871046E+03  0.12509000000E+03 0.  0.
         25    1    3    3    0    0  0.74916908367E+02 -0.19604387013E+02 -0.34317751887E+02  0.15106982274E+03  0.12509000000E+03 0.  0.
<mgrwt>
<rscale>  2 0.45978483E+03</rscale>
<asrwt>0</asrwt>
<pdfrwt beam="1">  1       21 0.15164561E-01 0.45978483E+03</pdfrwt>
<pdfrwt beam="2">  1       21 0.75370535E-01 0.45978483E+03</pdfrwt>
<totfact> 0.55594960E+04</totfact>
</mgrwt>
</event>
<event>
 7    0  0.4737014E-002  0.4484822E+03  0.7546771E-02  0.1028176E+00
         21   -1    0    0  502  501  0.00000000000E+00  0.00000000000E+00  0.28664118920E+02  0.28664118920E+02  0.00000000000E+00 0. -1.
         21   -1    0    0  501  502 -0.00000000000E+00 -0.00000000000E+00 -0.17542514000E+04  0.17542514000E+04  0.00000000000E+00 0. -1.
      99926    2    1    2    0    0  0.00000000000E+00  0.00000000000E+00 -0.17255872811E+04  0.17829155189E+04  0.44848219918E+03 0.  0.
      99925    2    3    3    0    0 -0.73890160012E+02  0.61929502678E+02 -0.12763915066E+04  0.13067649430E+04  0.26299110071E+03 0.  0.
         25    1    4    4    0    0 -0.44223465925E+02 -0.95101090336E+01 -0.61240076956E+03  0.62668043513E+03  0.12509000000E+03 0.  0.
         25    1    4    4    0    0 -0.29666694088E+02  0.71439611712E+02 -0.66399073704E+03  0.68008450786E+03  0.12509000000E+03 0.  0.
         25    1    3    3    0    0  0.73890160012E+02 -0.61929502678E+02 -0.44919577448E+03  0.47615057593E+03  0.12509000000E+03 0.  0.
<mgrwt>
<rscale>  2 0.44848220E+03</rscale>
<asrwt>0</asrwt>
<pdfrwt beam="1">  1       21 0.42153123E-02 0.44848220E+03</pdfrwt>
<pdfrwt beam="2">  1       21 0.25797810E+00 0.44848220E+03</pdfrwt>
<totfact> 0.18509012E+04</totfact>
</mgrwt>
</event>
<event>
 7    0  0.4737014E-002  0.4554075E+03  0.7546771E-02  0.1026122E+00
         21   -1    0    0  502  501  0.00000000000E+00  0.00000000000E+00  0.52299517275E+02  0.52299517275E+02  0.00000000000E+00 0.  1.
         21   -1    0    0  501  502 -0.00000000000E+00 -0.00000000000E+00 -0.99138556703E+03  0.99138556703E+03  0.00000000000E+00 0.  1.
      99926    2    1    2    0    0  0.00000000000E+00  0.00000000000E+00 -0.93908604976E+03  0.10436850843E+04  0.45540745093E+03 0.  0.
      99925    2    3    3    0    0  0.26909120848E+02 -0.86703791144E+02 -0.43316777574E+03  0.51468370788E+03  0.26272295109E+03 0.  0.
         25    1    3    3    0    0 -0.26909120848E+02  0.86703791144E+02 -0.50591827401E+03  0.52900137643E+03  0.12509000000E+03 0.  0.
         25    1    4    4    0    0 -0.24857537562E+02 -0.54450524609E+02 -0.20847672992E+03  0.25038532669E+03  0.12509000000E+03 0.  0.
         25    1    4    4    0    0  0.51766658410E+02 -0.32253266535E+02 -0.22469104583E+03  0.26429838119E+03  0.12509000000E+03 0.  0.
<mgrwt>
<rscale>  2 0.45540745E+03</rscale>
<asrwt>0</asrwt>
<pdfrwt beam="1">  1       21 0.76911056E-02 0.45540745E+03</pdfrwt>
<pdfrwt beam="2">  1       21 0.14579199E+00 0.45540745E+03</pdfrwt>
<totfact> 0.37390897E+04</totfact>
</mgrwt>
</event>
<event>
 7    0  0.4737014E-002  0.4574710E+03  0.7546771E-02  0.1025517E+00
         21   -1    0    0  502  501  0.00000000000E+00  0.00000000000E+00  0.54584780229E+03  0.54584780229E+03  0.00000000000E+00 0. -1.
         21   -1    0    0  501  502 -0.00000000000E+00 -0.00000000000E+00 -0.95850750569E+02  0.95850750569E+02  0.00000000000E+00 0. -1.
      99926    2    1    2    0    0  0.00000000000E+00 -0.14210854715E-13  0.44999705172E+03  0.64169855286E+03  0.45747096759E+03 0.  0.
      99925    2    3    3    0    0 -0.86406199895E+02 -0.75930987839E+02  0.26246473494E+03  0.38862262704E+03  0.26250383399E+03 0.  0.
         25    1    4    4    0    0 -0.49019580943E+02 -0.12207533232E+02  0.85729928370E+02  0.15984077046E+03  0.12509000000E+03 0.  0.
         25    1    3    3    0    0  0.86406199895E+02  0.75930987839E+02  0.18753231678E+03  0.25307592582E+03  0.12509000000E+03 0.  0.
         25    1    4    4    0    0 -0.37386618952E+02 -0.63723454607E+02  0.17673480657E+03  0.22878185658E+03  0.12509000000E+03 0.  0.
<mgrwt>
<rscale>  2 0.45747097E+03</rscale>
<asrwt>0</asrwt>
<pdfrwt beam="1">  1       21 0.80271734E-01 0.45747097E+03</pdfrwt>
<pdfrwt beam="2">  1       21 0.14095699E-01 0.45747097E+03</pdfrwt>
<totfact> 0.55100002E+04</totfact>
</mgrwt>
</event>
<event>
 7    0  0.4737014E-002  0.4484478E+03  0.7546771E-02  0.1028186E+00
         21   -1    0    0  502  501  0.00000000000E+00  0.00000000000E+00  0.62206106286E+03  0.62206106286E+03  0.00000000000E+00 0. -1.
         21   -1    0    0  501  502 -0.00000000000E+00 -0.00000000000E+00 -0.80822239907E+02  0.80822239907E+02  0.00000000000E+00 0. -1.
      99926    2    1    2    0    0  0.00000000000E+00  0.00000000000E+00  0.54123882296E+03  0.70288330277E+03  0.44844784963E+03 0.  0.
      99925    2    3    3    0    0 -0.32029235721E+02 -0.84848861043E+02  0.25341031829E+03  0.37620615731E+03  0.26284802116E+03 0.  0.
         25    1    4    4    0    0  0.20294354108E+02 -0.59683038351E+02  0.13191495407E+03  0.19241358861E+03  0.12509000000E+03 0.  0.
         25    1    4    4    0    0 -0.52323589830E+02 -0.25165822692E+02  0.12149536421E+03  0.18379256870E+03  0.12509000000E+03 0.  0.
         25    1    3    3    0    0  0.32029235721E+02  0.84848861043E+02  0.28782850467E+03  0.32667714545E+03  0.12509000000E+03 0.  0.
<mgrwt>
<rscale>  2 0.44844785E+03</rscale>
<asrwt>0</asrwt>
<pdfrwt beam="1">  1       21 0.91479566E-01 0.44844785E+03</pdfrwt>
<pdfrwt beam="2">  1       21 0.11885624E-01 0.44844785E+03</pdfrwt>
<totfact> 0.55556192E+04</totfact>
</mgrwt>
</event>
<event>
 7    0  0.4737014E-002  0.4410436E+03  0.7546771E-02  0.1030427E+00
         21   -1    0    0  502  501  0.00000000000E+00  0.00000000000E+00  0.39437412986E+03  0.39437412986E+03  0.00000000000E+00 0.  1.
         21   -1    0    0  501  502 -0.00000000000E+00 -0.00000000000E+00 -0.12330893816E+03  0.12330893816E+03  0.00000000000E+00 0.  1.
      99926    2    1    2    0    0  0.00000000000E+00  0.00000000000E+00  0.27106519171E+03  0.51768306802E+03  0.44104355880E+03 0.  0.
      99925    2    3    3    0    0  0.59343848663E+02  0.46008340321E+02  0.95729103059E+02  0.28958503682E+03  0.26278693390E+03 0.  0.
         25    1    4    4    0    0  0.43392365101E+01  0.53629240620E+02  0.41279927325E+02  0.14229007317E+03  0.12509000000E+03 0.  0.
         25    1    3    3    0    0 -0.59343848663E+02 -0.46008340321E+02  0.17533608865E+03  0.22809803120E+03  0.12509000000E+03 0.  0.
         25    1    4    4    0    0  0.55004612153E+02 -0.76209002988E+01  0.54449175733E+02  0.14729496365E+03  0.12509000000E+03 0.  0.
<mgrwt>
<rscale>  2 0.44104356E+03</rscale>
<asrwt>0</asrwt>
<pdfrwt beam="1">  1       21 0.57996195E-01 0.44104356E+03</pdfrwt>
<pdfrwt beam="2">  1       21 0.18133667E-01 0.44104356E+03</pdfrwt>
<totfact> 0.71649710E+04</totfact>
</mgrwt>
</event>
<event>
 7    0  0.4737014E-002  0.4241245E+03  0.7546771E-02  0.1035732E+00
         21   -1    0    0  502  501  0.00000000000E+00  0.00000000000E+00  0.39571811392E+03  0.39571811392E+03  0.00000000000E+00 0.  1.
         21   -1    0    0  501  502 -0.00000000000E+00 -0.00000000000E+00 -0.11364251975E+03  0.11364251975E+03  0.00000000000E+00 0.  1.
      99926    2    1    2    0    0 -0.71054273576E-14  0.00000000000E+00  0.28207559417E+03  0.50936063367E+03  0.42412452689E+03 0.  0.
      99925    2    3    3    0    0 -0.33673630941E+02  0.59669873912E+02  0.23088770541E+03  0.35782807833E+03  0.26464578942E+03 0.  0.
         25    1    4    4    0    0 -0.53947053632E+02  0.26566766146E+02  0.89760768763E+02  0.16528938674E+03  0.12509000000E+03 0.  0.
         25    1    4    4    0    0  0.20273422691E+02  0.33103107766E+02  0.14112693665E+03  0.19253869159E+03  0.12509000000E+03 0.  0.
         25    1    3    3    0    0  0.33673630941E+02 -0.59669873912E+02  0.51187888761E+02  0.15153255534E+03  0.12509000000E+03 0.  0.
<mgrwt>
<rscale>  2 0.42412453E+03</rscale>
<asrwt>0</asrwt>
<pdfrwt beam="1">  1       21 0.58193840E-01 0.42412453E+03</pdfrwt>
<pdfrwt beam="2">  1       21 0.16712135E-01 0.42412453E+03</pdfrwt>
<totfact> 0.83185500E+04</totfact>
</mgrwt>
</event>
<event>
 7    0  0.4737014E-002  0.4511572E+03  0.7546771E-02  0.1027378E+00
         21   -1    0    0  502  501  0.00000000000E+00  0.00000000000E+00  0.30309339325E+02  0.30309339325E+02  0.00000000000E+00 0.  1.
         21   -1    0    0  501  502 -0.00000000000E+00 -0.00000000000E+00 -0.16788786057E+04  0.16788786057E+04  0.00000000000E+00 0.  1.
      99926    2    1    2    0    0  0.00000000000E+00  0.00000000000E+00 -0.16485692664E+04  0.17091879450E+04  0.45115718478E+03 0.  0.
      99925    2    3    3    0    0  0.51634080968E+01 -0.91644990648E+02 -0.81508231271E+03  0.86138285237E+03  0.26305090150E+03 0.  0.
         25    1    4    4    0    0  0.22629953354E+01 -0.81583480239E+02 -0.51180938707E+03  0.53315789611E+03  0.12509000000E+03 0.  0.
         25    1    4    4    0    0  0.29004127613E+01 -0.10061510409E+02 -0.30327292564E+03  0.32822495626E+03  0.12509000000E+03 0.  0.
         25    1    3    3    0    0 -0.51634080968E+01  0.91644990648E+02 -0.83348695367E+03  0.84780509265E+03  0.12509000000E+03 0.  0.
<mgrwt>
<rscale>  2 0.45115718E+03</rscale>
<asrwt>0</asrwt>
<pdfrwt beam="1">  1       21 0.44572557E-02 0.45115718E+03</pdfrwt>
<pdfrwt beam="2">  1       21 0.24689392E+00 0.45115718E+03</pdfrwt>
<totfact> 0.19651117E+04</totfact>
</mgrwt>
</event>
<event>
 7    0  0.4737014E-002  0.4563218E+03  0.7546771E-02  0.1025853E+00
         21   -1    0    0  502  501  0.00000000000E+00  0.00000000000E+00  0.34140051809E+03  0.34140051809E+03  0.00000000000E+00 0.  1.
         21   -1    0    0  501  502 -0.00000000000E+00 -0.00000000000E+00 -0.15248188800E+03  0.15248188800E+03  0.00000000000E+00 0.  1.
      99926    2    1    2    0    0 -0.17763568394E-14  0.00000000000E+00  0.18891863009E+03  0.49388240610E+03  0.45632179682E+03 0.  0.
      99925    2    3    3    0    0  0.13587274372E+02 -0.11191744517E+03  0.13948883076E+03  0.31838043540E+03  0.26305672236E+03 0.  0.
         25    1    4    4    0    0 -0.30195467231E+01 -0.20213850520E+02  0.87250094435E+02  0.15387593865E+03  0.12509000000E+03 0.  0.
         25    1    4    4    0    0  0.16606821096E+02 -0.91703594648E+02  0.52238736325E+02  0.16450449675E+03  0.12509000000E+03 0.  0.
         25    1    3    3    0    0 -0.13587274372E+02  0.11191744517E+03  0.49429799327E+02  0.17550197070E+03  0.12509000000E+03 0.  0.
<mgrwt>
<rscale>  2 0.45632180E+03</rscale>
<asrwt>0</asrwt>
<pdfrwt beam="1">  1       21 0.50205959E-01 0.45632180E+03</pdfrwt>
<pdfrwt beam="2">  1       21 0.22423807E-01 0.45632180E+03</pdfrwt>
<totfact> 0.65017677E+04</totfact>
</mgrwt>
</event>
<event>
 7    0  0.4737014E-002  0.4605839E+03  0.7546771E-02  0.1024612E+00
         21   -1    0    0  502  501  0.00000000000E+00  0.00000000000E+00  0.11320230353E+04  0.11320230353E+04  0.00000000000E+00 0.  1.
         21   -1    0    0  501  502 -0.00000000000E+00 -0.00000000000E+00 -0.46849208717E+02  0.46849208717E+02  0.00000000000E+00 0.  1.
      99926    2    1    2    0    0  0.00000000000E+00  0.00000000000E+00  0.10851738266E+04  0.11788722440E+04  0.46058390529E+03 0.  0.
      99925    2    3    3    0    0 -0.18428902270E+02  0.94961268081E+02  0.85336327687E+03  0.89826414375E+03  0.26323434951E+03 0.  0.
         25    1    4    4    0    0  0.21208099125E+02  0.75892019657E+02  0.45293876758E+03  0.47645610227E+03  0.12509000000E+03 0.  0.
         25    1    3    3    0    0  0.18428902270E+02 -0.94961268081E+02  0.23181054968E+03  0.28060810024E+03  0.12509000000E+03 0.  0.
         25    1    4    4    0    0 -0.39637001395E+02  0.19069248425E+02  0.40042450930E+03  0.42180804149E+03  0.12509000000E+03 0.  0.
<mgrwt>
<rscale>  2 0.46058391E+03</rscale>
<asrwt>0</asrwt>
<pdfrwt beam="1">  1       21 0.16647396E+00 0.46058391E+03</pdfrwt>
<pdfrwt beam="2">  1       21 0.68895902E-02 0.46058391E+03</pdfrwt>
<totfact> 0.31442461E+04</totfact>
</mgrwt>
</event>
<event>
 6    0  0.5128864E-002  0.4431442E+03  0.7546771E-02  0.1029786E+00
         21   -1    0    0  502  501  0.00000000000E+00  0.00000000000E+00  0.12258019153E+03  0.12258019153E+03  0.00000000000E+00 0.  1.
         21   -1    0    0  501  502 -0.00000000000E+00 -0.00000000000E+00 -0.40050684886E+03  0.40050684886E+03  0.00000000000E+00 0.  1.
      99926    2    1    2    0    0 -0.14210854715E-13  0.71054273576E-14 -0.27792665733E+03  0.52308704039E+03  0.44314424849E+03 0.  0.
         25    1    3    3    0    0 -0.75011918327E+02  0.58160382088E+02 -0.85907108014E+02  0.17898870703E+03  0.12509000000E+03 0.  0.
         25    1    3    3    0    0  0.23369778323E+01  0.14524888946E+01 -0.11395392594E+03  0.16923526975E+03  0.12509000000E+03 0.  0.
         25    1    3    3    0    0  0.72674940495E+02 -0.59612870983E+02 -0.78065623380E+02  0.17486306361E+03  0.12509000000E+03 0.  0.
<mgrwt>
<rscale>  2 0.44314425E+03</rscale>
<asrwt>0</asrwt>
<pdfrwt beam="1">  1       21 0.18026499E-01 0.44314425E+03</pdfrwt>
<pdfrwt beam="2">  1       21 0.58898066E-01 0.44314425E+03</pdfrwt>
<totfact> 0.70025818E+04</totfact>
</mgrwt>
</event>
<event>
 7    0  0.4737014E-002  0.4540616E+03  0.7546771E-02  0.1026518E+00
         21   -1    0    0  502  501  0.00000000000E+00  0.00000000000E+00  0.75374375402E+02  0.75374375402E+02  0.00000000000E+00 0. -1.
         21   -1    0    0  501  502 -0.00000000000E+00 -0.00000000000E+00 -0.68382637739E+03  0.68382637739E+03  0.00000000000E+00 0. -1.
      99926    2    1    2    0    0  0.00000000000E+00  0.00000000000E+00 -0.60845200199E+03  0.75920075279E+03  0.45406160850E+03 0.  0.
      99925    2    3    3    0    0 -0.66150450705E+02  0.89572324172E+02 -0.35813931217E+03  0.45803130851E+03  0.26292552038E+03 0.  0.
         25    1    4    4    0    0 -0.50919407863E+02  0.23059163739E+02 -0.22251968724E+03  0.26131787241E+03  0.12509000000E+03 0.  0.
         25    1    3    3    0    0  0.66150450705E+02 -0.89572324172E+02 -0.25031268982E+03  0.30116944428E+03  0.12509000000E+03 0.  0.
         25    1    4    4    0    0 -0.15231042842E+02  0.66513160433E+02 -0.13561962492E+03  0.19671343610E+03  0.12509000000E+03 0.  0.
<mgrwt>
<rscale>  2 0.45406161E+03</rscale>
<asrwt>0</asrwt>
<pdfrwt beam="1">  1       21 0.11084468E-01 0.45406161E+03</pdfrwt>
<pdfrwt beam="2">  1       21 0.10056270E+00 0.45406161E+03</pdfrwt>
<totfact> 0.50169638E+04</totfact>
</mgrwt>
</event>
<event>
 7    0  0.4737014E-002  0.4595037E+03  0.7546771E-02  0.1024925E+00
         21   -1    0    0  502  501  0.00000000000E+00  0.00000000000E+00  0.49793035821E+03  0.49793035821E+03  0.00000000000E+00 0.  1.
         21   -1    0    0  501  502 -0.00000000000E+00 -0.00000000000E+00 -0.10601063872E+03  0.10601063872E+03  0.00000000000E+00 0.  1.
      99926    2    1    2    0    0  0.00000000000E+00  0.00000000000E+00  0.39191971949E+03  0.60394099692E+03  0.45950371189E+03 0.  0.
      99925    2    3    3    0    0  0.19725702337E+02 -0.11448047256E+03  0.22356615385E+03  0.36418004702E+03  0.26296463560E+03 0.  0.
         25    1    3    3    0    0 -0.19725702337E+02  0.11448047256E+03  0.16835356564E+03  0.23976094990E+03  0.12509000000E+03 0.  0.
         25    1    4    4    0    0  0.34723747166E+02 -0.30110777196E+02  0.80380742385E+02  0.15563087537E+03  0.12509000000E+03 0.  0.
         25    1    4    4    0    0 -0.14998044829E+02 -0.84369695364E+02  0.14318541146E+03  0.20854917166E+03  0.12509000000E+03 0.  0.
<mgrwt>
<rscale>  2 0.45950371E+03</rscale>
<asrwt>0</asrwt>
<pdfrwt beam="1">  1       21 0.73225052E-01 0.45950371E+03</pdfrwt>
<pdfrwt beam="2">  1       21 0.15589800E-01 0.45950371E+03</pdfrwt>
<totfact> 0.56402495E+04</totfact>
</mgrwt>
</event>
<event>
 7    0  0.4737014E-002  0.4559943E+03  0.7546771E-02  0.1025949E+00
         21   -1    0    0  502  501  0.00000000000E+00  0.00000000000E+00  0.11459462835E+03  0.11459462835E+03  0.00000000000E+00 0.  1.
         21   -1    0    0  501  502 -0.00000000000E+00 -0.00000000000E+00 -0.45362247589E+03  0.45362247589E+03  0.00000000000E+00 0.  1.
      99926    2    1    2    0    0  0.00000000000E+00  0.00000000000E+00 -0.33902784755E+03  0.56821710424E+03  0.45599429397E+03 0.  0.
      99925    2    3    3    0    0 -0.57242985495E+02  0.79057569566E+02 -0.28681512224E+03  0.40118257045E+03  0.26297848162E+03 0.  0.
         25    1    4    4    0    0 -0.29814752543E+02  0.20276353167E+02 -0.86607481532E+02  0.15635988592E+03  0.12509000000E+03 0.  0.
         25    1    4    4    0    0 -0.27428232952E+02  0.58781216398E+02 -0.20020764071E+03  0.24482268453E+03  0.12509000000E+03 0.  0.
         25    1    3    3    0    0  0.57242985495E+02 -0.79057569566E+02 -0.52212725309E+02  0.16703453379E+03  0.12509000000E+03 0.  0.
<mgrwt>
<rscale>  2 0.45599429E+03</rscale>
<asrwt>0</asrwt>
<pdfrwt beam="1">  1       21 0.16852152E-01 0.45599429E+03</pdfrwt>
<pdfrwt beam="2">  1       21 0.66709186E-01 0.45599429E+03</pdfrwt>
<totfact> 0.60203735E+04</totfact>
</mgrwt>
</event>
<event>
 7    0  0.4737014E-002  0.4618315E+03  0.7546771E-02  0.1024251E+00
         21   -1    0    0  502  501  0.00000000000E+00  0.00000000000E+00  0.28874617626E+03  0.28874617626E+03  0.00000000000E+00 0.  1.
         21   -1    0    0  501  502 -0.00000000000E+00 -0.00000000000E+00 -0.18466769382E+03  0.18466769382E+03  0.00000000000E+00 0.  1.
      99926    2    1    2    0    0 -0.35527136788E-14  0.00000000000E+00  0.10407848244E+03  0.47341387007E+03  0.46183152975E+03 0.  0.
      99925    2    3    3    0    0  0.22507883796E+02  0.39226022543E+02  0.17843576133E+03  0.32102686702E+03  0.26300882637E+03 0.  0.
         25    1    4    4    0    0  0.29372426846E+02 -0.40156393991E+01  0.12114758026E+03  0.17664401807E+03  0.12509000000E+03 0.  0.
         25    1    3    3    0    0 -0.22507883796E+02 -0.39226022543E+02 -0.74357278886E+02  0.15238700306E+03  0.12509000000E+03 0.  0.
         25    1    4    4    0    0 -0.68645430491E+01  0.43241661942E+02  0.57288181074E+02  0.14438284895E+03  0.12509000000E+03 0.  0.
<mgrwt>
<rscale>  2 0.46183153E+03</rscale>
<asrwt>0</asrwt>
<pdfrwt beam="1">  1       21 0.42462673E-01 0.46183153E+03</pdfrwt>
<pdfrwt beam="2">  1       21 0.27157014E-01 0.46183153E+03</pdfrwt>
<totfact> 0.63662305E+04</totfact>
</mgrwt>
</event>
<event>
 7    0  0.4737014E-002  0.4556155E+03  0.7546771E-02  0.1026061E+00
         21   -1    0    0  502  501  0.00000000000E+00  0.00000000000E+00  0.47794496190E+02  0.47794496190E+02  0.00000000000E+00 0.  1.
         21   -1    0    0  501  502 -0.00000000000E+00 -0.00000000000E+00 -0.10858229519E+04  0.10858229519E+04  0.00000000000E+00 0.  1.
      99926    2    1    2    0    0  0.00000000000E+00  0.00000000000E+00 -0.10380284557E+04  0.11336174481E+04  0.45561545600E+03 0.  0.
      99925    2    3    3    0    0 -0.81724974260E+02 -0.77338025987E+02 -0.61005779684E+03  0.67376254202E+03  0.26291691817E+03 0.  0.
         25    1    3    3    0    0  0.81724974260E+02  0.77338025987E+02 -0.42797065884E+03  0.45985490604E+03  0.12509000000E+03 0.  0.
         25    1    4    4    0    0 -0.48469295102E+01 -0.17895610464E+02 -0.30073086986E+03  0.32623658561E+03  0.12509000000E+03 0.  0.
         25    1    4    4    0    0 -0.76878044750E+02 -0.59442415523E+02 -0.30932692698E+03  0.34752595641E+03  0.12509000000E+03 0.  0.
<mgrwt>
<rscale>  2 0.45561546E+03</rscale>
<asrwt>0</asrwt>
<pdfrwt beam="1">  1       21 0.70286020E-02 0.45561546E+03</pdfrwt>
<pdfrwt beam="2">  1       21 0.15967986E+00 0.45561546E+03</pdfrwt>
<totfact> 0.34169854E+04</totfact>
</mgrwt>
</event>
<event>
 7    0  0.4737014E-002  0.4203627E+03  0.7546771E-02  0.1036948E+00
         21   -1    0    0  502  501  0.00000000000E+00  0.00000000000E+00  0.92736915230E+03  0.92736915230E+03  0.00000000000E+00 0.  1.
         21   -1    0    0  501  502 -0.00000000000E+00 -0.00000000000E+00 -0.47636046290E+02  0.47636046290E+02  0.00000000000E+00 0.  1.
      99926    2    1    2    0    0  0.00000000000E+00  0.00000000000E+00  0.87973310601E+03  0.97500519859E+03  0.42036269990E+03 0.  0.
      99925    2    3    3    0    0 -0.65044662634E+02  0.37778019770E+02  0.56824825020E+03  0.63101637549E+03  0.26385148356E+03 0.  0.
         25    1    4    4    0    0 -0.50898393134E+02 -0.14041388911E+02  0.32584098356E+03  0.35299810437E+03  0.12509000000E+03 0.  0.
         25    1    4    4    0    0 -0.14146269501E+02  0.51819408681E+02  0.24240726664E+03  0.27801827112E+03  0.12509000000E+03 0.  0.
         25    1    3    3    0    0  0.65044662634E+02 -0.37778019770E+02  0.31148485582E+03  0.34398882310E+03  0.12509000000E+03 0.  0.
<mgrwt>
<rscale>  2 0.42036270E+03</rscale>
<asrwt>0</asrwt>
<pdfrwt beam="1">  1       21 0.13637781E+00 0.42036270E+03</pdfrwt>
<pdfrwt beam="2">  1       21 0.70053015E-02 0.42036270E+03</pdfrwt>
<totfact> 0.53138989E+04</totfact>
</mgrwt>
</event>
<event>
 7    0  0.4737014E-002  0.4609572E+03  0.7546771E-02  0.1024504E+00
         21   -1    0    0  502  501  0.00000000000E+00  0.00000000000E+00  0.10312057519E+04  0.10312057519E+04  0.00000000000E+00 0. -1.
         21   -1    0    0  501  502 -0.00000000000E+00 -0.00000000000E+00 -0.51512878834E+02  0.51512878834E+02  0.00000000000E+00 0. -1.
      99926    2    1    2    0    0  0.00000000000E+00  0.14210854715E-13  0.97969287309E+03  0.10827186308E+04  0.46095716483E+03 0.  0.
      99925    2    3    3    0    0 -0.29562578875E+02  0.11385055858E+03  0.57368089739E+03  0.64189085456E+03  0.26282732235E+03 0.  0.
         25    1    4    4    0    0  0.10268225472E+02  0.26058853789E+02  0.22144706255E+03  0.25587264396E+03  0.12509000000E+03 0.  0.
         25    1    3    3    0    0  0.29562578875E+02 -0.11385055858E+03  0.40601197570E+03  0.44082777620E+03  0.12509000000E+03 0.  0.
         25    1    4    4    0    0 -0.39830804347E+02  0.87791704794E+02  0.35223383484E+03  0.38601821060E+03  0.12509000000E+03 0.  0.
<mgrwt>
<rscale>  2 0.46095716E+03</rscale>
<asrwt>0</asrwt>
<pdfrwt beam="1">  1       21 0.15164789E+00 0.46095716E+03</pdfrwt>
<pdfrwt beam="2">  1       21 0.75754240E-02 0.46095716E+03</pdfrwt>
<totfact> 0.34469000E+04</totfact>
</mgrwt>
</event>
<event>
 7    0  0.4737014E-002  0.4424230E+03  0.7546771E-02  0.1030006E+00
         21   -1    0    0  502  501  0.00000000000E+00  0.00000000000E+00  0.12089244018E+03  0.12089244018E+03  0.00000000000E+00 0.  1.
         21   -1    0    0  501  502 -0.00000000000E+00 -0.00000000000E+00 -0.40477745043E+03  0.40477745043E+03  0.00000000000E+00 0.  1.
      99926    2    1    2    0    0  0.52735593670E-15  0.00000000000E+00 -0.28388501025E+03  0.52566989061E+03  0.44242302703E+03 0.  0.
      99925    2    3    3    0    0  0.78198668102E-01 -0.95583705809E+02 -0.14227984476E+03  0.31392527574E+03  0.26300052014E+03 0.  0.
         25    1    4    4    0    0 -0.10233710543E+02 -0.76529758277E+02 -0.44207070227E+02  0.15350343935E+03  0.12509000000E+03 0.  0.
         25    1    4    4    0    0  0.10311909211E+02 -0.19053947533E+02 -0.98072774531E+02  0.16042183639E+03  0.12509000000E+03 0.  0.
         25    1    3    3    0    0 -0.78198668102E-01  0.95583705809E+02 -0.14160516549E+03  0.21174461487E+03  0.12509000000E+03 0.  0.
<mgrwt>
<rscale>  2 0.44242303E+03</rscale>
<asrwt>0</asrwt>
<pdfrwt beam="1">  1       21 0.17778300E-01 0.44242303E+03</pdfrwt>
<pdfrwt beam="2">  1       21 0.59526096E-01 0.44242303E+03</pdfrwt>
<totfact> 0.70240207E+04</totfact>
</mgrwt>
</event>
<event>
 7    0  0.4737014E-002  0.4548908E+03  0.7546771E-02  0.1026274E+00
         21   -1    0    0  502  501  0.00000000000E+00  0.00000000000E+00  0.98766322967E+02  0.98766322967E+02  0.00000000000E+00 0. -1.
         21   -1    0    0  501  502 -0.00000000000E+00 -0.00000000000E+00 -0.52377577944E+03  0.52377577944E+03  0.00000000000E+00 0. -1.
      99926    2    1    2    0    0  0.00000000000E+00  0.00000000000E+00 -0.42500945647E+03  0.62254210241E+03  0.45489079039E+03 0.  0.
      99925    2    3    3    0    0 -0.52617999194E+02  0.79663721526E+02 -0.18535070911E+03  0.33583879644E+03  0.26328283168E+03 0.  0.
         25    1    4    4    0    0 -0.15808418879E+02  0.55229532264E+02 -0.13817187749E+03  0.19503636371E+03  0.12509000000E+03 0.  0.
         25    1    4    4    0    0 -0.36809580315E+02  0.24434189261E+02 -0.47178831619E+02  0.14080243272E+03  0.12509000000E+03 0.  0.
         25    1    3    3    0    0  0.52617999194E+02 -0.79663721526E+02 -0.23965874736E+03  0.28670330597E+03  0.12509000000E+03 0.  0.
<mgrwt>
<rscale>  2 0.45489079E+03</rscale>
<asrwt>0</asrwt>
<pdfrwt beam="1">  1       21 0.14524459E-01 0.45489079E+03</pdfrwt>
<pdfrwt beam="2">  1       21 0.77025851E-01 0.45489079E+03</pdfrwt>
<totfact> 0.57361208E+04</totfact>
</mgrwt>
</event>
<event>
 7    0  0.4737014E-002  0.4616658E+03  0.7546771E-02  0.1024299E+00
         21   -1    0    0  502  501  0.00000000000E+00  0.00000000000E+00  0.22850882047E+04  0.22850882047E+04  0.00000000000E+00 0. -1.
         21   -1    0    0  501  502 -0.00000000000E+00 -0.00000000000E+00 -0.23318059798E+02  0.23318059798E+02  0.00000000000E+00 0. -1.
      99926    2    1    2    0    0  0.00000000000E+00  0.00000000000E+00  0.22617701449E+04  0.23084062645E+04  0.46166578128E+03 0.  0.
      99925    2    3    3    0    0  0.22724654241E+02  0.33044063897E+02  0.85308075735E+03  0.89360535314E+03  0.26301222127E+03 0.  0.
         25    1    4    4    0    0 -0.19008420066E+02  0.26682565668E+02  0.33846771495E+03  0.36232745067E+03  0.12509000000E+03 0.  0.
         25    1    4    4    0    0  0.41733074306E+02  0.63614982292E+01  0.51461304239E+03  0.53127790247E+03  0.12509000000E+03 0.  0.
         25    1    3    3    0    0 -0.22724654241E+02 -0.33044063897E+02  0.14086893875E+04  0.14148009114E+04  0.12509000000E+03 0.  0.
<mgrwt>
<rscale>  2 0.46166578E+03</rscale>
<asrwt>0</asrwt>
<pdfrwt beam="1">  1       21 0.33604223E+00 0.46166578E+03</pdfrwt>
<pdfrwt beam="2">  1       21 0.34291280E-02 0.46166578E+03</pdfrwt>
<totfact> 0.88301800E+03</totfact>
</mgrwt>
</event>
<event>
 7    0  0.4737014E-002  0.4596456E+03  0.7546771E-02  0.1024884E+00
         21   -1    0    0  502  501  0.00000000000E+00  0.00000000000E+00  0.23200381976E+04  0.23200381976E+04  0.00000000000E+00 0. -1.
         21   -1    0    0  501  502 -0.00000000000E+00 -0.00000000000E+00 -0.22766233299E+02  0.22766233299E+02  0.00000000000E+00 0. -1.
      99926    2    1    2    0    0  0.00000000000E+00  0.14210854715E-13  0.22972719643E+04  0.23428044309E+04  0.45964564990E+03 0.  0.
      99925    2    3    3    0    0  0.80597148968E+02 -0.80445042431E+02  0.12935599211E+04  0.13249377014E+04  0.26305006712E+03 0.  0.
         25    1    4    4    0    0  0.36901551627E+02 -0.48031501461E+02  0.83611197883E+03  0.84758450840E+03  0.12509000000E+03 0.  0.
         25    1    4    4    0    0  0.43695597341E+02 -0.32413540970E+02  0.45744794224E+03  0.47735319295E+03  0.12509000000E+03 0.  0.
         25    1    3    3    0    0 -0.80597148968E+02  0.80445042431E+02  0.10037120432E+04  0.10178667295E+04  0.12509000000E+03 0.  0.
<mgrwt>
<rscale>  2 0.45964565E+03</rscale>
<asrwt>0</asrwt>
<pdfrwt beam="1">  1       21 0.34118193E+00 0.45964565E+03</pdfrwt>
<pdfrwt beam="2">  1       21 0.33479771E-02 0.45964565E+03</pdfrwt>
<totfact> 0.85636659E+03</totfact>
</mgrwt>
</event>
<event>
 7    0  0.4737014E-002  0.4574771E+03  0.7546771E-02  0.1025515E+00
         21   -1    0    0  502  501  0.00000000000E+00  0.00000000000E+00  0.36448637425E+02  0.36448637425E+02  0.00000000000E+00 0. -1.
         21   -1    0    0  501  502 -0.00000000000E+00 -0.00000000000E+00 -0.14354806626E+04  0.14354806626E+04  0.00000000000E+00 0. -1.
      99926    2    1    2    0    0 -0.71054273576E-14 -0.17763568394E-14 -0.13990320252E+04  0.14719293000E+04  0.45747705605E+03 0.  0.
      99925    2    3    3    0    0  0.59303227881E+02  0.14817075663E+02 -0.11937676833E+04  0.12239023323E+04  0.26290534187E+03 0.  0.
         25    1    3    3    0    0 -0.59303227881E+02 -0.14817075663E+02 -0.20526434190E+03  0.24802696773E+03  0.12509000000E+03 0.  0.
         25    1    4    4    0    0  0.49168585937E+02  0.27858753939E+02 -0.75397600607E+03  0.76636870098E+03  0.12509000000E+03 0.  0.
         25    1    4    4    0    0  0.10134641944E+02 -0.13041678277E+02 -0.43979167722E+03  0.45753363132E+03  0.12509000000E+03 0.  0.
<mgrwt>
<rscale>  2 0.45747706E+03</rscale>
<asrwt>0</asrwt>
<pdfrwt beam="1">  1       21 0.53600932E-02 0.45747706E+03</pdfrwt>
<pdfrwt beam="2">  1       21 0.21110012E+00 0.45747706E+03</pdfrwt>
<totfact> 0.24010201E+04</totfact>
</mgrwt>
</event>
<event>
 7    0  0.4737014E-002  0.4539257E+03  0.7546771E-02  0.1026558E+00
         21   -1    0    0  502  501  0.00000000000E+00  0.00000000000E+00  0.70047235164E+03  0.70047235164E+03  0.00000000000E+00 0. -1.
         21   -1    0    0  501  502 -0.00000000000E+00 -0.00000000000E+00 -0.73539142773E+02  0.73539142773E+02  0.00000000000E+00 0. -1.
      99926    2    1    2    0    0  0.00000000000E+00  0.00000000000E+00  0.62693320887E+03  0.77401149441E+03  0.45392570439E+03 0.  0.
      99925    2    3    3    0    0 -0.81382740487E+02 -0.52591582848E+02  0.29881724728E+03  0.40973602532E+03  0.26306432319E+03 0.  0.
         25    1    3    3    0    0  0.81382740487E+02  0.52591582848E+02  0.32811596159E+03  0.36427546909E+03  0.12509000000E+03 0.  0.
         25    1    4    4    0    0 -0.26572805838E+02  0.86484033241E+01  0.11085499891E+03  0.16946164101E+03  0.12509000000E+03 0.  0.
         25    1    4    4    0    0 -0.54809934649E+02 -0.61239986172E+02  0.18796224837E+03  0.24027438431E+03  0.12509000000E+03 0.  0.
<mgrwt>
<rscale>  2 0.45392570E+03</rscale>
<asrwt>0</asrwt>
<pdfrwt beam="1">  1       21 0.10301064E+00 0.45392570E+03</pdfrwt>
<pdfrwt beam="2">  1       21 0.10814580E-01 0.45392570E+03</pdfrwt>
<totfact> 0.49463343E+04</totfact>
</mgrwt>
</event>
<event>
 7    0  0.4737014E-002  0.4538096E+03  0.7546771E-02  0.1026592E+00
         21   -1    0    0  502  501  0.00000000000E+00  0.00000000000E+00  0.79096540640E+03  0.79096540640E+03  0.00000000000E+00 0. -1.
         21   -1    0    0  501  502 -0.00000000000E+00 -0.00000000000E+00 -0.65092341782E+02  0.65092341782E+02  0.00000000000E+00 0. -1.
      99926    2    1    2    0    0  0.00000000000E+00 -0.14210854715E-13  0.72587306461E+03  0.85605774818E+03  0.45380961017E+03 0.  0.
      99925    2    3    3    0    0 -0.77680066400E+02  0.80469582893E+02  0.47076606691E+03  0.55071100288E+03  0.26296838679E+03 0.  0.
         25    1    4    4    0    0 -0.29602549239E+02 -0.16294272198E+01  0.21696918976E+03  0.25219457440E+03  0.12509000000E+03 0.  0.
         25    1    4    4    0    0 -0.48077517162E+02  0.82099010113E+02  0.25379687715E+03  0.29851642847E+03  0.12509000000E+03 0.  0.
         25    1    3    3    0    0  0.77680066400E+02 -0.80469582893E+02  0.25510699771E+03  0.30534674530E+03  0.12509000000E+03 0.  0.
<mgrwt>
<rscale>  2 0.45380961E+03</rscale>
<asrwt>0</asrwt>
<pdfrwt beam="1">  1       21 0.11631844E+00 0.45380961E+03</pdfrwt>
<pdfrwt beam="2">  1       21 0.95724037E-02 0.45380961E+03</pdfrwt>
<totfact> 0.45593824E+04</totfact>
</mgrwt>
</event>
<event>
 7    0  0.4737014E-002  0.4528217E+03  0.7546771E-02  0.1026884E+00
         21   -1    0    0  502  501  0.00000000000E+00  0.00000000000E+00  0.36561656770E+02  0.36561656770E+02  0.00000000000E+00 0. -1.
         21   -1    0    0  501  502 -0.00000000000E+00 -0.00000000000E+00 -0.14020663759E+04  0.14020663759E+04  0.00000000000E+00 0. -1.
      99926    2    1    2    0    0  0.00000000000E+00  0.00000000000E+00 -0.13655047191E+04  0.14386280327E+04  0.45282168501E+03 0.  0.
      99925    2    3    3    0    0  0.64282087219E+02 -0.12668388098E+02 -0.11462091635E+04  0.11778010332E+04  0.26292043036E+03 0.  0.
         25    1    4    4    0    0  0.27149992903E+02  0.33872537768E+02 -0.55373259530E+03  0.56934327617E+03  0.12509000000E+03 0.  0.
         25    1    3    3    0    0 -0.64282087219E+02  0.12668388098E+02 -0.21929555564E+03  0.26082699941E+03  0.12509000000E+03 0.  0.
         25    1    4    4    0    0  0.37132094316E+02 -0.46540925866E+02 -0.59247656818E+03  0.60845775708E+03  0.12509000000E+03 0.  0.
<mgrwt>
<rscale>  2 0.45282169E+03</rscale>
<asrwt>0</asrwt>
<pdfrwt beam="1">  1       21 0.53767152E-02 0.45282169E+03</pdfrwt>
<pdfrwt beam="2">  1       21 0.20618619E+00 0.45282169E+03</pdfrwt>
<totfact> 0.25753734E+04</totfact>
</mgrwt>
</event>
<event>
 7    0  0.4737014E-002  0.4565027E+03  0.7546771E-02  0.1025800E+00
         21   -1    0    0  502  501  0.00000000000E+00  0.00000000000E+00  0.86268228478E+02  0.86268228478E+02  0.00000000000E+00 0. -1.
         21   -1    0    0  501  502 -0.00000000000E+00 -0.00000000000E+00 -0.60391508888E+03  0.60391508888E+03  0.00000000000E+00 0. -1.
      99926    2    1    2    0    0  0.00000000000E+00  0.00000000000E+00 -0.51764686040E+03  0.69018331735E+03  0.45650272669E+03 0.  0.
      99925    2    3    3    0    0 -0.37989180136E+02  0.10501995629E+03 -0.36277351802E+03  0.46191674226E+03  0.26323009398E+03 0.  0.
         25    1    4    4    0    0 -0.33816872023E+02  0.12269756222E+02 -0.16573011592E+03  0.21073231165E+03  0.12509000000E+03 0.  0.
         25    1    3    3    0    0  0.37989180136E+02 -0.10501995629E+03 -0.15487334237E+03  0.22826657509E+03  0.12509000000E+03 0.  0.
         25    1    4    4    0    0 -0.41723081126E+01  0.92750200069E+02 -0.19704340210E+03  0.25118443061E+03  0.12509000000E+03 0.  0.
<mgrwt>
<rscale>  2 0.45650273E+03</rscale>
<asrwt>0</asrwt>
<pdfrwt beam="1">  1       21 0.12686504E-01 0.45650273E+03</pdfrwt>
<pdfrwt beam="2">  1       21 0.88811042E-01 0.45650273E+03</pdfrwt>
<totfact> 0.52811777E+04</totfact>
</mgrwt>
</event>
<event>
 7    0  0.4737014E-002  0.4542664E+03  0.7546771E-02  0.1026457E+00
         21   -1    0    0  502  501  0.00000000000E+00  0.00000000000E+00  0.44073569959E+02  0.44073569959E+02  0.00000000000E+00 0. -1.
         21   -1    0    0  501  502 -0.00000000000E+00 -0.00000000000E+00 -0.11705310762E+04  0.11705310762E+04  0.00000000000E+00 0. -1.
      99926    2    1    2    0    0  0.00000000000E+00  0.71054273576E-14 -0.11264575062E+04  0.12146046461E+04  0.45426636801E+03 0.  0.
      99925    2    3    3    0    0 -0.95097994942E+02  0.60043174582E+02 -0.71642416712E+03  0.77140755823E+03  0.26297760781E+03 0.  0.
         25    1    3    3    0    0  0.95097994942E+02 -0.60043174582E+02 -0.41003333911E+03  0.44319708792E+03  0.12509000000E+03 0.  0.
         25    1    4    4    0    0 -0.29088313493E+02  0.48221147543E+02 -0.26818528589E+03  0.30123456760E+03  0.12509000000E+03 0.  0.
         25    1    4    4    0    0 -0.66009681448E+02  0.11822027039E+02 -0.44823888123E+03  0.47017299063E+03  0.12509000000E+03 0.  0.
<mgrwt>
<rscale>  2 0.45426637E+03</rscale>
<asrwt>0</asrwt>
<pdfrwt beam="1">  1       21 0.64814087E-02 0.45426637E+03</pdfrwt>
<pdfrwt beam="2">  1       21 0.17213689E+00 0.45426637E+03</pdfrwt>
<totfact> 0.31878233E+04</totfact>
</mgrwt>
</event>
<event>
 7    0  0.4737014E-002  0.4645891E+03  0.7546771E-02  0.1023459E+00
         21   -1    0    0  502  501  0.00000000000E+00  0.00000000000E+00  0.24701838795E+03  0.24701838795E+03  0.00000000000E+00 0.  1.
         21   -1    0    0  501  502 -0.00000000000E+00 -0.00000000000E+00 -0.21844837091E+03  0.21844837091E+03  0.00000000000E+00 0.  1.
      99926    2    1    2    0    0  0.22204460493E-14  0.00000000000E+00  0.28570017043E+02  0.46546675886E+03  0.46458912787E+03 0.  0.
      99925    2    3    3    0    0 -0.22184497721E+01 -0.88529789191E+02  0.10167916747E+03  0.29565833425E+03  0.26312117441E+03 0.  0.
         25    1    3    3    0    0  0.22184497721E+01  0.88529789191E+02 -0.73109150424E+02  0.16980842461E+03  0.12509000000E+03 0.  0.
         25    1    4    4    0    0 -0.23340629080E+02 -0.55931592992E+02  0.17832177486E+02  0.14013787038E+03  0.12509000000E+03 0.  0.
         25    1    4    4    0    0  0.21122179308E+02 -0.32598196200E+02  0.83846989981E+02  0.15552046387E+03  0.12509000000E+03 0.  0.
<mgrwt>
<rscale>  2 0.46458913E+03</rscale>
<asrwt>0</asrwt>
<pdfrwt beam="1">  1       21 0.36326234E-01 0.46458913E+03</pdfrwt>
<pdfrwt beam="2">  1       21 0.32124760E-01 0.46458913E+03</pdfrwt>
<totfact> 0.62838587E+04</totfact>
</mgrwt>
</event>
<event>
 6    0  0.4737014E-002  0.4546146E+03  0.7546771E-02  0.1026355E+00
         21   -1    0    0  502  501  0.00000000000E+00  0.00000000000E+00  0.19328625953E+03  0.19328625953E+03  0.00000000000E+00 0. -1.
         21   -1    0    0  501  502 -0.00000000000E+00 -0.00000000000E+00 -0.26731650643E+03  0.26731650643E+03  0.00000000000E+00 0. -1.
      99926    2    1    2    0    0 -0.17763568394E-14  0.00000000000E+00 -0.74030246903E+02  0.46060276596E+03  0.45461459562E+03 0.  0.
         25    1    3    3    0    0 -0.11503275571E+02  0.53330451146E+02 -0.10284933558E+03  0.17088579899E+03  0.12509000000E+03 0.  0.
         25    1    3    3    0    0  0.35509217434E+02 -0.34083559694E+02 -0.44370264561E+02  0.14155854634E+03  0.12509000000E+03 0.  0.
         25    1    3    3    0    0 -0.24005941863E+02 -0.19246891452E+02  0.73189353239E+02  0.14815842063E+03  0.12509000000E+03 0.  0.
<mgrwt>
<rscale>  2 0.45461460E+03</rscale>
<asrwt>0</asrwt>
<pdfrwt beam="1">  1       21 0.28424450E-01 0.45461460E+03</pdfrwt>
<pdfrwt beam="2">  1       21 0.39311251E-01 0.45461460E+03</pdfrwt>
<totfact> 0.68346423E+04</totfact>
</mgrwt>
</event>
<event>
 7    0  0.4737014E-002  0.4507702E+03  0.7546771E-02  0.1027493E+00
         21   -1    0    0  502  501  0.00000000000E+00  0.00000000000E+00  0.38513436761E+03  0.38513436761E+03  0.00000000000E+00 0. -1.
         21   -1    0    0  501  502 -0.00000000000E+00 -0.00000000000E+00 -0.13189798100E+03  0.13189798100E+03  0.00000000000E+00 0. -1.
      99926    2    1    2    0    0  0.00000000000E+00  0.00000000000E+00  0.25323638661E+03  0.51703234861E+03  0.45077020976E+03 0.  0.
      99925    2    3    3    0    0  0.57583603802E+02  0.55036118275E+02  0.24547710693E+03  0.36853130396E+03  0.26308072189E+03 0.  0.
         25    1    3    3    0    0 -0.57583603802E+02 -0.55036118275E+02  0.77592796799E+01  0.14850104465E+03  0.12509000000E+03 0.  0.
         25    1    4    4    0    0  0.63145037261E+02  0.10256134246E+02  0.14461928856E+03  0.20163018312E+03  0.12509000000E+03 0.  0.
         25    1    4    4    0    0 -0.55614334591E+01  0.44779984029E+02  0.10085781837E+03  0.16690112084E+03  0.12509000000E+03 0.  0.
<mgrwt>
<rscale>  2 0.45077021E+03</rscale>
<asrwt>0</asrwt>
<pdfrwt beam="1">  1       21 0.56637407E-01 0.45077021E+03</pdfrwt>
<pdfrwt beam="2">  1       21 0.19396762E-01 0.45077021E+03</pdfrwt>
<totfact> 0.66286624E+04</totfact>
</mgrwt>
</event>
<event>
 7    0  0.4737014E-002  0.4418806E+03  0.7546771E-02  0.1030171E+00
         21   -1    0    0  502  501  0.00000000000E+00  0.00000000000E+00  0.14591228103E+04  0.14591228103E+04  0.00000000000E+00 0.  1.
         21   -1    0    0  501  502 -0.00000000000E+00 -0.00000000000E+00 -0.33454771955E+02  0.33454771955E+02  0.00000000000E+00 0.  1.
      99926    2    1    2    0    0  0.00000000000E+00  0.00000000000E+00  0.14256680384E+04  0.14925775823E+04  0.44188062132E+03 0.  0.
      99925    2    3    3    0    0  0.35373703200E+02 -0.66728793573E+02  0.11311821078E+04  0.11638322368E+04  0.26311306249E+03 0.  0.
         25    1    3    3    0    0 -0.35373703200E+02  0.66728793573E+02  0.29448593061E+03  0.32874534551E+03  0.12509000000E+03 0.  0.
         25    1    4    4    0    0  0.93410418542E+01 -0.11826877936E+02  0.39425038436E+03  0.41389371072E+03  0.12509000000E+03 0.  0.
         25    1    4    4    0    0  0.26032661346E+02 -0.54901915637E+02  0.73693172342E+03  0.74993852606E+03  0.12509000000E+03 0.  0.
<mgrwt>
<rscale>  2 0.44188062E+03</rscale>
<asrwt>0</asrwt>
<pdfrwt beam="1">  1       21 0.21457684E+00 0.44188062E+03</pdfrwt>
<pdfrwt beam="2">  1       21 0.49198204E-02 0.44188062E+03</pdfrwt>
<totfact> 0.26567699E+04</totfact>
</mgrwt>
</event>
<event>
 7    0  0.4737014E-002  0.4579262E+03  0.7546771E-02  0.1025384E+00
         21   -1    0    0  502  501  0.00000000000E+00  0.00000000000E+00  0.41982904436E+03  0.41982904436E+03  0.00000000000E+00 0.  1.
         21   -1    0    0  501  502 -0.00000000000E+00 -0.00000000000E+00 -0.12487012455E+03  0.12487012455E+03  0.00000000000E+00 0.  1.
      99926    2    1    2    0    0 -0.35527136788E-14  0.00000000000E+00  0.29495891981E+03  0.54469916891E+03  0.45792621703E+03 0.  0.
      99925    2    3    3    0    0  0.22259169576E+02  0.91993711092E+02  0.26465733072E+03  0.38493682069E+03  0.26301053154E+03 0.  0.
         25    1    4    4    0    0 -0.28608292418E+02  0.53951845212E+02  0.13458090869E+03  0.19362015670E+03  0.12509000000E+03 0.  0.
         25    1    3    3    0    0 -0.22259169576E+02 -0.91993711092E+02  0.30301589088E+02  0.15976234823E+03  0.12509000000E+03 0.  0.
         25    1    4    4    0    0  0.50867461993E+02  0.38041865880E+02  0.13007642203E+03  0.19131666399E+03  0.12509000000E+03 0.  0.
<mgrwt>
<rscale>  2 0.45792622E+03</rscale>
<asrwt>0</asrwt>
<pdfrwt beam="1">  1       21 0.61739565E-01 0.45792622E+03</pdfrwt>
<pdfrwt beam="2">  1       21 0.18363254E-01 0.45792622E+03</pdfrwt>
<totfact> 0.60798088E+04</totfact>
</mgrwt>
</event>
<event>
 7    0  0.4737014E-002  0.4565469E+03  0.7546771E-02  0.1025787E+00
         21   -1    0    0  502  501  0.00000000000E+00  0.00000000000E+00  0.23612939880E+03  0.23612939880E+03  0.00000000000E+00 0. -1.
         21   -1    0    0  501  502 -0.00000000000E+00 -0.00000000000E+00 -0.22067883623E+03  0.22067883623E+03  0.00000000000E+00 0. -1.
      99926    2    1    2    0    0  0.00000000000E+00  0.00000000000E+00  0.15450562564E+02  0.45680823503E+03  0.45654686912E+03 0.  0.
      99925    2    3    3    0    0  0.94913209216E+02  0.62385969565E+02 -0.59085859227E+01  0.28650189984E+03  0.26295988428E+03 0.  0.
         25    1    3    3    0    0 -0.94913209216E+02 -0.62385969565E+02  0.21359148487E+02  0.17030633519E+03  0.12509000000E+03 0.  0.
         25    1    4    4    0    0  0.82661477620E+02  0.24022438830E+02 -0.24398063246E+02  0.15379457416E+03  0.12509000000E+03 0.  0.
         25    1    4    4    0    0  0.12251731596E+02  0.38363530736E+02  0.18489477323E+02  0.13270732568E+03  0.12509000000E+03 0.  0.
<mgrwt>
<rscale>  2 0.45654687E+03</rscale>
<asrwt>0</asrwt>
<pdfrwt beam="1">  1       21 0.34724912E-01 0.45654687E+03</pdfrwt>
<pdfrwt beam="2">  1       21 0.32452770E-01 0.45654687E+03</pdfrwt>
<totfact> 0.67575638E+04</totfact>
</mgrwt>
</event>
<event>
 7    0  0.4737014E-002  0.4237445E+03  0.7546771E-02  0.1035854E+00
         21   -1    0    0  502  501  0.00000000000E+00  0.00000000000E+00  0.29770054898E+03  0.29770054898E+03  0.00000000000E+00 0. -1.
         21   -1    0    0  501  502 -0.00000000000E+00 -0.00000000000E+00 -0.15078856973E+03  0.15078856973E+03  0.00000000000E+00 0. -1.
      99926    2    1    2    0    0  0.00000000000E+00  0.00000000000E+00  0.14691197925E+03  0.44848911870E+03  0.42374445123E+03 0.  0.
      99925    2    3    3    0    0 -0.24874200348E+02 -0.71350067422E+02  0.69253040958E+02  0.28299598664E+03  0.26378246115E+03 0.  0.
         25    1    4    4    0    0  0.15653293313E+01 -0.49822333515E+02 -0.27633306243E+01  0.13468429481E+03  0.12509000000E+03 0.  0.
         25    1    4    4    0    0 -0.26439529679E+02 -0.21527733907E+02  0.72016371583E+02  0.14831169183E+03  0.12509000000E+03 0.  0.
         25    1    3    3    0    0  0.24874200348E+02  0.71350067422E+02  0.77658938291E+02  0.16549313206E+03  0.12509000000E+03 0.  0.
<mgrwt>
<rscale>  2 0.42374445E+03</rscale>
<asrwt>0</asrwt>
<pdfrwt beam="1">  1       21 0.43779493E-01 0.42374445E+03</pdfrwt>
<pdfrwt beam="2">  1       21 0.22174790E-01 0.42374445E+03</pdfrwt>
<totfact> 0.89226853E+04</totfact>
</mgrwt>
</event>
<event>
 7    0  0.4737014E-002  0.4431468E+03  0.7546771E-02  0.1029786E+00
         21   -1    0    0  502  501  0.00000000000E+00  0.00000000000E+00  0.61883663931E+03  0.61883663931E+03  0.00000000000E+00 0.  1.
         21   -1    0    0  501  502 -0.00000000000E+00 -0.00000000000E+00 -0.79333963971E+02  0.79333963971E+02  0.00000000000E+00 0.  1.
      99926    2    1    2    0    0  0.00000000000E+00  0.00000000000E+00  0.53950267534E+03  0.69817060328E+03  0.44314676416E+03 0.  0.
      99925    2    3    3    0    0  0.78737610965E+02 -0.55354526488E+02  0.39485401160E+03  0.48408071794E+03  0.26298425052E+03 0.  0.
         25    1    3    3    0    0 -0.78737610965E+02  0.55354526488E+02  0.14464866374E+03  0.21408988534E+03  0.12509000000E+03 0.  0.
         25    1    4    4    0    0  0.36260224994E+02 -0.27418090831E+02  0.26599248296E+03  0.29743245403E+03  0.12509000000E+03 0.  0.
         25    1    4    4    0    0  0.42477385971E+02 -0.27936435656E+02  0.12886152864E+03  0.18664826391E+03  0.12509000000E+03 0.  0.
<mgrwt>
<rscale>  2 0.44314676E+03</rscale>
<asrwt>0</asrwt>
<pdfrwt beam="1">  1       21 0.91005385E-01 0.44314676E+03</pdfrwt>
<pdfrwt beam="2">  1       21 0.11666760E-01 0.44314676E+03</pdfrwt>
<totfact> 0.58248932E+04</totfact>
</mgrwt>
</event>
<event>
 7    0  0.4737014E-002  0.4495848E+03  0.7546771E-02  0.1027846E+00
         21   -1    0    0  502  501  0.00000000000E+00  0.00000000000E+00  0.19527457085E+03  0.19527457085E+03  0.00000000000E+00 0. -1.
         21   -1    0    0  501  502 -0.00000000000E+00 -0.00000000000E+00 -0.25877219469E+03  0.25877219469E+03  0.00000000000E+00 0. -1.
      99926    2    1    2    0    0  0.00000000000E+00  0.00000000000E+00 -0.63497623837E+02  0.45404676554E+03  0.44958482744E+03 0.  0.
      99925    2    3    3    0    0 -0.59139325490E+02 -0.87716858172E+02 -0.62044231189E+02  0.29021353485E+03  0.26302604844E+03 0.  0.
         25    1    4    4    0    0 -0.58060587271E+01 -0.35998141593E+02 -0.62988068745E+02  0.14472242888E+03  0.12509000000E+03 0.  0.
         25    1    4    4    0    0 -0.53333266763E+02 -0.51718716579E+02  0.94383755545E+00  0.14549110597E+03  0.12509000000E+03 0.  0.
         25    1    3    3    0    0  0.59139325490E+02  0.87716858172E+02 -0.14533926473E+01  0.16383323069E+03  0.12509000000E+03 0.  0.
<mgrwt>
<rscale>  2 0.44958483E+03</rscale>
<asrwt>0</asrwt>
<pdfrwt beam="1">  1       21 0.28716849E-01 0.44958483E+03</pdfrwt>
<pdfrwt beam="2">  1       21 0.38054734E-01 0.44958483E+03</pdfrwt>
<totfact> 0.71661658E+04</totfact>
</mgrwt>
</event>
<event>
 7    0  0.4737014E-002  0.4557415E+03  0.7546771E-02  0.1026024E+00
         21   -1    0    0  502  501  0.00000000000E+00  0.00000000000E+00  0.11102681725E+04  0.11102681725E+04  0.00000000000E+00 0. -1.
         21   -1    0    0  501  502 -0.00000000000E+00 -0.00000000000E+00 -0.46768044513E+02  0.46768044513E+02  0.00000000000E+00 0. -1.
      99926    2    1    2    0    0  0.00000000000E+00  0.14210854715E-13  0.10635001280E+04  0.11570362170E+04  0.45574146755E+03 0.  0.
      99925    2    3    3    0    0 -0.75204736795E+02  0.73177612459E+02  0.78132863455E+03  0.83103165383E+03  0.26292291477E+03 0.  0.
         25    1    3    3    0    0  0.75204736795E+02 -0.73177612459E+02  0.28217149342E+03  0.32600456316E+03  0.12509000000E+03 0.  0.
         25    1    4    4    0    0 -0.19613802769E+02  0.61404143947E+02  0.47273079938E+03  0.49323127124E+03  0.12509000000E+03 0.  0.
         25    1    4    4    0    0 -0.55590934027E+02  0.11773468512E+02  0.30859783517E+03  0.33780038259E+03  0.12509000000E+03 0.  0.
<mgrwt>
<rscale>  2 0.45574147E+03</rscale>
<asrwt>0</asrwt>
<pdfrwt beam="1">  1       21 0.16327472E+00 0.45574147E+03</pdfrwt>
<pdfrwt beam="2">  1       21 0.68776543E-02 0.45574147E+03</pdfrwt>
<totfact> 0.33355156E+04</totfact>
</mgrwt>
</event>
<event>
 7    0  0.4737014E-002  0.4538839E+03  0.7546771E-02  0.1026570E+00
         21   -1    0    0  502  501  0.00000000000E+00  0.00000000000E+00  0.52812204331E+02  0.52812204331E+02  0.00000000000E+00 0. -1.
         21   -1    0    0  501  502 -0.00000000000E+00 -0.00000000000E+00 -0.97520339014E+03  0.97520339014E+03  0.00000000000E+00 0. -1.
      99926    2    1    2    0    0  0.71054273576E-14  0.35527136788E-14 -0.92239118581E+03  0.10280155945E+04  0.45388386490E+03 0.  0.
      99925    2    3    3    0    0  0.50380241984E+02  0.22818266659E+02 -0.80198212367E+03  0.84579404684E+03  0.26293231241E+03 0.  0.
         25    1    4    4    0    0  0.31651174029E+02 -0.54072183210E+01 -0.28635109337E+03  0.31412655348E+03  0.12509000000E+03 0.  0.
         25    1    4    4    0    0  0.18729067955E+02  0.28225484980E+02 -0.51563103030E+03  0.53166749336E+03  0.12509000000E+03 0.  0.
         25    1    3    3    0    0 -0.50380241984E+02 -0.22818266659E+02 -0.12040906214E+03  0.18222154763E+03  0.12509000000E+03 0.  0.
<mgrwt>
<rscale>  2 0.45388386E+03</rscale>
<asrwt>0</asrwt>
<pdfrwt beam="1">  1       21 0.77665015E-02 0.45388386E+03</pdfrwt>
<pdfrwt beam="2">  1       21 0.14341225E+00 0.45388386E+03</pdfrwt>
<totfact> 0.38428322E+04</totfact>
</mgrwt>
</event>
<event>
 7    0  0.4737014E-002  0.4511637E+03  0.7546771E-02  0.1027376E+00
         21   -1    0    0  502  501  0.00000000000E+00  0.00000000000E+00  0.26670491612E+04  0.26670491612E+04  0.00000000000E+00 0. -1.
         21   -1    0    0  501  502 -0.00000000000E+00 -0.00000000000E+00 -0.19079951888E+02  0.19079951888E+02  0.00000000000E+00 0. -1.
      99926    2    1    2    0    0 -0.17763568394E-14  0.00000000000E+00  0.26479692093E+04  0.26861291131E+04  0.45116369393E+03 0.  0.
      99925    2    3    3    0    0 -0.13036631211E+02 -0.23228885125E+02  0.23047836863E+04  0.23198869171E+04  0.26294092944E+03 0.  0.
         25    1    3    3    0    0  0.13036631211E+02  0.23228885125E+02  0.34318552296E+03  0.36624219600E+03  0.12509000000E+03 0.  0.
         25    1    4    4    0    0  0.12984993058E+02 -0.44862755859E+02  0.12787665961E+04  0.12857187843E+04  0.12509000000E+03 0.  0.
         25    1    4    4    0    0 -0.26021624269E+02  0.21633870735E+02  0.10260170903E+04  0.10341681328E+04  0.12509000000E+03 0.  0.
<mgrwt>
<rscale>  2 0.45116369E+03</rscale>
<asrwt>0</asrwt>
<pdfrwt beam="1">  1       21 0.39221286E+00 0.45116369E+03</pdfrwt>
<pdfrwt beam="2">  1       21 0.28058771E-02 0.45116369E+03</pdfrwt>
<totfact> 0.55732715E+03</totfact>
</mgrwt>
</event>
<event>
 7    0  0.4737014E-002  0.4544222E+03  0.7546771E-02  0.1026411E+00
         21   -1    0    0  502  501  0.00000000000E+00  0.00000000000E+00  0.64204084669E+02  0.64204084669E+02  0.00000000000E+00 0. -1.
         21   -1    0    0  501  502 -0.00000000000E+00 -0.00000000000E+00 -0.80407460507E+03  0.80407460507E+03  0.00000000000E+00 0. -1.
      99926    2    1    2    0    0  0.00000000000E+00  0.00000000000E+00 -0.73987052040E+03  0.86827868974E+03  0.45442215626E+03 0.  0.
      99925    2    3    3    0    0 -0.69451421180E+02  0.51148474459E+02 -0.32759906784E+03  0.42889852969E+03  0.26304587657E+03 0.  0.
         25    1    3    3    0    0  0.69451421180E+02 -0.51148474459E+02 -0.41227145257E+03  0.43938016005E+03  0.12509000000E+03 0.  0.
         25    1    4    4    0    0  0.20953466053E+01  0.38319455250E+02 -0.17643613160E+03  0.21965879851E+03  0.12509000000E+03 0.  0.
         25    1    4    4    0    0 -0.71546767785E+02  0.12829019209E+02 -0.15116293623E+03  0.20923973118E+03  0.12509000000E+03 0.  0.
<mgrwt>
<rscale>  2 0.45442216E+03</rscale>
<asrwt>0</asrwt>
<pdfrwt beam="1">  1       21 0.94417775E-02 0.45442216E+03</pdfrwt>
<pdfrwt beam="2">  1       21 0.11824626E+00 0.45442216E+03</pdfrwt>
<totfact> 0.44835148E+04</totfact>
</mgrwt>
</event>
<event>
 7    0  0.4737014E-002  0.4537824E+03  0.7546771E-02  0.1026600E+00
         21   -1    0    0  502  501  0.00000000000E+00  0.00000000000E+00  0.52959743999E+03  0.52959743999E+03  0.00000000000E+00 0. -1.
         21   -1    0    0  501  502 -0.00000000000E+00 -0.00000000000E+00 -0.97205166416E+02  0.97205166416E+02  0.00000000000E+00 0. -1.
      99926    2    1    2    0    0  0.00000000000E+00  0.00000000000E+00  0.43239227357E+03  0.62680260640E+03  0.45378235879E+03 0.  0.
      99925    2    3    3    0    0 -0.56490548137E+02  0.81629516781E+02  0.34438624703E+03  0.44446465411E+03  0.26285429723E+03 0.  0.
         25    1    4    4    0    0 -0.45283799139E+02  0.77722675098E+02  0.21035575253E+03  0.26074602089E+03  0.12509000000E+03 0.  0.
         25    1    4    4    0    0 -0.11206748998E+02  0.39068416827E+01  0.13403049450E+03  0.18371863322E+03  0.12509000000E+03 0.  0.
         25    1    3    3    0    0  0.56490548137E+02 -0.81629516781E+02  0.88006026539E+02  0.18233795229E+03  0.12509000000E+03 0.  0.
<mgrwt>
<rscale>  2 0.45378236E+03</rscale>
<asrwt>0</asrwt>
<pdfrwt beam="1">  1       21 0.77881975E-01 0.45378236E+03</pdfrwt>
<pdfrwt beam="2">  1       21 0.14294878E-01 0.45378236E+03</pdfrwt>
<totfact> 0.57609907E+04</totfact>
</mgrwt>
</event>
<event>
 7    0  0.4737014E-002  0.4621427E+03  0.7546771E-02  0.1024162E+00
         21   -1    0    0  502  501  0.00000000000E+00  0.00000000000E+00  0.92268946429E+03  0.92268946429E+03  0.00000000000E+00 0.  1.
         21   -1    0    0  501  502 -0.00000000000E+00 -0.00000000000E+00 -0.57867766952E+02  0.57867766952E+02  0.00000000000E+00 0.  1.
      99926    2    1    2    0    0  0.14210854715E-13  0.00000000000E+00  0.86482169734E+03  0.98055723124E+03  0.46214274370E+03 0.  0.
      99925    2    3    3    0    0 -0.11754264562E+03 -0.21269069682E+02  0.52195823023E+03  0.59653703381E+03  0.26295891642E+03 0.  0.
         25    1    4    4    0    0 -0.31706884115E+02 -0.12936325549E+02  0.17544143920E+03  0.21817397120E+03  0.12509000000E+03 0.  0.
         25    1    4    4    0    0 -0.85835761508E+02 -0.83327441333E+01  0.34651679104E+03  0.37836306261E+03  0.12509000000E+03 0.  0.
         25    1    3    3    0    0  0.11754264562E+03  0.21269069682E+02  0.34286346710E+03  0.38402019744E+03  0.12509000000E+03 0.  0.
<mgrwt>
<rscale>  2 0.46214274E+03</rscale>
<asrwt>0</asrwt>
<pdfrwt beam="1">  1       21 0.13568962E+00 0.46214274E+03</pdfrwt>
<pdfrwt beam="2">  1       21 0.85099663E-02 0.46214274E+03</pdfrwt>
<totfact> 0.37773840E+04</totfact>
</mgrwt>
</event>
<event>
 7    0  0.4737014E-002  0.4533054E+03  0.7546771E-02  0.1026741E+00
         21   -1    0    0  502  501  0.00000000000E+00  0.00000000000E+00  0.92999119215E+02  0.92999119215E+02  0.00000000000E+00 0. -1.
         21   -1    0    0  501  502 -0.00000000000E+00 -0.00000000000E+00 -0.55238643512E+03  0.55238643512E+03  0.00000000000E+00 0. -1.
      99926    2    1    2    0    0  0.71054273576E-14  0.00000000000E+00 -0.45938731590E+03  0.64538555433E+03  0.45330542433E+03 0.  0.
      99925    2    3    3    0    0  0.51414202229E+02  0.96807310622E+02 -0.32187642689E+03  0.42958048424E+03  0.26252596571E+03 0.  0.
         25    1    3    3    0    0 -0.51414202229E+02 -0.96807310622E+02 -0.13751088901E+03  0.21580507009E+03  0.12509000000E+03 0.  0.
         25    1    4    4    0    0  0.95951537350E+01  0.33559534410E+02 -0.10036880027E+03  0.16413321873E+03  0.12509000000E+03 0.  0.
         25    1    4    4    0    0  0.41819048494E+02  0.63247776212E+02 -0.22150762662E+03  0.26544726551E+03  0.12509000000E+03 0.  0.
<mgrwt>
<rscale>  2 0.45330542E+03</rscale>
<asrwt>0</asrwt>
<pdfrwt beam="1">  1       21 0.13676340E-01 0.45330542E+03</pdfrwt>
<pdfrwt beam="2">  1       21 0.81233304E-01 0.45330542E+03</pdfrwt>
<totfact> 0.56722712E+04</totfact>
</mgrwt>
</event>
<event>
 7    0  0.4737014E-002  0.4549607E+03  0.7546771E-02  0.1026253E+00
         21   -1    0    0  502  501  0.00000000000E+00  0.00000000000E+00  0.41895752062E+02  0.41895752062E+02  0.00000000000E+00 0. -1.
         21   -1    0    0  501  502 -0.00000000000E+00 -0.00000000000E+00 -0.12351443878E+04  0.12351443878E+04  0.00000000000E+00 0. -1.
      99926    2    1    2    0    0  0.00000000000E+00  0.00000000000E+00 -0.11932486357E+04  0.12770401398E+04  0.45496067096E+03 0.  0.
      99925    2    3    3    0    0  0.46186325397E+02 -0.10271043045E+03 -0.71940712750E+03  0.77419235752E+03  0.26295357416E+03 0.  0.
         25    1    3    3    0    0 -0.46186325397E+02  0.10271043045E+03 -0.47384150820E+03  0.50284778231E+03  0.12509000000E+03 0.  0.
         25    1    4    4    0    0 -0.99523971652E+01 -0.23373144754E+02 -0.31963448508E+03  0.34417882889E+03  0.12509000000E+03 0.  0.
         25    1    4    4    0    0  0.56138722563E+02 -0.79337285698E+02 -0.39977264242E+03  0.43001352862E+03  0.12509000000E+03 0.  0.
<mgrwt>
<rscale>  2 0.45496067E+03</rscale>
<asrwt>0</asrwt>
<pdfrwt beam="1">  1       21 0.61611401E-02 0.45496067E+03</pdfrwt>
<pdfrwt beam="2">  1       21 0.18163888E+00 0.45496067E+03</pdfrwt>
<totfact> 0.29798041E+04</totfact>
</mgrwt>
</event>
<event>
 7    0  0.4737014E-002  0.4763124E+03  0.7546771E-02  0.1020154E+00
         21   -1    0    0  502  501  0.00000000000E+00  0.00000000000E+00  0.10700737949E+03  0.10700737949E+03  0.00000000000E+00 0.  1.
         21   -1    0    0  501  502 -0.00000000000E+00 -0.00000000000E+00 -0.53004163550E+03  0.53004163550E+03  0.00000000000E+00 0.  1.
      99926    2    1    2    0    0  0.00000000000E+00  0.00000000000E+00 -0.42303425601E+03  0.63704901499E+03  0.47631236152E+03 0.  0.
      99925    2    3    3    0    0  0.52351048940E+02 -0.12142389903E+03 -0.26026197895E+03  0.39286318850E+03  0.26290833308E+03 0.  0.
         25    1    4    4    0    0 -0.12840006205E+02 -0.64268800460E+02 -0.14038123883E+03  0.19912243667E+03  0.12509000000E+03 0.  0.
         25    1    4    4    0    0  0.65191055145E+02 -0.57155098573E+02 -0.11988074012E+03  0.19374075182E+03  0.12509000000E+03 0.  0.
         25    1    3    3    0    0 -0.52351048940E+02  0.12142389903E+03 -0.16277227706E+03  0.24418582650E+03  0.12509000000E+03 0.  0.
<mgrwt>
<rscale>  2 0.47631236E+03</rscale>
<asrwt>0</asrwt>
<pdfrwt beam="1">  1       21 0.15736379E-01 0.47631236E+03</pdfrwt>
<pdfrwt beam="2">  1       21 0.77947300E-01 0.47631236E+03</pdfrwt>
<totfact> 0.47876645E+04</totfact>
</mgrwt>
</event>
<event>
 7    0  0.4737014E-002  0.4500836E+03  0.7546771E-02  0.1027697E+00
         21   -1    0    0  502  501  0.00000000000E+00  0.00000000000E+00  0.14047040486E+04  0.14047040486E+04  0.00000000000E+00 0.  1.
         21   -1    0    0  501  502 -0.00000000000E+00 -0.00000000000E+00 -0.36053015217E+02  0.36053015217E+02  0.00000000000E+00 0.  1.
      99926    2    1    2    0    0  0.35527136788E-14  0.00000000000E+00  0.13686510334E+04  0.14407570638E+04  0.45008362085E+03 0.  0.
      99925    2    3    3    0    0 -0.25695045127E+02  0.88451607920E+02  0.10476220748E+04  0.10841185597E+04  0.26328144167E+03 0.  0.
         25    1    4    4    0    0 -0.91311004344E+01  0.50347604265E+02  0.68688255764E+03  0.70005243685E+03  0.12509000000E+03 0.  0.
         25    1    4    4    0    0 -0.16563944692E+02  0.38104003655E+02  0.36073951720E+03  0.38406612286E+03  0.12509000000E+03 0.  0.
         25    1    3    3    0    0  0.25695045127E+02 -0.88451607920E+02  0.32102895854E+03  0.35663850410E+03  0.12509000000E+03 0.  0.
<mgrwt>
<rscale>  2 0.45008362E+03</rscale>
<asrwt>0</asrwt>
<pdfrwt beam="1">  1       21 0.20657409E+00 0.45008362E+03</pdfrwt>
<pdfrwt beam="2">  1       21 0.53019149E-02 0.45008362E+03</pdfrwt>
<totfact> 0.26254559E+04</totfact>
</mgrwt>
</event>
<event>
 7    0  0.4737014E-002  0.4568427E+03  0.7546771E-02  0.1025701E+00
         21   -1    0    0  502  501  0.00000000000E+00  0.00000000000E+00  0.14657228338E+03  0.14657228338E+03  0.00000000000E+00 0. -1.
         21   -1    0    0  501  502 -0.00000000000E+00 -0.00000000000E+00 -0.35597667867E+03  0.35597667867E+03  0.00000000000E+00 0. -1.
      99926    2    1    2    0    0  0.00000000000E+00  0.14210854715E-13 -0.20940439529E+03  0.50254896205E+03  0.45684270651E+03 0.  0.
      99925    2    3    3    0    0  0.71088356869E+02 -0.83495252271E+02 -0.93473960482E+02  0.29978706856E+03  0.26288760632E+03 0.  0.
         25    1    4    4    0    0  0.56806693431E+02 -0.16353898394E+02 -0.21632998409E+02  0.14003551382E+03  0.12509000000E+03 0.  0.
         25    1    3    3    0    0 -0.71088356869E+02  0.83495252271E+02 -0.11593043481E+03  0.20276189349E+03  0.12509000000E+03 0.  0.
         25    1    4    4    0    0  0.14281663438E+02 -0.67141353877E+02 -0.71840962073E+02  0.15975155474E+03  0.12509000000E+03 0.  0.
<mgrwt>
<rscale>  2 0.45684271E+03</rscale>
<asrwt>0</asrwt>
<pdfrwt beam="1">  1       21 0.21554748E-01 0.45684271E+03</pdfrwt>
<pdfrwt beam="2">  1       21 0.52349511E-01 0.45684271E+03</pdfrwt>
<totfact> 0.64148503E+04</totfact>
</mgrwt>
</event>
<event>
 7    0  0.4737014E-002  0.4551701E+03  0.7546771E-02  0.1026191E+00
         21   -1    0    0  502  501  0.00000000000E+00  0.00000000000E+00  0.79458416683E+03  0.79458416683E+03  0.00000000000E+00 0. -1.
         21   -1    0    0  501  502 -0.00000000000E+00 -0.00000000000E+00 -0.65184969789E+02  0.65184969789E+02  0.00000000000E+00 0. -1.
      99926    2    1    2    0    0  0.00000000000E+00  0.00000000000E+00  0.72939919704E+03  0.85976913662E+03  0.45517005573E+03 0.  0.
      99925    2    3    3    0    0 -0.10726277251E+03  0.31461093745E+02  0.49429748502E+03  0.57095184856E+03  0.26298461341E+03 0.  0.
         25    1    4    4    0    0 -0.84615308011E+02 -0.97171117047E+01  0.28366697128E+03  0.32150992412E+03  0.12509000000E+03 0.  0.
         25    1    4    4    0    0 -0.22647464497E+02  0.41178205450E+02  0.21063051374E+03  0.24944192445E+03  0.12509000000E+03 0.  0.
         25    1    3    3    0    0  0.10726277251E+03 -0.31461093745E+02  0.23510171201E+03  0.28881728805E+03  0.12509000000E+03 0.  0.
<mgrwt>
<rscale>  2 0.45517006E+03</rscale>
<asrwt>0</asrwt>
<pdfrwt beam="1">  1       21 0.11685061E+00 0.45517006E+03</pdfrwt>
<pdfrwt beam="2">  1       21 0.95860255E-02 0.45517006E+03</pdfrwt>
<totfact> 0.44945475E+04</totfact>
</mgrwt>
</event>
<event>
 7    0  0.4737014E-002  0.4637826E+03  0.7546771E-02  0.1023690E+00
         21   -1    0    0  502  501  0.00000000000E+00  0.00000000000E+00  0.65857203370E+03  0.65857203370E+03  0.00000000000E+00 0. -1.
         21   -1    0    0  501  502 -0.00000000000E+00 -0.00000000000E+00 -0.81651759535E+02  0.81651759535E+02  0.00000000000E+00 0. -1.
      99926    2    1    2    0    0  0.14210854715E-13  0.17763568394E-14  0.57692027416E+03  0.74022379323E+03  0.46378255824E+03 0.  0.
      99925    2    3    3    0    0 -0.78826908717E+02 -0.14394041492E+02  0.21430348980E+03  0.34835734868E+03  0.26268990591E+03 0.  0.
         25    1    4    4    0    0 -0.50709941114E+02  0.19969135634E+02  0.14311467385E+03  0.19773614358E+03  0.12509000000E+03 0.  0.
         25    1    4    4    0    0 -0.28116967603E+02 -0.34363177126E+02  0.71188815952E+02  0.15062120510E+03  0.12509000000E+03 0.  0.
         25    1    3    3    0    0  0.78826908717E+02  0.14394041492E+02  0.36261678436E+03  0.39186644455E+03  0.12509000000E+03 0.  0.
<mgrwt>
<rscale>  2 0.46378256E+03</rscale>
<asrwt>0</asrwt>
<pdfrwt beam="1">  1       21 0.96848826E-01 0.46378256E+03</pdfrwt>
<pdfrwt beam="2">  1       21 0.12007612E-01 0.46378256E+03</pdfrwt>
<totfact> 0.47413439E+04</totfact>
</mgrwt>
</event>
<event>
 6    0  0.4737014E-002  0.4546673E+03  0.7546771E-02  0.1026339E+00
         21   -1    0    0  502  501  0.00000000000E+00  0.00000000000E+00  0.16176742766E+03  0.16176742766E+03  0.00000000000E+00 0.  1.
         21   -1    0    0  501  502 -0.00000000000E+00 -0.00000000000E+00 -0.31947465736E+03  0.31947465736E+03  0.00000000000E+00 0.  1.
      99926    2    1    2    0    0  0.00000000000E+00  0.00000000000E+00 -0.15770722970E+03  0.48124208501E+03  0.45466732243E+03 0.  0.
         25    1    3    3    0    0 -0.98368781040E+02 -0.43663011927E+02 -0.87228724301E+02  0.18665270996E+03  0.12509000000E+03 0.  0.
         25    1    3    3    0    0  0.34506188090E+02  0.34066637013E+02 -0.75077151383E+02  0.15373776222E+03  0.12509000000E+03 0.  0.
         25    1    3    3    0    0  0.63862592949E+02  0.95963749140E+01  0.45986459843E+01  0.14085161282E+03  0.12509000000E+03 0.  0.
<mgrwt>
<rscale>  2 0.45466732E+03</rscale>
<asrwt>0</asrwt>
<pdfrwt beam="1">  1       21 0.23789328E-01 0.45466732E+03</pdfrwt>
<pdfrwt beam="2">  1       21 0.46981567E-01 0.45466732E+03</pdfrwt>
<totfact> 0.66785985E+04</totfact>
</mgrwt>
</event>
<event>
 7    0  0.4737014E-002  0.4528586E+03  0.7546771E-02  0.1026873E+00
         21   -1    0    0  502  501  0.00000000000E+00  0.00000000000E+00  0.42590761466E+03  0.42590761466E+03  0.00000000000E+00 0. -1.
         21   -1    0    0  501  502 -0.00000000000E+00 -0.00000000000E+00 -0.12037876384E+03  0.12037876384E+03  0.00000000000E+00 0. -1.
      99926    2    1    2    0    0  0.00000000000E+00 -0.35527136788E-14  0.30552885083E+03  0.54628637850E+03  0.45285861883E+03 0.  0.
      99925    2    3    3    0    0 -0.78375717149E+02  0.92417552723E+01  0.28708411659E+03  0.39723645599E+03  0.26296644061E+03 0.  0.
         25    1    3    3    0    0  0.78375717149E+02 -0.92417552723E+01  0.18444734238E+02  0.14904992251E+03  0.12509000000E+03 0.  0.
         25    1    4    4    0    0 -0.33938301252E+02 -0.34812686144E+02  0.15231920125E+03  0.20300832145E+03  0.12509000000E+03 0.  0.
         25    1    4    4    0    0 -0.44437415897E+02  0.44054441416E+02  0.13476491533E+03  0.19422813454E+03  0.12509000000E+03 0.  0.
<mgrwt>
<rscale>  2 0.45285862E+03</rscale>
<asrwt>0</asrwt>
<pdfrwt beam="1">  1       21 0.62633472E-01 0.45285862E+03</pdfrwt>
<pdfrwt beam="2">  1       21 0.17702760E-01 0.45285862E+03</pdfrwt>
<totfact> 0.63176249E+04</totfact>
</mgrwt>
</event>
<event>
 7    0  0.4737014E-002  0.4473580E+03  0.7546771E-02  0.1028513E+00
         21   -1    0    0  502  501  0.00000000000E+00  0.00000000000E+00  0.33589388744E+03  0.33589388744E+03  0.00000000000E+00 0. -1.
         21   -1    0    0  501  502 -0.00000000000E+00 -0.00000000000E+00 -0.14895266012E+03  0.14895266012E+03  0.00000000000E+00 0. -1.
      99926    2    1    2    0    0  0.00000000000E+00  0.00000000000E+00  0.18694122732E+03  0.48484654756E+03  0.44735796875E+03 0.  0.
      99925    2    3    3    0    0 -0.94838166880E+01 -0.10361907879E+03  0.99641083463E+02  0.30019639325E+03  0.26336794175E+03 0.  0.
         25    1    4    4    0    0  0.12273773171E+02 -0.24942693536E+02  0.75956534790E+02  0.14896203122E+03  0.12509000000E+03 0.  0.
         25    1    3    3    0    0  0.94838166880E+01  0.10361907879E+03  0.87300143860E+02  0.18465015431E+03  0.12509000000E+03 0.  0.
         25    1    4    4    0    0 -0.21757589859E+02 -0.78676385251E+02  0.23684548673E+02  0.15123436203E+03  0.12509000000E+03 0.  0.
<mgrwt>
<rscale>  2 0.44735797E+03</rscale>
<asrwt>0</asrwt>
<pdfrwt beam="1">  1       21 0.49396160E-01 0.44735797E+03</pdfrwt>
<pdfrwt beam="2">  1       21 0.21904803E-01 0.44735797E+03</pdfrwt>
<totfact> 0.70531798E+04</totfact>
</mgrwt>
</event>
<event>
 7    0  0.4737014E-002  0.4519068E+03  0.7546771E-02  0.1027155E+00
         21   -1    0    0  502  501  0.00000000000E+00  0.00000000000E+00  0.13087444249E+04  0.13087444249E+04  0.00000000000E+00 0.  1.
         21   -1    0    0  501  502 -0.00000000000E+00 -0.00000000000E+00 -0.39010619978E+02  0.39010619978E+02  0.00000000000E+00 0.  1.
      99926    2    1    2    0    0 -0.14210854715E-13  0.00000000000E+00  0.12697338049E+04  0.13477550449E+04  0.45190676652E+03 0.  0.
      99925    2    3    3    0    0  0.10607874688E+03  0.19901109757E+02  0.73284406353E+03  0.78601946898E+03  0.26290193887E+03 0.  0.
         25    1    4    4    0    0  0.85773624807E+02  0.97403090849E+01  0.32423612740E+03  0.35809016007E+03  0.12509000000E+03 0.  0.
         25    1    3    3    0    0 -0.10607874688E+03 -0.19901109757E+02  0.53688974138E+03  0.56173557588E+03  0.12509000000E+03 0.  0.
         25    1    4    4    0    0  0.20305122075E+02  0.10160800673E+02  0.40860793613E+03  0.42792930891E+03  0.12509000000E+03 0.  0.
<mgrwt>
<rscale>  2 0.45190677E+03</rscale>
<asrwt>0</asrwt>
<pdfrwt beam="1">  1       21 0.19246239E+00 0.45190677E+03</pdfrwt>
<pdfrwt beam="2">  1       21 0.57368567E-02 0.45190677E+03</pdfrwt>
<totfact> 0.28435699E+04</totfact>
</mgrwt>
</event>
<event>
 7    0  0.4737014E-002  0.4539849E+03  0.7546771E-02  0.1026540E+00
         21   -1    0    0  502  501  0.00000000000E+00  0.00000000000E+00  0.22800215960E+04  0.22800215960E+04  0.00000000000E+00 0.  1.
         21   -1    0    0  501  502 -0.00000000000E+00 -0.00000000000E+00 -0.22598719462E+02  0.22598719462E+02  0.00000000000E+00 0.  1.
      99926    2    1    2    0    0  0.00000000000E+00  0.00000000000E+00  0.22574228765E+04  0.23026203155E+04  0.45398488263E+03 0.  0.
      99925    2    3    3    0    0  0.28235852340E+02 -0.97633842400E+02  0.11806047144E+04  0.12138069738E+04  0.26300237162E+03 0.  0.
         25    1    4    4    0    0 -0.18395716984E+02 -0.70336712677E+02  0.65924539698E+03  0.67493529845E+03  0.12509000000E+03 0.  0.
         25    1    3    3    0    0 -0.28235852340E+02  0.97633842400E+02  0.10768181622E+04  0.10888133417E+04  0.12509000000E+03 0.  0.
         25    1    4    4    0    0  0.46631569325E+02 -0.27297129723E+02  0.52135931738E+03  0.53887167532E+03  0.12509000000E+03 0.  0.
<mgrwt>
<rscale>  2 0.45398488E+03</rscale>
<asrwt>0</asrwt>
<pdfrwt beam="1">  1       21 0.33529714E+00 0.45398488E+03</pdfrwt>
<pdfrwt beam="2">  1       21 0.33233426E-02 0.45398488E+03</pdfrwt>
<totfact> 0.94425616E+03</totfact>
</mgrwt>
</event>
<event>
 7    0  0.4737014E-002  0.3989231E+03  0.7546771E-02  0.1044153E+00
         21   -1    0    0  502  501  0.00000000000E+00  0.00000000000E+00  0.22124370247E+03  0.22124370247E+03  0.00000000000E+00 0. -1.
         21   -1    0    0  501  502 -0.00000000000E+00 -0.00000000000E+00 -0.17982393594E+03  0.17982393594E+03  0.00000000000E+00 0. -1.
      99926    2    1    2    0    0  0.00000000000E+00  0.00000000000E+00  0.41419766524E+02  0.40106763841E+03  0.39892311731E+03 0.  0.
      99925    2    3    3    0    0 -0.22173342051E+02 -0.13393107915E+02  0.62696650895E+02  0.27156379157E+03  0.26295435046E+03 0.  0.
         25    1    4    4    0    0 -0.17471380425E+02  0.16734027504E+01  0.71548896620E+02  0.14517162987E+03  0.12509000000E+03 0.  0.
         25    1    3    3    0    0  0.22173342051E+02  0.13393107915E+02 -0.21276884371E+02  0.12950384684E+03  0.12509000000E+03 0.  0.
         25    1    4    4    0    0 -0.47019616260E+01 -0.15066510665E+02 -0.88522457256E+01  0.12639216171E+03  0.12509000000E+03 0.  0.
<mgrwt>
<rscale>  2 0.39892312E+03</rscale>
<asrwt>0</asrwt>
<pdfrwt beam="1">  1       21 0.32535839E-01 0.39892312E+03</pdfrwt>
<pdfrwt beam="2">  1       21 0.26444697E-01 0.39892312E+03</pdfrwt>
<totfact> 0.11685362E+05</totfact>
</mgrwt>
</event>
<event>
 7    0  0.4737014E-002  0.4494341E+03  0.7546771E-02  0.1027891E+00
         21   -1    0    0  502  501  0.00000000000E+00  0.00000000000E+00  0.12430094115E+04  0.12430094115E+04  0.00000000000E+00 0.  1.
         21   -1    0    0  501  502 -0.00000000000E+00 -0.00000000000E+00 -0.40625392008E+02  0.40625392008E+02  0.00000000000E+00 0.  1.
      99926    2    1    2    0    0  0.00000000000E+00  0.00000000000E+00  0.12023840195E+04  0.12836348035E+04  0.44943406463E+03 0.  0.
      99925    2    3    3    0    0 -0.87615061194E+02  0.63100254110E+02  0.74618277889E+03  0.79842853702E+03  0.26275720389E+03 0.  0.
         25    1    3    3    0    0  0.87615061194E+02 -0.63100254110E+02  0.45620124064E+03  0.48520626652E+03  0.12509000000E+03 0.  0.
         25    1    4    4    0    0 -0.74938214777E+02  0.61161039308E+02  0.43063236842E+03  0.45874628455E+03  0.12509000000E+03 0.  0.
         25    1    4    4    0    0 -0.12676846417E+02  0.19392148020E+01  0.31555041047E+03  0.33968225246E+03  0.12509000000E+03 0.  0.
<mgrwt>
<rscale>  2 0.44943406E+03</rscale>
<asrwt>0</asrwt>
<pdfrwt beam="1">  1       21 0.18279548E+00 0.44943406E+03</pdfrwt>
<pdfrwt beam="2">  1       21 0.59743232E-02 0.44943406E+03</pdfrwt>
<totfact> 0.30910465E+04</totfact>
</mgrwt>
</event>
<event>
 7    0  0.4737014E-002  0.4647500E+03  0.7546771E-02  0.1023413E+00
         21   -1    0    0  502  501  0.00000000000E+00  0.00000000000E+00  0.52603062335E+03  0.52603062335E+03  0.00000000000E+00 0.  1.
         21   -1    0    0  501  502 -0.00000000000E+00 -0.00000000000E+00 -0.10265210164E+03  0.10265210164E+03  0.00000000000E+00 0.  1.
      99926    2    1    2    0    0  0.00000000000E+00  0.17763568394E-14  0.42337852171E+03  0.62868272499E+03  0.46475003610E+03 0.  0.
      99925    2    3    3    0    0  0.11924640467E+03  0.12972491615E+02  0.29513849420E+03  0.41308819045E+03  0.26295842213E+03 0.  0.
         25    1    4    4    0    0  0.51184338081E+02  0.44975810997E+02  0.13224221368E+03  0.19436607528E+03  0.12509000000E+03 0.  0.
         25    1    4    4    0    0  0.68062066591E+02 -0.32003319383E+02  0.16289628052E+03  0.21872211518E+03  0.12509000000E+03 0.  0.
         25    1    3    3    0    0 -0.11924640467E+03 -0.12972491615E+02  0.12824002751E+03  0.21559453453E+03  0.12509000000E+03 0.  0.
<mgrwt>
<rscale>  2 0.46475004E+03</rscale>
<asrwt>0</asrwt>
<pdfrwt beam="1">  1       21 0.77357444E-01 0.46475004E+03</pdfrwt>
<pdfrwt beam="2">  1       21 0.15095897E-01 0.46475004E+03</pdfrwt>
<totfact> 0.52766071E+04</totfact>
</mgrwt>
</event>
<event>
 7    0  0.4737014E-002  0.4592556E+03  0.7546771E-02  0.1024997E+00
         21   -1    0    0  502  501  0.00000000000E+00  0.00000000000E+00  0.60304636641E+03  0.60304636641E+03  0.00000000000E+00 0. -1.
         21   -1    0    0  501  502 -0.00000000000E+00 -0.00000000000E+00 -0.87437594679E+02  0.87437594679E+02  0.00000000000E+00 0. -1.
      99926    2    1    2    0    0  0.00000000000E+00  0.00000000000E+00  0.51560877173E+03  0.69048396109E+03  0.45925558792E+03 0.  0.
      99925    2    3    3    0    0  0.64036847581E+02 -0.95470274788E+02  0.35647375300E+03  0.45770347758E+03  0.26306585790E+03 0.  0.
         25    1    3    3    0    0 -0.64036847581E+02  0.95470274788E+02  0.15913501873E+03  0.23278048351E+03  0.12509000000E+03 0.  0.
         25    1    4    4    0    0 -0.22505730041E+01 -0.66370997481E+02  0.19488474001E+03  0.24091024132E+03  0.12509000000E+03 0.  0.
         25    1    4    4    0    0  0.66287420585E+02 -0.29099277307E+02  0.16158901299E+03  0.21679323625E+03  0.12509000000E+03 0.  0.
<mgrwt>
<rscale>  2 0.45925559E+03</rscale>
<asrwt>0</asrwt>
<pdfrwt beam="1">  1       21 0.88683287E-01 0.45925559E+03</pdfrwt>
<pdfrwt beam="2">  1       21 0.12858470E-01 0.45925559E+03</pdfrwt>
<totfact> 0.51669944E+04</totfact>
</mgrwt>
</event>
<event>
 7    0  0.4737014E-002  0.4583188E+03  0.7546771E-02  0.1025270E+00
         21   -1    0    0  502  501  0.00000000000E+00  0.00000000000E+00  0.58289147876E+03  0.58289147876E+03  0.00000000000E+00 0.  1.
         21   -1    0    0  501  502 -0.00000000000E+00 -0.00000000000E+00 -0.90092312133E+02  0.90092312133E+02  0.00000000000E+00 0.  1.
      99926    2    1    2    0    0  0.00000000000E+00  0.00000000000E+00  0.49279916663E+03  0.67298379090E+03  0.45831884554E+03 0.  0.
      99925    2    3    3    0    0 -0.50633656581E+02 -0.58349017574E+02  0.43675683770E+03  0.51564140702E+03  0.26298507625E+03 0.  0.
         25    1    3    3    0    0  0.50633656581E+02  0.58349017574E+02  0.56042328935E+02  0.15734238387E+03  0.12509000000E+03 0.  0.
         25    1    4    4    0    0 -0.49500847410E+02 -0.34814053932E+02  0.28860748328E+03  0.32031880955E+03  0.12509000000E+03 0.  0.
         25    1    4    4    0    0 -0.11328091701E+01 -0.23534963642E+02  0.14814935441E+03  0.19532259747E+03  0.12509000000E+03 0.  0.
<mgrwt>
<rscale>  2 0.45831885E+03</rscale>
<asrwt>0</asrwt>
<pdfrwt beam="1">  1       21 0.85719333E-01 0.45831885E+03</pdfrwt>
<pdfrwt beam="2">  1       21 0.13248870E-01 0.45831885E+03</pdfrwt>
<totfact> 0.52994665E+04</totfact>
</mgrwt>
</event>
<event>
 7    0  0.4737014E-002  0.4619543E+03  0.7546771E-02  0.1024216E+00
         21   -1    0    0  502  501  0.00000000000E+00  0.00000000000E+00  0.25275921101E+03  0.25275921101E+03  0.00000000000E+00 0. -1.
         21   -1    0    0  501  502 -0.00000000000E+00 -0.00000000000E+00 -0.21107222401E+03  0.21107222401E+03  0.00000000000E+00 0. -1.
      99926    2    1    2    0    0 -0.17763568394E-14 -0.14210854715E-13  0.41686986998E+02  0.46383143502E+03  0.46195432158E+03 0.  0.
      99925    2    3    3    0    0 -0.10586589087E+02 -0.92712927621E+02 -0.48988287958E+02  0.28333967231E+03  0.26300903926E+03 0.  0.
         25    1    4    4    0    0 -0.28762586118E+02 -0.71168654881E+02 -0.50185613772E+02  0.15510760048E+03  0.12509000000E+03 0.  0.
         25    1    4    4    0    0  0.18175997031E+02 -0.21544272740E+02  0.11973258142E+01  0.12823207183E+03  0.12509000000E+03 0.  0.
         25    1    3    3    0    0  0.10586589087E+02  0.92712927621E+02  0.90675274956E+02  0.18049176271E+03  0.12509000000E+03 0.  0.
<mgrwt>
<rscale>  2 0.46195432E+03</rscale>
<asrwt>0</asrwt>
<pdfrwt beam="1">  1       21 0.37170472E-01 0.46195432E+03</pdfrwt>
<pdfrwt beam="2">  1       21 0.31040033E-01 0.46195432E+03</pdfrwt>
<totfact> 0.64263190E+04</totfact>
</mgrwt>
</event>
<event>
 7    0  0.4737014E-002  0.4549959E+03  0.7546771E-02  0.1026243E+00
         21   -1    0    0  502  501  0.00000000000E+00  0.00000000000E+00  0.54337923971E+02  0.54337923971E+02  0.00000000000E+00 0.  1.
         21   -1    0    0  501  502 -0.00000000000E+00 -0.00000000000E+00 -0.95247153158E+03  0.95247153158E+03  0.00000000000E+00 0.  1.
      99926    2    1    2    0    0  0.00000000000E+00  0.00000000000E+00 -0.89813360761E+03  0.10068094556E+04  0.45499593698E+03 0.  0.
      99925    2    3    3    0    0 -0.14347732869E+02 -0.36154643585E+02 -0.33013135224E+03  0.42389686700E+03  0.26303769393E+03 0.  0.
         25    1    3    3    0    0  0.14347732869E+02  0.36154643585E+02 -0.56800225537E+03  0.58291258856E+03  0.12509000000E+03 0.  0.
         25    1    4    4    0    0  0.12961885907E+02  0.34183735321E+01 -0.11504587970E+03  0.17047802879E+03  0.12509000000E+03 0.  0.
         25    1    4    4    0    0 -0.27309618775E+02 -0.39573017118E+02 -0.21508547254E+03  0.25341883821E+03  0.12509000000E+03 0.  0.
<mgrwt>
<rscale>  2 0.45499594E+03</rscale>
<asrwt>0</asrwt>
<pdfrwt beam="1">  1       21 0.79908715E-02 0.45499594E+03</pdfrwt>
<pdfrwt beam="2">  1       21 0.14006934E+00 0.45499594E+03</pdfrwt>
<totfact> 0.38904208E+04</totfact>
</mgrwt>
</event>
<event>
 7    0  0.4737014E-002  0.4548852E+03  0.7546771E-02  0.1026275E+00
         21   -1    0    0  502  501  0.00000000000E+00  0.00000000000E+00  0.89377273643E+02  0.89377273643E+02  0.00000000000E+00 0.  1.
         21   -1    0    0  501  502 -0.00000000000E+00 -0.00000000000E+00 -0.57878404192E+03  0.57878404192E+03  0.00000000000E+00 0.  1.
      99926    2    1    2    0    0  0.00000000000E+00  0.00000000000E+00 -0.48940676827E+03  0.66816131556E+03  0.45488521495E+03 0.  0.
      99925    2    3    3    0    0  0.35618445440E+01 -0.10297196806E+03 -0.23983991867E+03  0.37059277982E+03  0.26305875565E+03 0.  0.
         25    1    4    4    0    0 -0.62837195182E+01 -0.86814690180E+01 -0.10834464323E+03  0.16583402200E+03  0.12509000000E+03 0.  0.
         25    1    3    3    0    0 -0.35618445440E+01  0.10297196806E+03 -0.24956684960E+03  0.29756853574E+03  0.12509000000E+03 0.  0.
         25    1    4    4    0    0  0.98455640622E+01 -0.94290499042E+02 -0.13149527544E+03  0.20475875782E+03  0.12509000000E+03 0.  0.
<mgrwt>
<rscale>  2 0.45488521E+03</rscale>
<asrwt>0</asrwt>
<pdfrwt beam="1">  1       21 0.13143717E-01 0.45488521E+03</pdfrwt>
<pdfrwt beam="2">  1       21 0.85115300E-01 0.45488521E+03</pdfrwt>
<totfact> 0.54715380E+04</totfact>
</mgrwt>
</event>
<event>
 7    0  0.4737014E-002  0.4520559E+03  0.7546771E-02  0.1027111E+00
         21   -1    0    0  502  501  0.00000000000E+00  0.00000000000E+00  0.96908648161E+02  0.96908648161E+02  0.00000000000E+00 0.  1.
         21   -1    0    0  501  502 -0.00000000000E+00 -0.00000000000E+00 -0.52718343676E+03  0.52718343676E+03  0.00000000000E+00 0.  1.
      99926    2    1    2    0    0  0.00000000000E+00  0.17763568394E-14 -0.43027478860E+03  0.62409208492E+03  0.45205590004E+03 0.  0.
      99925    2    3    3    0    0 -0.52550012878E+02 -0.10213639237E+02 -0.13860143297E+03  0.30224324344E+03  0.26320106137E+03 0.  0.
         25    1    4    4    0    0  0.10449628901E+02 -0.20633496160E+02 -0.53321107333E+02  0.13793326102E+03  0.12509000000E+03 0.  0.
         25    1    4    4    0    0 -0.62999641779E+02  0.10419856922E+02 -0.85280325641E+02  0.16430998242E+03  0.12509000000E+03 0.  0.
         25    1    3    3    0    0  0.52550012878E+02  0.10213639237E+02 -0.29167335563E+03  0.32184884148E+03  0.12509000000E+03 0.  0.
<mgrwt>
<rscale>  2 0.45205590E+03</rscale>
<asrwt>0</asrwt>
<pdfrwt beam="1">  1       21 0.14251272E-01 0.45205590E+03</pdfrwt>
<pdfrwt beam="2">  1       21 0.77526976E-01 0.45205590E+03</pdfrwt>
<totfact> 0.58568905E+04</totfact>
</mgrwt>
</event>
<event>
 7    0  0.4737014E-002  0.4598544E+03  0.7546771E-02  0.1024823E+00
         21   -1    0    0  502  501  0.00000000000E+00  0.00000000000E+00  0.11215957066E+04  0.11215957066E+04  0.00000000000E+00 0. -1.
         21   -1    0    0  501  502 -0.00000000000E+00 -0.00000000000E+00 -0.47135095821E+02  0.47135095821E+02  0.00000000000E+00 0. -1.
      99926    2    1    2    0    0  0.00000000000E+00  0.00000000000E+00  0.10744606108E+04  0.11687308025E+04  0.45985441655E+03 0.  0.
      99925    2    3    3    0    0  0.16455406084E+02 -0.10786426991E+03  0.56062797378E+03  0.62875212872E+03  0.26290689087E+03 0.  0.
         25    1    3    3    0    0 -0.16455406084E+02  0.10786426991E+03  0.51383263704E+03  0.53997867375E+03  0.12509000000E+03 0.  0.
         25    1    4    4    0    0  0.21770150096E+02 -0.94729789590E+02  0.32768353666E+03  0.36396659293E+03  0.12509000000E+03 0.  0.
         25    1    4    4    0    0 -0.53147440112E+01 -0.13134480319E+02  0.23294443712E+03  0.26478553579E+03  0.12509000000E+03 0.  0.
<mgrwt>
<rscale>  2 0.45985442E+03</rscale>
<asrwt>0</asrwt>
<pdfrwt beam="1">  1       21 0.16494053E+00 0.45985442E+03</pdfrwt>
<pdfrwt beam="2">  1       21 0.69316325E-02 0.45985442E+03</pdfrwt>
<totfact> 0.31937789E+04</totfact>
</mgrwt>
</event>
<event>
 7    0  0.4737014E-002  0.4675429E+03  0.7546771E-02  0.1022616E+00
         21   -1    0    0  502  501  0.00000000000E+00  0.00000000000E+00  0.29666781315E+03  0.29666781315E+03  0.00000000000E+00 0. -1.
         21   -1    0    0  501  502 -0.00000000000E+00 -0.00000000000E+00 -0.18420974451E+03  0.18420974451E+03  0.00000000000E+00 0. -1.
      99926    2    1    2    0    0  0.00000000000E+00  0.00000000000E+00  0.11245806864E+03  0.48087755767E+03  0.46754294804E+03 0.  0.
      99925    2    3    3    0    0  0.11989081647E+03  0.31890193438E+02  0.80374908703E+02  0.30180318886E+03  0.26312401363E+03 0.  0.
         25    1    3    3    0    0 -0.11989081647E+03 -0.31890193438E+02  0.32083159935E+02  0.17907436880E+03  0.12509000000E+03 0.  0.
         25    1    4    4    0    0  0.44143651908E+02 -0.20045171592E+02  0.21721330897E+02  0.13590362476E+03  0.12509000000E+03 0.  0.
         25    1    4    4    0    0  0.75747164558E+02  0.51935365030E+02  0.58653577806E+02  0.16589956410E+03  0.12509000000E+03 0.  0.
<mgrwt>
<rscale>  2 0.46754295E+03</rscale>
<asrwt>0</asrwt>
<pdfrwt beam="1">  1       21 0.43627619E-01 0.46754295E+03</pdfrwt>
<pdfrwt beam="2">  1       21 0.27089668E-01 0.46754295E+03</pdfrwt>
<totfact> 0.60397488E+04</totfact>
</mgrwt>
</event>
<event>
 7    0  0.4737014E-002  0.4629276E+03  0.7546771E-02  0.1023936E+00
         21   -1    0    0  502  501  0.00000000000E+00  0.00000000000E+00  0.87661046736E+02  0.87661046736E+02  0.00000000000E+00 0.  1.
         21   -1    0    0  501  502 -0.00000000000E+00 -0.00000000000E+00 -0.61116642746E+03  0.61116642746E+03  0.00000000000E+00 0.  1.
      99926    2    1    2    0    0  0.00000000000E+00  0.00000000000E+00 -0.52350538073E+03  0.69882747420E+03  0.46292759158E+03 0.  0.
      99925    2    3    3    0    0  0.11989596872E+03  0.10616042590E+02 -0.33058550723E+03  0.43930227433E+03  0.26308167357E+03 0.  0.
         25    1    4    4    0    0  0.50402903519E+02  0.35857486656E+00 -0.22048148624E+03  0.25845729847E+03  0.12509000000E+03 0.  0.
         25    1    4    4    0    0  0.69493065202E+02  0.10257467723E+02 -0.11010402099E+03  0.18084497586E+03  0.12509000000E+03 0.  0.
         25    1    3    3    0    0 -0.11989596872E+03 -0.10616042590E+02 -0.19291987350E+03  0.25952519987E+03  0.12509000000E+03 0.  0.
<mgrwt>
<rscale>  2 0.46292759E+03</rscale>
<asrwt>0</asrwt>
<pdfrwt beam="1">  1       21 0.12891331E-01 0.46292759E+03</pdfrwt>
<pdfrwt beam="2">  1       21 0.89877415E-01 0.46292759E+03</pdfrwt>
<totfact> 0.49786865E+04</totfact>
</mgrwt>
</event>
<event>
 7    0  0.4737014E-002  0.4577571E+03  0.7546771E-02  0.1025434E+00
         21   -1    0    0  502  501  0.00000000000E+00  0.00000000000E+00  0.77823110992E+02  0.77823110992E+02  0.00000000000E+00 0. -1.
         21   -1    0    0  501  502 -0.00000000000E+00 -0.00000000000E+00 -0.67313413863E+03  0.67313413863E+03  0.00000000000E+00 0. -1.
      99926    2    1    2    0    0  0.00000000000E+00  0.00000000000E+00 -0.59531102764E+03  0.75095724962E+03  0.45775710932E+03 0.  0.
      99925    2    3    3    0    0 -0.87976789183E+02 -0.74138594057E+02 -0.35265750276E+03  0.45470619427E+03  0.26297140964E+03 0.  0.
         25    1    4    4    0    0 -0.60361679455E+02 -0.90057501174E+01 -0.21207742122E+03  0.25367100065E+03  0.12509000000E+03 0.  0.
         25    1    3    3    0    0  0.87976789183E+02  0.74138594057E+02 -0.24265352488E+03  0.29625105536E+03  0.12509000000E+03 0.  0.
         25    1    4    4    0    0 -0.27615109728E+02 -0.65132843940E+02 -0.14058008154E+03  0.20103519362E+03  0.12509000000E+03 0.  0.
<mgrwt>
<rscale>  2 0.45775711E+03</rscale>
<asrwt>0</asrwt>
<pdfrwt beam="1">  1       21 0.11444575E-01 0.45775711E+03</pdfrwt>
<pdfrwt beam="2">  1       21 0.98990312E-01 0.45775711E+03</pdfrwt>
<totfact> 0.49148413E+04</totfact>
</mgrwt>
</event>
<event>
 7    0  0.4737014E-002  0.4507409E+03  0.7546771E-02  0.1027501E+00
         21   -1    0    0  502  501  0.00000000000E+00  0.00000000000E+00  0.56452952972E+03  0.56452952972E+03  0.00000000000E+00 0.  1.
         21   -1    0    0  501  502 -0.00000000000E+00 -0.00000000000E+00 -0.89971966186E+02  0.89971966186E+02  0.00000000000E+00 0.  1.
      99926    2    1    2    0    0  0.14210854715E-13  0.00000000000E+00  0.47455756353E+03  0.65450149590E+03  0.45074086462E+03 0.  0.
      99925    2    3    3    0    0 -0.75956970571E+02  0.77190037577E+02  0.27963668572E+03  0.39882705450E+03  0.26294216117E+03 0.  0.
         25    1    3    3    0    0  0.75956970571E+02 -0.77190037577E+02  0.19492087781E+03  0.25567444140E+03  0.12509000000E+03 0.  0.
         25    1    4    4    0    0 -0.10473205615E+02  0.46294864380E+02  0.93785176666E+02  0.16338932023E+03  0.12509000000E+03 0.  0.
         25    1    4    4    0    0 -0.65483764955E+02  0.30895173197E+02  0.18585150906E+03  0.23543773427E+03  0.12509000000E+03 0.  0.
<mgrwt>
<rscale>  2 0.45074086E+03</rscale>
<asrwt>0</asrwt>
<pdfrwt beam="1">  1       21 0.83019047E-01 0.45074086E+03</pdfrwt>
<pdfrwt beam="2">  1       21 0.13231172E-01 0.45074086E+03</pdfrwt>
<totfact> 0.57345208E+04</totfact>
</mgrwt>
</event>
<event>
 7    0  0.4737014E-002  0.4441315E+03  0.7546771E-02  0.1029487E+00
         21   -1    0    0  502  501  0.00000000000E+00  0.00000000000E+00  0.35719517450E+03  0.35719517450E+03  0.00000000000E+00 0. -1.
         21   -1    0    0  501  502 -0.00000000000E+00 -0.00000000000E+00 -0.13805670721E+03  0.13805670721E+03  0.00000000000E+00 0. -1.
      99926    2    1    2    0    0  0.00000000000E+00  0.35527136788E-14  0.21913846729E+03  0.49525188170E+03  0.44413146531E+03 0.  0.
      99925    2    3    3    0    0 -0.90400813846E+02  0.30088103139E+02  0.98088506742E+02  0.29681246489E+03  0.26343629793E+03 0.  0.
         25    1    4    4    0    0 -0.27196790178E+02  0.34443559925E+02  0.81504723737E+02  0.15561668390E+03  0.12509000000E+03 0.  0.
         25    1    3    3    0    0  0.90400813846E+02 -0.30088103139E+02  0.12104996055E+03  0.19843941681E+03  0.12509000000E+03 0.  0.
         25    1    4    4    0    0 -0.63204023668E+02 -0.43554567859E+01  0.16583783005E+02  0.14119578099E+03  0.12509000000E+03 0.  0.
<mgrwt>
<rscale>  2 0.44413147E+03</rscale>
<asrwt>0</asrwt>
<pdfrwt beam="1">  1       21 0.52528702E-01 0.44413147E+03</pdfrwt>
<pdfrwt beam="2">  1       21 0.20302457E-01 0.44413147E+03</pdfrwt>
<totfact> 0.71584832E+04</totfact>
</mgrwt>
</event>
<event>
 7    0  0.4737014E-002  0.4496601E+03  0.7546771E-02  0.1027823E+00
         21   -1    0    0  502  501  0.00000000000E+00  0.00000000000E+00  0.22368957924E+03  0.22368957924E+03  0.00000000000E+00 0.  1.
         21   -1    0    0  501  502 -0.00000000000E+00 -0.00000000000E+00 -0.22597638277E+03  0.22597638277E+03  0.00000000000E+00 0.  1.
      99926    2    1    2    0    0  0.00000000000E+00  0.35527136788E-14 -0.22868035235E+01  0.44966596201E+03  0.44966014713E+03 0.  0.
      99925    2    3    3    0    0  0.10457294492E+03  0.26030298320E+02  0.56760811205E+01  0.28436625580E+03  0.26309479718E+03 0.  0.
         25    1    4    4    0    0  0.79275628575E+02  0.42836443672E+02  0.17224834617E+02  0.15512507605E+03  0.12509000000E+03 0.  0.
         25    1    3    3    0    0 -0.10457294492E+03 -0.26030298320E+02 -0.79628846439E+01  0.16529970621E+03  0.12509000000E+03 0.  0.
         25    1    4    4    0    0  0.25297316347E+02 -0.16806145352E+02 -0.11548753497E+02  0.12924117975E+03  0.12509000000E+03 0.  0.
<mgrwt>
<rscale>  2 0.44966015E+03</rscale>
<asrwt>0</asrwt>
<pdfrwt beam="1">  1       21 0.32895526E-01 0.44966015E+03</pdfrwt>
<pdfrwt beam="2">  1       21 0.33231821E-01 0.44966015E+03</pdfrwt>
<totfact> 0.71955587E+04</totfact>
</mgrwt>
</event>
<event>
 7    0  0.4737014E-002  0.4548185E+03  0.7546771E-02  0.1026295E+00
         21   -1    0    0  502  501  0.00000000000E+00  0.00000000000E+00  0.17608085087E+04  0.17608085087E+04  0.00000000000E+00 0. -1.
         21   -1    0    0  501  502 -0.00000000000E+00 -0.00000000000E+00 -0.29370006010E+02  0.29370006010E+02  0.00000000000E+00 0. -1.
      99926    2    1    2    0    0  0.00000000000E+00  0.00000000000E+00  0.17314385027E+04  0.17901785148E+04  0.45481845382E+03 0.  0.
      99925    2    3    3    0    0 -0.55052898694E+02  0.82056918450E+02  0.13052194033E+04  0.13351242451E+04  0.26304923408E+03 0.  0.
         25    1    3    3    0    0  0.55052898694E+02 -0.82056918450E+02  0.42621909945E+03  0.45505426968E+03  0.12509000000E+03 0.  0.
         25    1    4    4    0    0 -0.47023137495E+02  0.42306848702E+02  0.84254455601E+03  0.85412521440E+03  0.12509000000E+03 0.  0.
         25    1    4    4    0    0 -0.80297611982E+01  0.39750069748E+02  0.46267484727E+03  0.48099903067E+03  0.12509000000E+03 0.  0.
<mgrwt>
<rscale>  2 0.45481845E+03</rscale>
<asrwt>0</asrwt>
<pdfrwt beam="1">  1       21 0.25894236E+00 0.45481845E+03</pdfrwt>
<pdfrwt beam="2">  1       21 0.43191197E-02 0.45481845E+03</pdfrwt>
<totfact> 0.17473547E+04</totfact>
</mgrwt>
</event>
<event>
 7    0  0.4737014E-002  0.4514438E+03  0.7546771E-02  0.1027292E+00
         21   -1    0    0  502  501  0.00000000000E+00  0.00000000000E+00  0.39618586675E+03  0.39618586675E+03  0.00000000000E+00 0.  1.
         21   -1    0    0  501  502 -0.00000000000E+00 -0.00000000000E+00 -0.12860220000E+03  0.12860220000E+03  0.00000000000E+00 0.  1.
      99926    2    1    2    0    0  0.00000000000E+00  0.00000000000E+00  0.26758366675E+03  0.52478806675E+03  0.45144379085E+03 0.  0.
      99925    2    3    3    0    0 -0.66896356592E+02  0.17632957609E+02  0.69953209897E+02  0.28087958126E+03  0.26308524070E+03 0.  0.
         25    1    4    4    0    0 -0.63621150776E+02 -0.19014575117E+02  0.38058765895E+02  0.14664645463E+03  0.12509000000E+03 0.  0.
         25    1    4    4    0    0 -0.32752058164E+01  0.36647532726E+02  0.31894444003E+02  0.13423312664E+03  0.12509000000E+03 0.  0.
         25    1    3    3    0    0  0.66896356592E+02 -0.17632957609E+02  0.19763045685E+03  0.24390848549E+03  0.12509000000E+03 0.  0.
<mgrwt>
<rscale>  2 0.45144379E+03</rscale>
<asrwt>0</asrwt>
<pdfrwt beam="1">  1       21 0.58262627E-01 0.45144379E+03</pdfrwt>
<pdfrwt beam="2">  1       21 0.18912088E-01 0.45144379E+03</pdfrwt>
<totfact> 0.65384521E+04</totfact>
</mgrwt>
</event>
<event>
 7    0  0.4737014E-002  0.4552816E+03  0.7546771E-02  0.1026159E+00
         21   -1    0    0  502  501  0.00000000000E+00  0.00000000000E+00  0.72652503397E+02  0.72652503397E+02  0.00000000000E+00 0.  1.
         21   -1    0    0  501  502 -0.00000000000E+00 -0.00000000000E+00 -0.71326282514E+03  0.71326282514E+03  0.00000000000E+00 0.  1.
      99926    2    1    2    0    0  0.00000000000E+00  0.00000000000E+00 -0.64061032174E+03  0.78591532854E+03  0.45528158244E+03 0.  0.
      99925    2    3    3    0    0 -0.67718301001E+02 -0.86466064528E+02 -0.45199168259E+03  0.53434695266E+03  0.26299816745E+03 0.  0.
         25    1    4    4    0    0 -0.36786572220E+02 -0.68682911405E+02 -0.17832978245E+03  0.23134306478E+03  0.12509000000E+03 0.  0.
         25    1    4    4    0    0 -0.30931728780E+02 -0.17783153123E+02 -0.27366190014E+03  0.30300388788E+03  0.12509000000E+03 0.  0.
         25    1    3    3    0    0  0.67718301001E+02  0.86466064528E+02 -0.18861863915E+03  0.25156837588E+03  0.12509000000E+03 0.  0.
<mgrwt>
<rscale>  2 0.45528158E+03</rscale>
<asrwt>0</asrwt>
<pdfrwt beam="1">  1       21 0.10684191E-01 0.45528158E+03</pdfrwt>
<pdfrwt beam="2">  1       21 0.10489160E+00 0.45528158E+03</pdfrwt>
<totfact> 0.48346706E+04</totfact>
</mgrwt>
</event>
<event>
 7    0  0.4737014E-002  0.4606212E+03  0.7546771E-02  0.1024601E+00
         21   -1    0    0  502  501  0.00000000000E+00  0.00000000000E+00  0.25906075405E+03  0.25906075405E+03  0.00000000000E+00 0. -1.
         21   -1    0    0  501  502 -0.00000000000E+00 -0.00000000000E+00 -0.20475110323E+03  0.20475110323E+03  0.00000000000E+00 0. -1.
      99926    2    1    2    0    0  0.00000000000E+00  0.00000000000E+00  0.54309650823E+02  0.46381185728E+03  0.46062121182E+03 0.  0.
      99925    2    3    3    0    0 -0.68269892655E+02  0.88673901296E+02  0.72758453114E+02  0.29495776222E+03  0.26302556906E+03 0.  0.
         25    1    4    4    0    0 -0.80114506562E+01  0.74110080752E+02  0.46833546054E+02  0.15296201014E+03  0.12509000000E+03 0.  0.
         25    1    3    3    0    0  0.68269892655E+02 -0.88673901296E+02 -0.18448802291E+02  0.16885409506E+03  0.12509000000E+03 0.  0.
         25    1    4    4    0    0 -0.60258441999E+02  0.14563820544E+02  0.25924907060E+02  0.14199575207E+03  0.12509000000E+03 0.  0.
<mgrwt>
<rscale>  2 0.46062121E+03</rscale>
<asrwt>0</asrwt>
<pdfrwt beam="1">  1       21 0.38097170E-01 0.46062121E+03</pdfrwt>
<pdfrwt beam="2">  1       21 0.30110456E-01 0.46062121E+03</pdfrwt>
<totfact> 0.64943068E+04</totfact>
</mgrwt>
</event>
<event>
 7    0  0.4737014E-002  0.4018473E+03  0.7546771E-02  0.1043142E+00
         21   -1    0    0  502  501  0.00000000000E+00  0.00000000000E+00  0.32407081841E+03  0.32407081841E+03  0.00000000000E+00 0. -1.
         21   -1    0    0  501  502 -0.00000000000E+00 -0.00000000000E+00 -0.12457249335E+03  0.12457249335E+03  0.00000000000E+00 0. -1.
      99926    2    1    2    0    0  0.35527136788E-14  0.00000000000E+00  0.19949832505E+03  0.44864331176E+03  0.40184728378E+03 0.  0.
      99925    2    3    3    0    0 -0.12653992538E+02 -0.30076753320E+02  0.17337486645E+03  0.31675442744E+03  0.26307753300E+03 0.  0.
         25    1    4    4    0    0 -0.44805784188E+02 -0.22138598818E+02  0.10208584520E+03  0.16901687414E+03  0.12509000000E+03 0.  0.
         25    1    4    4    0    0  0.32151791650E+02 -0.79381545019E+01  0.71289021257E+02  0.14773755330E+03  0.12509000000E+03 0.  0.
         25    1    3    3    0    0  0.12653992538E+02  0.30076753320E+02  0.26123458601E+02  0.13188888432E+03  0.12509000000E+03 0.  0.
<mgrwt>
<rscale>  2 0.40184728E+03</rscale>
<asrwt>0</asrwt>
<pdfrwt beam="1">  1       21 0.47657473E-01 0.40184728E+03</pdfrwt>
<pdfrwt beam="2">  1       21 0.18319484E-01 0.40184728E+03</pdfrwt>
<totfact> 0.10787054E+05</totfact>
</mgrwt>
</event>
<event>
 7    0  0.4737014E-002  0.4315102E+03  0.7546771E-02  0.1033384E+00
         21   -1    0    0  502  501  0.00000000000E+00  0.00000000000E+00  0.11353682683E+04  0.11353682683E+04  0.00000000000E+00 0.  1.
         21   -1    0    0  501  502 -0.00000000000E+00 -0.00000000000E+00 -0.41000152133E+02  0.41000152133E+02  0.00000000000E+00 0.  1.
      99926    2    1    2    0    0  0.00000000000E+00  0.00000000000E+00  0.10943681162E+04  0.11763684204E+04  0.43151023963E+03 0.  0.
      99925    2    3    3    0    0  0.62684881840E+02 -0.61840232014E+02  0.74643311880E+03  0.79628964018E+03  0.26298513552E+03 0.  0.
         25    1    4    4    0    0  0.37373752369E+02 -0.54738209209E+02  0.29666247697E+03  0.32870838482E+03  0.12509000000E+03 0.  0.
         25    1    3    3    0    0 -0.62684881840E+02  0.61840232014E+02  0.34793499737E+03  0.38007878025E+03  0.12509000000E+03 0.  0.
         25    1    4    4    0    0  0.25311129471E+02 -0.71020228056E+01  0.44977064184E+03  0.46758125536E+03  0.12509000000E+03 0.  0.
<mgrwt>
<rscale>  2 0.43151024E+03</rscale>
<asrwt>0</asrwt>
<pdfrwt beam="1">  1       21 0.16696590E+00 0.43151024E+03</pdfrwt>
<pdfrwt beam="2">  1       21 0.60294348E-02 0.43151024E+03</pdfrwt>
<totfact> 0.39696324E+04</totfact>
</mgrwt>
</event>
<event>
 7    0  0.4737014E-002  0.4532319E+03  0.7546771E-02  0.1026763E+00
         21   -1    0    0  502  501  0.00000000000E+00  0.00000000000E+00  0.76711763573E+03  0.76711763573E+03  0.00000000000E+00 0.  1.
         21   -1    0    0  501  502 -0.00000000000E+00 -0.00000000000E+00 -0.66945138056E+02  0.66945138056E+02  0.00000000000E+00 0.  1.
      99926    2    1    2    0    0  0.00000000000E+00  0.14210854715E-13  0.70017249767E+03  0.83406277378E+03  0.45323193192E+03 0.  0.
      99925    2    3    3    0    0  0.43384808643E+02  0.85173147058E+02  0.54733712565E+03  0.61464794830E+03  0.26282592078E+03 0.  0.
         25    1    4    4    0    0  0.38315586385E+02  0.88637957156E+01  0.29455849549E+03  0.32242652868E+03  0.12509000000E+03 0.  0.
         25    1    4    4    0    0  0.50692222577E+01  0.76309351342E+02  0.25277863017E+03  0.29222141962E+03  0.12509000000E+03 0.  0.
         25    1    3    3    0    0 -0.43384808643E+02 -0.85173147058E+02  0.15283537202E+03  0.21941482548E+03  0.12509000000E+03 0.  0.
<mgrwt>
<rscale>  2 0.45323193E+03</rscale>
<asrwt>0</asrwt>
<pdfrwt beam="1">  1       21 0.11281141E+00 0.45323193E+03</pdfrwt>
<pdfrwt beam="2">  1       21 0.98448737E-02 0.45323193E+03</pdfrwt>
<totfact> 0.46806868E+04</totfact>
</mgrwt>
</event>
<event>
 7    0  0.4737014E-002  0.4575360E+03  0.7546771E-02  0.1025498E+00
         21   -1    0    0  502  501  0.00000000000E+00  0.00000000000E+00  0.11013053357E+03  0.11013053357E+03  0.00000000000E+00 0. -1.
         21   -1    0    0  501  502 -0.00000000000E+00 -0.00000000000E+00 -0.47520706887E+03  0.47520706887E+03  0.00000000000E+00 0. -1.
      99926    2    1    2    0    0  0.00000000000E+00  0.00000000000E+00 -0.36507653529E+03  0.58533760244E+03  0.45753604471E+03 0.  0.
      99925    2    3    3    0    0  0.74729545942E+02  0.39845796723E+02 -0.32960976677E+03  0.43016804253E+03  0.26311547638E+03 0.  0.
         25    1    4    4    0    0  0.32592586356E+02 -0.20785305477E+02 -0.14756973531E+03  0.19727807909E+03  0.12509000000E+03 0.  0.
         25    1    4    4    0    0  0.42136959586E+02  0.60631102200E+02 -0.18204003146E+03  0.23288996344E+03  0.12509000000E+03 0.  0.
         25    1    3    3    0    0 -0.74729545942E+02 -0.39845796723E+02 -0.35466768520E+02  0.15516955991E+03  0.12509000000E+03 0.  0.
<mgrwt>
<rscale>  2 0.45753604E+03</rscale>
<asrwt>0</asrwt>
<pdfrwt beam="1">  1       21 0.16195667E-01 0.45753604E+03</pdfrwt>
<pdfrwt beam="2">  1       21 0.69883393E-01 0.45753604E+03</pdfrwt>
<totfact> 0.58410219E+04</totfact>
</mgrwt>
</event>
<event>
 7    0  0.4737014E-002  0.4653427E+03  0.7546771E-02  0.1023243E+00
         21   -1    0    0  502  501  0.00000000000E+00  0.00000000000E+00  0.64410242382E+03  0.64410242382E+03  0.00000000000E+00 0.  1.
         21   -1    0    0  501  502 -0.00000000000E+00 -0.00000000000E+00 -0.84048688844E+02  0.84048688844E+02  0.00000000000E+00 0.  1.
      99926    2    1    2    0    0  0.00000000000E+00 -0.35527136788E-14  0.56005373498E+03  0.72815111266E+03  0.46534273048E+03 0.  0.
      99925    2    3    3    0    0 -0.30597581275E+02 -0.26387737333E+02  0.16801052198E+03  0.31465635620E+03  0.26296114227E+03 0.  0.
         25    1    4    4    0    0  0.17511286217E+02 -0.26709896889E+02  0.10571649338E+03  0.16686386310E+03  0.12509000000E+03 0.  0.
         25    1    3    3    0    0  0.30597581275E+02  0.26387737333E+02  0.39204321300E+03  0.41349475646E+03  0.12509000000E+03 0.  0.
         25    1    4    4    0    0 -0.48108867492E+02  0.32215955665E+00  0.62294028593E+02  0.14779249310E+03  0.12509000000E+03 0.  0.
<mgrwt>
<rscale>  2 0.46534273E+03</rscale>
<asrwt>0</asrwt>
<pdfrwt beam="1">  1       21 0.94720942E-01 0.46534273E+03</pdfrwt>
<pdfrwt beam="2">  1       21 0.12360102E-01 0.46534273E+03</pdfrwt>
<totfact> 0.47424425E+04</totfact>
</mgrwt>
</event>
<event>
 7    0  0.4737014E-002  0.4624025E+03  0.7546771E-02  0.1024087E+00
         21   -1    0    0  502  501  0.00000000000E+00  0.00000000000E+00  0.93597961981E+03  0.93597961981E+03  0.00000000000E+00 0. -1.
         21   -1    0    0  501  502 -0.00000000000E+00 -0.00000000000E+00 -0.57110233366E+02  0.57110233366E+02  0.00000000000E+00 0. -1.
      99926    2    1    2    0    0  0.00000000000E+00  0.00000000000E+00  0.87886938644E+03  0.99308985318E+03  0.46240248491E+03 0.  0.
      99925    2    3    3    0    0  0.99104553484E+02 -0.66627552397E+02  0.52489035688E+03  0.59912335114E+03  0.26301703342E+03 0.  0.
         25    1    4    4    0    0  0.51576845192E+02  0.52802782618E+01  0.27834726447E+03  0.30953636303E+03  0.12509000000E+03 0.  0.
         25    1    3    3    0    0 -0.99104553484E+02  0.66627552397E+02  0.35397902956E+03  0.39396650204E+03  0.12509000000E+03 0.  0.
         25    1    4    4    0    0  0.47527708293E+02 -0.71907830659E+02  0.24654309241E+03  0.28958698811E+03  0.12509000000E+03 0.  0.
<mgrwt>
<rscale>  2 0.46240248E+03</rscale>
<asrwt>0</asrwt>
<pdfrwt beam="1">  1       21 0.13764405E+00 0.46240248E+03</pdfrwt>
<pdfrwt beam="2">  1       21 0.83985643E-02 0.46240248E+03</pdfrwt>
<totfact> 0.37236628E+04</totfact>
</mgrwt>
</event>
<event>
 7    0  0.4737014E-002  0.4601307E+03  0.7546771E-02  0.1024743E+00
         21   -1    0    0  502  501  0.00000000000E+00  0.00000000000E+00  0.14403757573E+04  0.14403757573E+04  0.00000000000E+00 0. -1.
         21   -1    0    0  501  502 -0.00000000000E+00 -0.00000000000E+00 -0.36747407552E+02  0.36747407552E+02  0.00000000000E+00 0. -1.
      99926    2    1    2    0    0  0.14210854715E-13  0.00000000000E+00  0.14036283498E+04  0.14771231649E+04  0.46013074222E+03 0.  0.
      99925    2    3    3    0    0  0.64651167822E+02  0.45186024154E+01  0.11955658605E+04  0.12258510041E+04  0.26293110514E+03 0.  0.
         25    1    3    3    0    0 -0.64651167822E+02 -0.45186024154E+01  0.20806248928E+03  0.25127216084E+03  0.12509000000E+03 0.  0.
         25    1    4    4    0    0 -0.75517895323E+00  0.18809222297E+02  0.48245960139E+03  0.49876761344E+03  0.12509000000E+03 0.  0.
         25    1    4    4    0    0  0.65406346776E+02 -0.14290619881E+02  0.71310625912E+03  0.72708339061E+03  0.12509000000E+03 0.  0.
<mgrwt>
<rscale>  2 0.46013074E+03</rscale>
<asrwt>0</asrwt>
<pdfrwt beam="1">  1       21 0.21181993E+00 0.46013074E+03</pdfrwt>
<pdfrwt beam="2">  1       21 0.54040315E-02 0.46013074E+03</pdfrwt>
<totfact> 0.23398869E+04</totfact>
</mgrwt>
</event>
<event>
 7    0  0.4737014E-002  0.4557327E+03  0.7546771E-02  0.1026026E+00
         21   -1    0    0  502  501  0.00000000000E+00  0.00000000000E+00  0.25251450916E+04  0.25251450916E+04  0.00000000000E+00 0.  1.
         21   -1    0    0  501  502 -0.00000000000E+00 -0.00000000000E+00 -0.20562407804E+02  0.20562407804E+02  0.00000000000E+00 0.  1.
      99926    2    1    2    0    0  0.00000000000E+00  0.00000000000E+00  0.25045826838E+04  0.25457074994E+04  0.45573265469E+03 0.  0.
      99925    2    3    3    0    0  0.99135014685E+02  0.52461182359E+02  0.16845607629E+04  0.17086511180E+04  0.26299002331E+03 0.  0.
         25    1    4    4    0    0  0.37276974280E+02  0.61746663705E+02  0.94738967711E+03  0.95833028319E+03  0.12509000000E+03 0.  0.
         25    1    4    4    0    0  0.61858040404E+02 -0.92854813465E+01  0.73717108583E+03  0.75032083485E+03  0.12509000000E+03 0.  0.
         25    1    3    3    0    0 -0.99135014685E+02 -0.52461182359E+02  0.82002192084E+03  0.83705638134E+03  0.12509000000E+03 0.  0.
<mgrwt>
<rscale>  2 0.45573265E+03</rscale>
<asrwt>0</asrwt>
<pdfrwt beam="1">  1       21 0.37134465E+00 0.45573265E+03</pdfrwt>
<pdfrwt beam="2">  1       21 0.30238852E-02 0.45573265E+03</pdfrwt>
<totfact> 0.66375019E+03</totfact>
</mgrwt>
</event>
<event>
 7    0  0.4737014E-002  0.4577978E+03  0.7546771E-02  0.1025422E+00
         21   -1    0    0  502  501  0.00000000000E+00  0.00000000000E+00  0.97561362182E+02  0.97561362182E+02  0.00000000000E+00 0. -1.
         21   -1    0    0  501  502 -0.00000000000E+00 -0.00000000000E+00 -0.53704362802E+03  0.53704362802E+03  0.00000000000E+00 0. -1.
      99926    2    1    2    0    0  0.71054273576E-14 -0.71054273576E-14 -0.43948226584E+03  0.63460499020E+03  0.45779780647E+03 0.  0.
      99925    2    3    3    0    0  0.55054761671E+02 -0.62255493815E+02 -0.38767770044E+03  0.47574028554E+03  0.26292213025E+03 0.  0.
         25    1    3    3    0    0 -0.55054761671E+02  0.62255493815E+02 -0.51804565404E+02  0.15886470467E+03  0.12509000000E+03 0.  0.
         25    1    4    4    0    0  0.35585412746E+02  0.78451682236E+01 -0.20118719955E+03  0.23969077084E+03  0.12509000000E+03 0.  0.
         25    1    4    4    0    0  0.19469348925E+02 -0.70100662039E+02 -0.18649050089E+03  0.23604951469E+03  0.12509000000E+03 0.  0.
<mgrwt>
<rscale>  2 0.45779781E+03</rscale>
<asrwt>0</asrwt>
<pdfrwt beam="1">  1       21 0.14347259E-01 0.45779781E+03</pdfrwt>
<pdfrwt beam="2">  1       21 0.78977004E-01 0.45779781E+03</pdfrwt>
<totfact> 0.55364431E+04</totfact>
</mgrwt>
</event>
<event>
 7    0  0.4737014E-002  0.4248867E+03  0.7546771E-02  0.1035488E+00
         21   -1    0    0  502  501  0.00000000000E+00  0.00000000000E+00  0.61866923689E+02  0.61866923689E+02  0.00000000000E+00 0. -1.
         21   -1    0    0  501  502 -0.00000000000E+00 -0.00000000000E+00 -0.72950411669E+03  0.72950411669E+03  0.00000000000E+00 0. -1.
      99926    2    1    2    0    0 -0.14210854715E-13  0.35527136788E-14 -0.66763719300E+03  0.79137104038E+03  0.42488669322E+03 0.  0.
      99925    2    3    3    0    0 -0.75911610180E+02  0.26147718974E+02 -0.46103478671E+03  0.53685515060E+03  0.26308573203E+03 0.  0.
         25    1    3    3    0    0  0.75911610180E+02 -0.26147718974E+02 -0.20660240629E+03  0.25451588979E+03  0.12509000000E+03 0.  0.
         25    1    4    4    0    0 -0.25524898788E+02  0.33349947365E+02 -0.29251269210E+03  0.32089705917E+03  0.12509000000E+03 0.  0.
         25    1    4    4    0    0 -0.50386711392E+02 -0.72022283912E+01 -0.16852209462E+03  0.21595809143E+03  0.12509000000E+03 0.  0.
<mgrwt>
<rscale>  2 0.42488669E+03</rscale>
<asrwt>0</asrwt>
<pdfrwt beam="1">  1       21 0.90980767E-02 0.42488669E+03</pdfrwt>
<pdfrwt beam="2">  1       21 0.10728002E+00 0.42488669E+03</pdfrwt>
<totfact> 0.61477837E+04</totfact>
</mgrwt>
</event>
<event>
 7    0  0.4737014E-002  0.4529560E+03  0.7546771E-02  0.1026844E+00
         21   -1    0    0  502  501  0.00000000000E+00  0.00000000000E+00  0.37109872392E+03  0.37109872392E+03  0.00000000000E+00 0. -1.
         21   -1    0    0  501  502 -0.00000000000E+00 -0.00000000000E+00 -0.13821735220E+03  0.13821735220E+03  0.00000000000E+00 0. -1.
      99926    2    1    2    0    0  0.00000000000E+00  0.00000000000E+00  0.23288137173E+03  0.50931607612E+03  0.45295599356E+03 0.  0.
      99925    2    3    3    0    0  0.16667161443E+02  0.10425984014E+03  0.10724756389E+03  0.30296862567E+03  0.26294493652E+03 0.  0.
         25    1    3    3    0    0 -0.16667161443E+02 -0.10425984014E+03  0.12563380783E+03  0.20634745045E+03  0.12509000000E+03 0.  0.
         25    1    4    4    0    0 -0.10179648580E+02  0.63944199668E+02  0.18349262412E+02  0.14204467413E+03  0.12509000000E+03 0.  0.
         25    1    4    4    0    0  0.26846810023E+02  0.40315640472E+02  0.88898301482E+02  0.16092395155E+03  0.12509000000E+03 0.  0.
<mgrwt>
<rscale>  2 0.45295599E+03</rscale>
<asrwt>0</asrwt>
<pdfrwt beam="1">  1       21 0.54573342E-01 0.45295599E+03</pdfrwt>
<pdfrwt beam="2">  1       21 0.20326081E-01 0.45295599E+03</pdfrwt>
<totfact> 0.65679994E+04</totfact>
</mgrwt>
</event>
<event>
 7    0  0.4737014E-002  0.4319111E+03  0.7546771E-02  0.1033258E+00
         21   -1    0    0  502  501  0.00000000000E+00  0.00000000000E+00  0.25356784670E+03  0.25356784670E+03  0.00000000000E+00 0.  1.
         21   -1    0    0  501  502 -0.00000000000E+00 -0.00000000000E+00 -0.18392237609E+03  0.18392237609E+03  0.00000000000E+00 0.  1.
      99926    2    1    2    0    0  0.00000000000E+00  0.00000000000E+00  0.69645470611E+02  0.43749022279E+03  0.43191110597E+03 0.  0.
      99925    2    3    3    0    0  0.34436764622E+02 -0.28264976395E+02  0.12294824707E+03  0.29440460602E+03  0.26376694436E+03 0.  0.
         25    1    3    3    0    0 -0.34436764622E+02  0.28264976395E+02 -0.53302776463E+02  0.14308561677E+03  0.12509000000E+03 0.  0.
         25    1    4    4    0    0 -0.17304881811E+02 -0.88007828489E+01  0.84995658252E+02  0.15247518728E+03  0.12509000000E+03 0.  0.
         25    1    4    4    0    0  0.51741646433E+02 -0.19464193546E+02  0.37952588821E+02  0.14192941874E+03  0.12509000000E+03 0.  0.
<mgrwt>
<rscale>  2 0.43191111E+03</rscale>
<asrwt>0</asrwt>
<pdfrwt beam="1">  1       21 0.37289389E-01 0.43191111E+03</pdfrwt>
<pdfrwt beam="2">  1       21 0.27047408E-01 0.43191111E+03</pdfrwt>
<totfact> 0.84344870E+04</totfact>
</mgrwt>
</event>
<event>
 7    0  0.4737014E-002  0.4542456E+03  0.7546771E-02  0.1026463E+00
         21   -1    0    0  502  501  0.00000000000E+00  0.00000000000E+00  0.70795125828E+03  0.70795125828E+03  0.00000000000E+00 0.  1.
         21   -1    0    0  501  502 -0.00000000000E+00 -0.00000000000E+00 -0.72864861139E+02  0.72864861139E+02  0.00000000000E+00 0.  1.
      99926    2    1    2    0    0  0.71054273576E-14  0.14210854715E-13  0.63508639714E+03  0.78081611942E+03  0.45424561694E+03 0.  0.
      99925    2    3    3    0    0 -0.51075126952E+02 -0.94210469239E+02  0.34118299581E+03  0.44390218602E+03  0.26298105067E+03 0.  0.
         25    1    3    3    0    0  0.51075126952E+02  0.94210469239E+02  0.29390340133E+03  0.33691393341E+03  0.12509000000E+03 0.  0.
         25    1    4    4    0    0 -0.59671411187E+02 -0.53014569915E+02  0.14509736541E+03  0.20753788928E+03  0.12509000000E+03 0.  0.
         25    1    4    4    0    0  0.85962842349E+01 -0.41195899324E+02  0.19608563040E+03  0.23636429674E+03  0.12509000000E+03 0.  0.
<mgrwt>
<rscale>  2 0.45424562E+03</rscale>
<asrwt>0</asrwt>
<pdfrwt beam="1">  1       21 0.10411048E+00 0.45424562E+03</pdfrwt>
<pdfrwt beam="2">  1       21 0.10715421E-01 0.45424562E+03</pdfrwt>
<totfact> 0.48996224E+04</totfact>
</mgrwt>
</event>
<event>
 7    0  0.4737014E-002  0.4478904E+03  0.7546771E-02  0.1028353E+00
         21   -1    0    0  502  501  0.00000000000E+00  0.00000000000E+00  0.13783162875E+03  0.13783162875E+03  0.00000000000E+00 0.  1.
         21   -1    0    0  501  502 -0.00000000000E+00 -0.00000000000E+00 -0.36386024813E+03  0.36386024813E+03  0.00000000000E+00 0.  1.
      99926    2    1    2    0    0  0.00000000000E+00  0.00000000000E+00 -0.22602861937E+03  0.50169187688E+03  0.44789039122E+03 0.  0.
      99925    2    3    3    0    0  0.22346947363E+02 -0.97176374227E+02 -0.10164498385E+03  0.29905567416E+03  0.26298281264E+03 0.  0.
         25    1    4    4    0    0 -0.24525842939E+02 -0.67877928748E+02 -0.48743735039E+02  0.15242175038E+03  0.12509000000E+03 0.  0.
         25    1    4    4    0    0  0.46872790302E+02 -0.29298445478E+02 -0.52901248808E+02  0.14663392378E+03  0.12509000000E+03 0.  0.
         25    1    3    3    0    0 -0.22346947363E+02  0.97176374227E+02 -0.12438363553E+03  0.20263620272E+03  0.12509000000E+03 0.  0.
<mgrwt>
<rscale>  2 0.44789039E+03</rscale>
<asrwt>0</asrwt>
<pdfrwt beam="1">  1       21 0.20269357E-01 0.44789039E+03</pdfrwt>
<pdfrwt beam="2">  1       21 0.53508861E-01 0.44789039E+03</pdfrwt>
<totfact> 0.68962096E+04</totfact>
</mgrwt>
</event>
<event>
 7    0  0.4737014E-002  0.4712783E+03  0.7546771E-02  0.1021560E+00
         21   -1    0    0  502  501  0.00000000000E+00  0.00000000000E+00  0.27193827197E+02  0.27193827197E+02  0.00000000000E+00 0.  1.
         21   -1    0    0  501  502 -0.00000000000E+00 -0.00000000000E+00 -0.20418535336E+04  0.20418535336E+04  0.00000000000E+00 0.  1.
      99926    2    1    2    0    0  0.00000000000E+00  0.00000000000E+00 -0.20146597064E+04  0.20690473607E+04  0.47127831333E+03 0.  0.
      99925    2    3    3    0    0 -0.94247196257E+02  0.75184987099E+02 -0.14379446535E+04  0.14667325954E+04  0.26283904494E+03 0.  0.
         25    1    3    3    0    0  0.94247196257E+02 -0.75184987099E+02 -0.57671505286E+03  0.60231476537E+03  0.12509000000E+03 0.  0.
         25    1    4    4    0    0 -0.14668552038E+02  0.39164082068E+02 -0.79981224329E+03  0.81061465836E+03  0.12509000000E+03 0.  0.
         25    1    4    4    0    0 -0.79578644220E+02  0.36020905030E+02 -0.63813241021E+03  0.65611793702E+03  0.12509000000E+03 0.  0.
<mgrwt>
<rscale>  2 0.47127831E+03</rscale>
<asrwt>0</asrwt>
<pdfrwt beam="1">  1       21 0.39990917E-02 0.47127831E+03</pdfrwt>
<pdfrwt beam="2">  1       21 0.30027262E+00 0.47127831E+03</pdfrwt>
<totfact> 0.11139511E+04</totfact>
</mgrwt>
</event>
<event>
 7    0  0.4737014E-002  0.4750687E+03  0.7546771E-02  0.1020499E+00
         21   -1    0    0  502  501  0.00000000000E+00  0.00000000000E+00  0.94852407775E+02  0.94852407775E+02  0.00000000000E+00 0. -1.
         21   -1    0    0  501  502 -0.00000000000E+00 -0.00000000000E+00 -0.59484583895E+03  0.59484583895E+03  0.00000000000E+00 0. -1.
      99926    2    1    2    0    0  0.00000000000E+00  0.00000000000E+00 -0.49999343118E+03  0.68969824673E+03  0.47506866906E+03 0.  0.
      99925    2    3    3    0    0  0.49025583828E+02 -0.47530578601E+02 -0.47127612985E+03  0.54431992899E+03  0.26366708320E+03 0.  0.
         25    1    4    4    0    0 -0.28134955815E+01 -0.34661829359E+02 -0.17126021798E+03  0.21491144347E+03  0.12509000000E+03 0.  0.
         25    1    4    4    0    0  0.51839079410E+02 -0.12868749242E+02 -0.30001591187E+03  0.32940848552E+03  0.12509000000E+03 0.  0.
         25    1    3    3    0    0 -0.49025583828E+02  0.47530578601E+02 -0.28717301331E+02  0.14537831774E+03  0.12509000000E+03 0.  0.
<mgrwt>
<rscale>  2 0.47506867E+03</rscale>
<asrwt>0</asrwt>
<pdfrwt beam="1">  1       21 0.13948884E-01 0.47506867E+03</pdfrwt>
<pdfrwt beam="2">  1       21 0.87477325E-01 0.47506867E+03</pdfrwt>
<totfact> 0.45786174E+04</totfact>
</mgrwt>
</event>
<event>
 7    0  0.4737014E-002  0.4475531E+03  0.7546771E-02  0.1028454E+00
         21   -1    0    0  502  501  0.00000000000E+00  0.00000000000E+00  0.83298262907E+02  0.83298262907E+02  0.00000000000E+00 0. -1.
         21   -1    0    0  501  502 -0.00000000000E+00 -0.00000000000E+00 -0.60116445132E+03  0.60116445132E+03  0.00000000000E+00 0. -1.
      99926    2    1    2    0    0  0.00000000000E+00  0.00000000000E+00 -0.51786618841E+03  0.68446271422E+03  0.44755314552E+03 0.  0.
      99925    2    3    3    0    0 -0.31933231021E+02 -0.99907834558E+02 -0.30909126166E+03  0.41944236635E+03  0.26342586054E+03 0.  0.
         25    1    4    4    0    0 -0.37686452289E+02 -0.18447392126E+02 -0.17121033087E+03  0.21615055045E+03  0.12509000000E+03 0.  0.
         25    1    4    4    0    0  0.57532212678E+01 -0.81460442432E+02 -0.13788093079E+03  0.20329181590E+03  0.12509000000E+03 0.  0.
         25    1    3    3    0    0  0.31933231021E+02  0.99907834558E+02 -0.20877492675E+03  0.26502034788E+03  0.12509000000E+03 0.  0.
<mgrwt>
<rscale>  2 0.44755315E+03</rscale>
<asrwt>0</asrwt>
<pdfrwt beam="1">  1       21 0.12249744E-01 0.44755315E+03</pdfrwt>
<pdfrwt beam="2">  1       21 0.88406538E-01 0.44755315E+03</pdfrwt>
<totfact> 0.57025453E+04</totfact>
</mgrwt>
</event>
<event>
 7    0  0.4737014E-002  0.4224551E+03  0.7546771E-02  0.1036270E+00
         21   -1    0    0  502  501  0.00000000000E+00  0.00000000000E+00  0.87619080281E+02  0.87619080281E+02  0.00000000000E+00 0. -1.
         21   -1    0    0  501  502 -0.00000000000E+00 -0.00000000000E+00 -0.50921641757E+03  0.50921641757E+03  0.00000000000E+00 0. -1.
      99926    2    1    2    0    0  0.00000000000E+00 -0.71054273576E-14 -0.42159733729E+03  0.59683549785E+03  0.42245508245E+03 0.  0.
      99925    2    3    3    0    0 -0.39687874818E+02  0.34012293474E+02 -0.19009338824E+03  0.32855663167E+03  0.26283454957E+03 0.  0.
         25    1    3    3    0    0  0.39687874818E+02 -0.34012293474E+02 -0.23150394904E+03  0.26827886618E+03  0.12509000000E+03 0.  0.
         25    1    4    4    0    0 -0.13135648514E+02 -0.15828535388E+02 -0.63253273334E+02  0.14167417719E+03  0.12509000000E+03 0.  0.
         25    1    4    4    0    0 -0.26552226304E+02  0.49840828862E+02 -0.12684011491E+03  0.18688245448E+03  0.12509000000E+03 0.  0.
<mgrwt>
<rscale>  2 0.42245508E+03</rscale>
<asrwt>0</asrwt>
<pdfrwt beam="1">  1       21 0.12885159E-01 0.42245508E+03</pdfrwt>
<pdfrwt beam="2">  1       21 0.74884768E-01 0.42245508E+03</pdfrwt>
<totfact> 0.76795543E+04</totfact>
</mgrwt>
</event>
<event>
 7    0  0.4737014E-002  0.4603342E+03  0.7546771E-02  0.1024684E+00
         21   -1    0    0  502  501  0.00000000000E+00  0.00000000000E+00  0.62560234722E+02  0.62560234722E+02  0.00000000000E+00 0. -1.
         21   -1    0    0  501  502 -0.00000000000E+00 -0.00000000000E+00 -0.84681401046E+03  0.84681401046E+03  0.00000000000E+00 0. -1.
      99926    2    1    2    0    0  0.00000000000E+00 -0.22204460493E-14 -0.78425377574E+03  0.90937424518E+03  0.46033415368E+03 0.  0.
      99925    2    3    3    0    0 -0.11785428769E+03 -0.31661047691E+01 -0.47847516596E+03  0.55859265552E+03  0.26303538359E+03 0.  0.
         25    1    3    3    0    0  0.11785428769E+03  0.31661047691E+01 -0.30577860978E+03  0.35078158966E+03  0.12509000000E+03 0.  0.
         25    1    4    4    0    0 -0.75489671214E+02  0.35097044437E+02 -0.26604757727E+03  0.30554756497E+03  0.12509000000E+03 0.  0.
         25    1    4    4    0    0 -0.42364616473E+02 -0.38263149206E+02 -0.21242758868E+03  0.25304509055E+03  0.12509000000E+03 0.  0.
<mgrwt>
<rscale>  2 0.46033415E+03</rscale>
<asrwt>0</asrwt>
<pdfrwt beam="1">  1       21 0.92000347E-02 0.46033415E+03</pdfrwt>
<pdfrwt beam="2">  1       21 0.12453147E+00 0.46033415E+03</pdfrwt>
<totfact> 0.41088069E+04</totfact>
</mgrwt>
</event>
<event>
 7    0  0.4737014E-002  0.4565607E+03  0.7546771E-02  0.1025783E+00
         21   -1    0    0  502  501  0.00000000000E+00  0.00000000000E+00  0.67768629144E+03  0.67768629144E+03  0.00000000000E+00 0. -1.
         21   -1    0    0  501  502 -0.00000000000E+00 -0.00000000000E+00 -0.76896806075E+02  0.76896806075E+02  0.00000000000E+00 0. -1.
      99926    2    1    2    0    0  0.71054273576E-14  0.00000000000E+00  0.60078948536E+03  0.75458309751E+03  0.45656066993E+03 0.  0.
      99925    2    3    3    0    0  0.43736314215E+02  0.10119494401E+03  0.32534297333E+03  0.43260239783E+03  0.26295152109E+03 0.  0.
         25    1    4    4    0    0 -0.22474717732E+01  0.16728628932E+02  0.16373412726E+03  0.20673962050E+03  0.12509000000E+03 0.  0.
         25    1    3    3    0    0 -0.43736314215E+02 -0.10119494401E+03  0.27544651203E+03  0.32198069968E+03  0.12509000000E+03 0.  0.
         25    1    4    4    0    0  0.45983785989E+02  0.84466315077E+02  0.16160884606E+03  0.22586277733E+03  0.12509000000E+03 0.  0.
<mgrwt>
<rscale>  2 0.45656067E+03</rscale>
<asrwt>0</asrwt>
<pdfrwt beam="1">  1       21 0.99659746E-01 0.45656067E+03</pdfrwt>
<pdfrwt beam="2">  1       21 0.11308354E-01 0.45656067E+03</pdfrwt>
<totfact> 0.49428636E+04</totfact>
</mgrwt>
</event>
<event>
 7    0  0.4737014E-002  0.4533818E+03  0.7546771E-02  0.1026718E+00
         21   -1    0    0  502  501  0.00000000000E+00  0.00000000000E+00  0.84628183773E+03  0.84628183773E+03  0.00000000000E+00 0.  1.
         21   -1    0    0  501  502 -0.00000000000E+00 -0.00000000000E+00 -0.60723001439E+02  0.60723001439E+02  0.00000000000E+00 0.  1.
      99926    2    1    2    0    0 -0.14210854715E-13  0.00000000000E+00  0.78555883629E+03  0.90700483917E+03  0.45338184017E+03 0.  0.
      99925    2    3    3    0    0  0.83784114264E+02  0.47500018931E+02  0.60820186831E+03  0.66956214757E+03  0.26292190331E+03 0.  0.
         25    1    4    4    0    0  0.31160165354E+02  0.99297006122E+00  0.21120315569E+03  0.24743933189E+03  0.12509000000E+03 0.  0.
         25    1    3    3    0    0 -0.83784114264E+02 -0.47500018931E+02  0.17735696798E+03  0.23744269160E+03  0.12509000000E+03 0.  0.
         25    1    4    4    0    0  0.52623948910E+02  0.46507048870E+02  0.39699871262E+03  0.42212281568E+03  0.12509000000E+03 0.  0.
<mgrwt>
<rscale>  2 0.45338184E+03</rscale>
<asrwt>0</asrwt>
<pdfrwt beam="1">  1       21 0.12445320E+00 0.45338184E+03</pdfrwt>
<pdfrwt beam="2">  1       21 0.89298537E-02 0.45338184E+03</pdfrwt>
<totfact> 0.43480443E+04</totfact>
</mgrwt>
</event>
<event>
 7    0  0.4737014E-002  0.4468646E+03  0.7546771E-02  0.1028661E+00
         21   -1    0    0  502  501  0.00000000000E+00  0.00000000000E+00  0.34335994380E+03  0.34335994380E+03  0.00000000000E+00 0. -1.
         21   -1    0    0  501  502 -0.00000000000E+00 -0.00000000000E+00 -0.14539256895E+03  0.14539256895E+03  0.00000000000E+00 0. -1.
      99926    2    1    2    0    0 -0.17763568394E-14  0.00000000000E+00  0.19796737486E+03  0.48875251275E+03  0.44686456249E+03 0.  0.
      99925    2    3    3    0    0 -0.19172368308E+01  0.83362095261E+02  0.19625963737E+03  0.33840844339E+03  0.26277274321E+03 0.  0.
         25    1    4    4    0    0 -0.38692055202E+02  0.32231571065E+02  0.10906868134E+03  0.17343423727E+03  0.12509000000E+03 0.  0.
         25    1    4    4    0    0  0.36774818371E+02  0.51130524196E+02  0.87190956036E+02  0.16497420612E+03  0.12509000000E+03 0.  0.
         25    1    3    3    0    0  0.19172368308E+01 -0.83362095261E+02  0.17077374838E+01  0.15034406936E+03  0.12509000000E+03 0.  0.
<mgrwt>
<rscale>  2 0.44686456E+03</rscale>
<asrwt>0</asrwt>
<pdfrwt beam="1">  1       21 0.50494109E-01 0.44686456E+03</pdfrwt>
<pdfrwt beam="2">  1       21 0.21381260E-01 0.44686456E+03</pdfrwt>
<totfact> 0.70513472E+04</totfact>
</mgrwt>
</event>
<event>
 7    0  0.4737014E-002  0.4725608E+03  0.7546771E-02  0.1021200E+00
         21   -1    0    0  502  501  0.00000000000E+00  0.00000000000E+00  0.46857805521E+02  0.46857805521E+02  0.00000000000E+00 0.  1.
         21   -1    0    0  501  502 -0.00000000000E+00 -0.00000000000E+00 -0.11914432664E+04  0.11914432664E+04  0.00000000000E+00 0.  1.
      99926    2    1    2    0    0  0.17763568394E-14 -0.14210854715E-13 -0.11445854609E+04  0.12383010719E+04  0.47256075532E+03 0.  0.
      99925    2    3    3    0    0  0.91033649339E+01 -0.12298041813E+03 -0.80818843008E+03  0.85880466229E+03  0.26300162538E+03 0.  0.
         25    1    3    3    0    0 -0.91033649339E+01  0.12298041813E+03 -0.33639703080E+03  0.37949640964E+03  0.12509000000E+03 0.  0.
         25    1    4    4    0    0  0.20556535231E+02 -0.24260861370E+02 -0.31624979398E+03  0.34157371214E+03  0.12509000000E+03 0.  0.
         25    1    4    4    0    0 -0.11453170297E+02 -0.98719556760E+02 -0.49193863611E+03  0.51723095015E+03  0.12509000000E+03 0.  0.
<mgrwt>
<rscale>  2 0.47256076E+03</rscale>
<asrwt>0</asrwt>
<pdfrwt beam="1">  1       21 0.68908541E-02 0.47256076E+03</pdfrwt>
<pdfrwt beam="2">  1       21 0.17521224E+00 0.47256076E+03</pdfrwt>
<totfact> 0.27066406E+04</totfact>
</mgrwt>
</event>
<event>
 7    0  0.4737014E-002  0.4497883E+03  0.7546771E-02  0.1027785E+00
         21   -1    0    0  502  501  0.00000000000E+00  0.00000000000E+00  0.67887575918E+02  0.67887575918E+02  0.00000000000E+00 0.  1.
         21   -1    0    0  501  502 -0.00000000000E+00 -0.00000000000E+00 -0.74501686047E+03  0.74501686047E+03  0.00000000000E+00 0.  1.
      99926    2    1    2    0    0  0.35527136788E-14  0.14210854715E-13 -0.67712928455E+03  0.81290443639E+03  0.44978834434E+03 0.  0.
      99925    2    3    3    0    0  0.26421524260E+02  0.91369627376E+02 -0.33460900040E+03  0.43605677631E+03  0.26293691880E+03 0.  0.
         25    1    4    4    0    0  0.10164062869E+02  0.29521948828E+02 -0.21892743912E+03  0.25407004022E+03  0.12509000000E+03 0.  0.
         25    1    4    4    0    0  0.16257461391E+02  0.61847678548E+02 -0.11568156127E+03  0.18198673609E+03  0.12509000000E+03 0.  0.
         25    1    3    3    0    0 -0.26421524260E+02 -0.91369627376E+02 -0.34252028415E+03  0.37684766008E+03  0.12509000000E+03 0.  0.
<mgrwt>
<rscale>  2 0.44978834E+03</rscale>
<asrwt>0</asrwt>
<pdfrwt beam="1">  1       21 0.99834671E-02 0.44978834E+03</pdfrwt>
<pdfrwt beam="2">  1       21 0.10956130E+00 0.44978834E+03</pdfrwt>
<totfact> 0.49125409E+04</totfact>
</mgrwt>
</event>
<event>
 7    0  0.4737014E-002  0.4241270E+03  0.7546771E-02  0.1035731E+00
         21   -1    0    0  502  501  0.00000000000E+00  0.00000000000E+00  0.20762088113E+03  0.20762088113E+03  0.00000000000E+00 0. -1.
         21   -1    0    0  501  502 -0.00000000000E+00 -0.00000000000E+00 -0.21660113445E+03  0.21660113445E+03  0.00000000000E+00 0. -1.
      99926    2    1    2    0    0 -0.88817841970E-15  0.00000000000E+00 -0.89802533234E+01  0.42422201559E+03  0.42412695453E+03 0.  0.
      99925    2    3    3    0    0  0.31647467673E+01  0.74027596867E+02  0.26680338813E+02  0.27452469880E+03  0.26298644272E+03 0.  0.
         25    1    3    3    0    0 -0.31647467673E+01 -0.74027596867E+02 -0.35660592137E+02  0.14969731678E+03  0.12509000000E+03 0.  0.
         25    1    4    4    0    0  0.11577079935E+02  0.31531173187E+02  0.52313029618E+02  0.13968680979E+03  0.12509000000E+03 0.  0.
         25    1    4    4    0    0 -0.84123331681E+01  0.42496423680E+02 -0.25632690805E+02  0.13483788901E+03  0.12509000000E+03 0.  0.
<mgrwt>
<rscale>  2 0.42412695E+03</rscale>
<asrwt>0</asrwt>
<pdfrwt beam="1">  1       21 0.30532483E-01 0.42412695E+03</pdfrwt>
<pdfrwt beam="2">  1       21 0.31853108E-01 0.42412695E+03</pdfrwt>
<totfact> 0.91381889E+04</totfact>
</mgrwt>
</event>
<event>
 7    0  0.4737014E-002  0.4603192E+03  0.7546771E-02  0.1024689E+00
         21   -1    0    0  502  501  0.00000000000E+00  0.00000000000E+00  0.87395989051E+03  0.87395989051E+03  0.00000000000E+00 0. -1.
         21   -1    0    0  501  502 -0.00000000000E+00 -0.00000000000E+00 -0.60613130594E+02  0.60613130594E+02  0.00000000000E+00 0. -1.
      99926    2    1    2    0    0  0.00000000000E+00  0.00000000000E+00  0.81334675992E+03  0.93457302110E+03  0.46031921523E+03 0.  0.
      99925    2    3    3    0    0  0.80587918437E+01 -0.87775812752E+02  0.34853587780E+03  0.44522018146E+03  0.26262942417E+03 0.  0.
         25    1    4    4    0    0  0.16830187460E+02 -0.83921150897E+02  0.19055824150E+03  0.24348709674E+03  0.12509000000E+03 0.  0.
         25    1    4    4    0    0 -0.87713956168E+01 -0.38546618552E+01  0.15797763630E+03  0.20173308472E+03  0.12509000000E+03 0.  0.
         25    1    3    3    0    0 -0.80587918437E+01  0.87775812752E+02  0.46481088212E+03  0.48935283964E+03  0.12509000000E+03 0.  0.
<mgrwt>
<rscale>  2 0.46031922E+03</rscale>
<asrwt>0</asrwt>
<pdfrwt beam="1">  1       21 0.12852351E+00 0.46031922E+03</pdfrwt>
<pdfrwt beam="2">  1       21 0.89136962E-02 0.46031922E+03</pdfrwt>
<totfact> 0.40078306E+04</totfact>
</mgrwt>
</event>
<event>
 7    0  0.4737014E-002  0.4557350E+03  0.7546771E-02  0.1026025E+00
         21   -1    0    0  502  501  0.00000000000E+00  0.00000000000E+00  0.17453788142E+04  0.17453788142E+04  0.00000000000E+00 0. -1.
         21   -1    0    0  501  502 -0.00000000000E+00 -0.00000000000E+00 -0.29749191359E+02  0.29749191359E+02  0.00000000000E+00 0. -1.
      99926    2    1    2    0    0  0.00000000000E+00 -0.44408920985E-14  0.17156296228E+04  0.17751280055E+04  0.45573504731E+03 0.  0.
      99925    2    3    3    0    0 -0.53226262095E+02 -0.68679975021E+01  0.14698809511E+04  0.14942007514E+04  0.26306970690E+03 0.  0.
         25    1    4    4    0    0 -0.31165429765E+02 -0.40916713660E+02  0.66041861800E+03  0.67412589371E+03  0.12509000000E+03 0.  0.
         25    1    3    3    0    0  0.53226262095E+02  0.68679975021E+01  0.24574867166E+03  0.28092725409E+03  0.12509000000E+03 0.  0.
         25    1    4    4    0    0 -0.22060832330E+02  0.34048716158E+02  0.80946233314E+03  0.82007485773E+03  0.12509000000E+03 0.  0.
<mgrwt>
<rscale>  2 0.45573505E+03</rscale>
<asrwt>0</asrwt>
<pdfrwt beam="1">  1       21 0.25667329E+00 0.45573505E+03</pdfrwt>
<pdfrwt beam="2">  1       21 0.43748823E-02 0.45573505E+03</pdfrwt>
<totfact> 0.17641406E+04</totfact>
</mgrwt>
</event>
<event>
 7    0  0.4737014E-002  0.4501752E+03  0.7546771E-02  0.1027670E+00
         21   -1    0    0  502  501  0.00000000000E+00  0.00000000000E+00  0.35034250245E+03  0.35034250245E+03  0.00000000000E+00 0.  1.
         21   -1    0    0  501  502 -0.00000000000E+00 -0.00000000000E+00 -0.14461399049E+03  0.14461399049E+03  0.00000000000E+00 0.  1.
      99926    2    1    2    0    0  0.00000000000E+00  0.35527136788E-14  0.20572851196E+03  0.49495649294E+03  0.45017519842E+03 0.  0.
      99925    2    3    3    0    0 -0.73116484046E+02 -0.25384197952E+02  0.46347606255E+02  0.27806905912E+03  0.26302836974E+03 0.  0.
         25    1    4    4    0    0  0.13909866062E+01 -0.27227861876E+02  0.30416653979E+02  0.13159016774E+03  0.12509000000E+03 0.  0.
         25    1    4    4    0    0 -0.74507470652E+02  0.18436639238E+01  0.15930952276E+02  0.14647889138E+03  0.12509000000E+03 0.  0.
         25    1    3    3    0    0  0.73116484046E+02  0.25384197952E+02  0.15938090571E+03  0.21688743382E+03  0.12509000000E+03 0.  0.
<mgrwt>
<rscale>  2 0.45017520E+03</rscale>
<asrwt>0</asrwt>
<pdfrwt beam="1">  1       21 0.51520956E-01 0.45017520E+03</pdfrwt>
<pdfrwt beam="2">  1       21 0.21266763E-01 0.45017520E+03</pdfrwt>
<totfact> 0.68201423E+04</totfact>
</mgrwt>
</event>
<event>
 7    0  0.4737014E-002  0.4488482E+03  0.7546771E-02  0.1028066E+00
         21   -1    0    0  502  501  0.00000000000E+00  0.00000000000E+00  0.10763907855E+03  0.10763907855E+03  0.00000000000E+00 0.  1.
         21   -1    0    0  501  502 -0.00000000000E+00 -0.00000000000E+00 -0.46791714828E+03  0.46791714828E+03  0.00000000000E+00 0.  1.
      99926    2    1    2    0    0  0.00000000000E+00  0.00000000000E+00 -0.36027806974E+03  0.57555622683E+03  0.44884817334E+03 0.  0.
      99925    2    3    3    0    0  0.18859047487E+02 -0.99099737275E+02 -0.27501498578E+03  0.39363942391E+03  0.26294929559E+03 0.  0.
         25    1    3    3    0    0 -0.18859047487E+02  0.99099737275E+02 -0.85263083952E+02  0.18191680292E+03  0.12509000000E+03 0.  0.
         25    1    4    4    0    0  0.35505028884E+02 -0.45662330469E+02 -0.94952162049E+02  0.16735912487E+03  0.12509000000E+03 0.  0.
         25    1    4    4    0    0 -0.16645981398E+02 -0.53437406806E+02 -0.18006282373E+03  0.22628029904E+03  0.12509000000E+03 0.  0.
<mgrwt>
<rscale>  2 0.44884817E+03</rscale>
<asrwt>0</asrwt>
<pdfrwt beam="1">  1       21 0.15829276E-01 0.44884817E+03</pdfrwt>
<pdfrwt beam="2">  1       21 0.68811346E-01 0.44884817E+03</pdfrwt>
<totfact> 0.63228382E+04</totfact>
</mgrwt>
</event>
<event>
 7    0  0.4737014E-002  0.4557865E+03  0.7546771E-02  0.1026010E+00
         21   -1    0    0  502  501  0.00000000000E+00  0.00000000000E+00  0.20692153640E+03  0.20692153640E+03  0.00000000000E+00 0.  1.
         21   -1    0    0  501  502 -0.00000000000E+00 -0.00000000000E+00 -0.25099051280E+03  0.25099051280E+03  0.00000000000E+00 0.  1.
      99926    2    1    2    0    0  0.00000000000E+00  0.00000000000E+00 -0.44068976403E+02  0.45791204920E+03  0.45578654008E+03 0.  0.
      99925    2    3    3    0    0  0.84233216742E+02  0.65897400594E+02  0.11594593856E+02  0.28417764454E+03  0.26303003030E+03 0.  0.
         25    1    4    4    0    0  0.58334990126E+02  0.82405307865E+01  0.33639840916E+02  0.14230258050E+03  0.12509000000E+03 0.  0.
         25    1    3    3    0    0 -0.84233216742E+02 -0.65897400594E+02 -0.55663570259E+02  0.17373440466E+03  0.12509000000E+03 0.  0.
         25    1    4    4    0    0  0.25898226617E+02  0.57656869808E+02 -0.22045247060E+02  0.14187506404E+03  0.12509000000E+03 0.  0.
<mgrwt>
<rscale>  2 0.45578654E+03</rscale>
<asrwt>0</asrwt>
<pdfrwt beam="1">  1       21 0.30429638E-01 0.45578654E+03</pdfrwt>
<pdfrwt beam="2">  1       21 0.36910369E-01 0.45578654E+03</pdfrwt>
<totfact> 0.67905841E+04</totfact>
</mgrwt>
</event>
<event>
 7    0  0.4737014E-002  0.4845568E+03  0.7546771E-02  0.1017890E+00
         21   -1    0    0  502  501  0.00000000000E+00  0.00000000000E+00  0.33611467539E+03  0.33611467539E+03  0.00000000000E+00 0. -1.
         21   -1    0    0  501  502 -0.00000000000E+00 -0.00000000000E+00 -0.17463930779E+03  0.17463930779E+03  0.00000000000E+00 0. -1.
      99926    2    1    2    0    0  0.00000000000E+00  0.00000000000E+00  0.16147536760E+03  0.51075398318E+03  0.48455684598E+03 0.  0.
      99925    2    3    3    0    0 -0.66479332009E+02  0.12151585875E+03  0.86054076245E+02  0.30945449286E+03  0.26300413229E+03 0.  0.
         25    1    4    4    0    0 -0.30319560315E+02  0.68466923538E+02  0.23221568486E+01  0.14580773597E+03  0.12509000000E+03 0.  0.
         25    1    3    3    0    0  0.66479332009E+02 -0.12151585875E+03  0.75421291352E+02  0.20129949031E+03  0.12509000000E+03 0.  0.
         25    1    4    4    0    0 -0.36159771694E+02  0.53048935209E+02  0.83731919396E+02  0.16364675689E+03  0.12509000000E+03 0.  0.
<mgrwt>
<rscale>  2 0.48455685E+03</rscale>
<asrwt>0</asrwt>
<pdfrwt beam="1">  1       21 0.49428629E-01 0.48455685E+03</pdfrwt>
<pdfrwt beam="2">  1       21 0.25682251E-01 0.48455685E+03</pdfrwt>
<totfact> 0.51369014E+04</totfact>
</mgrwt>
</event>
<event>
 7    0  0.4737014E-002  0.4427388E+03  0.7546771E-02  0.1029910E+00
         21   -1    0    0  502  501  0.00000000000E+00  0.00000000000E+00  0.46350299403E+02  0.46350299403E+02  0.00000000000E+00 0. -1.
         21   -1    0    0  501  502 -0.00000000000E+00 -0.00000000000E+00 -0.10572619508E+04  0.10572619508E+04  0.00000000000E+00 0. -1.
      99926    2    1    2    0    0  0.13322676296E-14  0.00000000000E+00 -0.10109116514E+04  0.11036122502E+04  0.44273878514E+03 0.  0.
      99925    2    3    3    0    0 -0.10836734784E+01  0.42439134021E+02 -0.87242499769E+03  0.91222699529E+03  0.26311681797E+03 0.  0.
         25    1    3    3    0    0  0.10836734784E+01 -0.42439134021E+02 -0.13848665373E+03  0.19138525493E+03  0.12509000000E+03 0.  0.
         25    1    4    4    0    0  0.88283560440E+01 -0.11651324847E+02 -0.49697522554E+03  0.51268467516E+03  0.12509000000E+03 0.  0.
         25    1    4    4    0    0 -0.99120295224E+01  0.54090458867E+02 -0.37544977215E+03  0.39954232013E+03  0.12509000000E+03 0.  0.
<mgrwt>
<rscale>  2 0.44273879E+03</rscale>
<asrwt>0</asrwt>
<pdfrwt beam="1">  1       21 0.68162212E-02 0.44273879E+03</pdfrwt>
<pdfrwt beam="2">  1       21 0.15547968E+00 0.44273879E+03</pdfrwt>
<totfact> 0.38963338E+04</totfact>
</mgrwt>
</event>
<event>
 7    0  0.4737014E-002  0.4564765E+03  0.7546771E-02  0.1025808E+00
         21   -1    0    0  502  501  0.00000000000E+00  0.00000000000E+00  0.20160894839E+03  0.20160894839E+03  0.00000000000E+00 0. -1.
         21   -1    0    0  501  502 -0.00000000000E+00 -0.00000000000E+00 -0.25838486826E+03  0.25838486826E+03  0.00000000000E+00 0. -1.
      99926    2    1    2    0    0  0.44408920985E-14  0.00000000000E+00 -0.56775919871E+02  0.45999381665E+03  0.45647651229E+03 0.  0.
      99925    2    3    3    0    0  0.11251768254E+01 -0.89793029957E+02 -0.10735372412E+03  0.29791458715E+03  0.26299092171E+03 0.  0.
         25    1    4    4    0    0  0.33277989233E+02 -0.21800392774E+02 -0.61213996490E+02  0.14483557284E+03  0.12509000000E+03 0.  0.
         25    1    3    3    0    0 -0.11251768254E+01  0.89793029957E+02  0.50577804252E+02  0.16207922950E+03  0.12509000000E+03 0.  0.
         25    1    4    4    0    0 -0.32152812408E+02 -0.67992637183E+02 -0.46139727633E+02  0.15307901431E+03  0.12509000000E+03 0.  0.
<mgrwt>
<rscale>  2 0.45647651E+03</rscale>
<asrwt>0</asrwt>
<pdfrwt beam="1">  1       21 0.29648375E-01 0.45647651E+03</pdfrwt>
<pdfrwt beam="2">  1       21 0.37997774E-01 0.45647651E+03</pdfrwt>
<totfact> 0.67384033E+04</totfact>
</mgrwt>
</event>
<event>
 7    0  0.4737014E-002  0.4588339E+03  0.7546771E-02  0.1025120E+00
         21   -1    0    0  502  501  0.00000000000E+00  0.00000000000E+00  0.42366875588E+03  0.42366875588E+03  0.00000000000E+00 0. -1.
         21   -1    0    0  501  502 -0.00000000000E+00 -0.00000000000E+00 -0.12422946253E+03  0.12422946253E+03  0.00000000000E+00 0. -1.
      99926    2    1    2    0    0  0.00000000000E+00  0.14210854715E-13  0.29943929335E+03  0.54789821841E+03  0.45883392129E+03 0.  0.
      99925    2    3    3    0    0 -0.56047690491E+01  0.88061134952E+02  0.96623876830E+02  0.29379631325E+03  0.26304737821E+03 0.  0.
         25    1    3    3    0    0  0.56047690491E+01 -0.88061134952E+02  0.20281541652E+03  0.25410190515E+03  0.12509000000E+03 0.  0.
         25    1    4    4    0    0  0.68988089134E+01  0.25241395789E+02  0.88524313990E+01  0.12810384564E+03  0.12509000000E+03 0.  0.
         25    1    4    4    0    0 -0.12503577962E+02  0.62819739162E+02  0.87771445431E+02  0.16569246761E+03  0.12509000000E+03 0.  0.
<mgrwt>
<rscale>  2 0.45883392E+03</rscale>
<asrwt>0</asrwt>
<pdfrwt beam="1">  1       21 0.62304228E-01 0.45883392E+03</pdfrwt>
<pdfrwt beam="2">  1       21 0.18269039E-01 0.45883392E+03</pdfrwt>
<totfact> 0.60159759E+04</totfact>
</mgrwt>
</event>
<event>
 7    0  0.4737014E-002  0.4583612E+03  0.7546771E-02  0.1025258E+00
         21   -1    0    0  502  501  0.00000000000E+00  0.00000000000E+00  0.85743883312E+02  0.85743883312E+02  0.00000000000E+00 0.  1.
         21   -1    0    0  501  502 -0.00000000000E+00 -0.00000000000E+00 -0.61256557897E+03  0.61256557897E+03  0.00000000000E+00 0.  1.
      99926    2    1    2    0    0  0.00000000000E+00  0.71054273576E-14 -0.52682169566E+03  0.69830946228E+03  0.45836121792E+03 0.  0.
      99925    2    3    3    0    0 -0.89416637935E+02  0.59747409227E+02 -0.39789004344E+03  0.48893905584E+03  0.26302058020E+03 0.  0.
         25    1    3    3    0    0  0.89416637935E+02 -0.59747409227E+02 -0.12893165222E+03  0.20937040644E+03  0.12509000000E+03 0.  0.
         25    1    4    4    0    0 -0.48645769325E+02 -0.66788365083E+01 -0.22152488566E+03  0.25909805248E+03  0.12509000000E+03 0.  0.
         25    1    4    4    0    0 -0.40770868610E+02  0.66426245735E+02 -0.17636515778E+03  0.22984100337E+03  0.12509000000E+03 0.  0.
<mgrwt>
<rscale>  2 0.45836122E+03</rscale>
<asrwt>0</asrwt>
<pdfrwt beam="1">  1       21 0.12609395E-01 0.45836122E+03</pdfrwt>
<pdfrwt beam="2">  1       21 0.90083170E-01 0.45836122E+03</pdfrwt>
<totfact> 0.51615808E+04</totfact>
</mgrwt>
</event>
<event>
 7    0  0.4737014E-002  0.4585664E+03  0.7546771E-02  0.1025198E+00
         21   -1    0    0  502  501  0.00000000000E+00  0.00000000000E+00  0.14342633327E+04  0.14342633327E+04  0.00000000000E+00 0. -1.
         21   -1    0    0  501  502 -0.00000000000E+00 -0.00000000000E+00 -0.36653504221E+02  0.36653504221E+02  0.00000000000E+00 0. -1.
      99926    2    1    2    0    0  0.71054273576E-14  0.00000000000E+00  0.13976098285E+04  0.14709168369E+04  0.45856636213E+03 0.  0.
      99925    2    3    3    0    0 -0.61126474416E+02  0.55934333336E+02  0.11392798848E+04  0.11721745342E+04  0.26300073624E+03 0.  0.
         25    1    3    3    0    0  0.61126474416E+02 -0.55934333336E+02  0.25832994372E+03  0.29874230273E+03  0.12509000000E+03 0.  0.
         25    1    4    4    0    0 -0.55348739801E+02 -0.38949413193E+01  0.54849466651E+03  0.56530749230E+03  0.12509000000E+03 0.  0.
         25    1    4    4    0    0 -0.57777346149E+01  0.59829274655E+02  0.59078521827E+03  0.60686704190E+03  0.12509000000E+03 0.  0.
<mgrwt>
<rscale>  2 0.45856636E+03</rscale>
<asrwt>0</asrwt>
<pdfrwt beam="1">  1       21 0.21092104E+00 0.45856636E+03</pdfrwt>
<pdfrwt beam="2">  1       21 0.53902222E-02 0.45856636E+03</pdfrwt>
<totfact> 0.23833827E+04</totfact>
</mgrwt>
</event>
<event>
 7    0  0.4737014E-002  0.4641712E+03  0.7546771E-02  0.1023578E+00
         21   -1    0    0  502  501  0.00000000000E+00  0.00000000000E+00  0.12468440157E+04  0.12468440157E+04  0.00000000000E+00 0. -1.
         21   -1    0    0  501  502 -0.00000000000E+00 -0.00000000000E+00 -0.43200051932E+02  0.43200051932E+02  0.00000000000E+00 0. -1.
      99926    2    1    2    0    0  0.00000000000E+00  0.00000000000E+00  0.12036439638E+04  0.12900440676E+04  0.46417120216E+03 0.  0.
      99925    2    3    3    0    0 -0.42777425886E+02 -0.86846391652E+02  0.54693390061E+03  0.61455326898E+03  0.26299586474E+03 0.  0.
         25    1    3    3    0    0  0.42777425886E+02  0.86846391652E+02  0.65671006317E+03  0.67549079866E+03  0.12509000000E+03 0.  0.
         25    1    4    4    0    0  0.16480075138E+02 -0.39632163465E+02  0.22562833007E+03  0.26153002254E+03  0.12509000000E+03 0.  0.
         25    1    4    4    0    0 -0.59257501025E+02 -0.47214228187E+02  0.32130557054E+03  0.35302324644E+03  0.12509000000E+03 0.  0.
<mgrwt>
<rscale>  2 0.46417120E+03</rscale>
<asrwt>0</asrwt>
<pdfrwt beam="1">  1       21 0.18335939E+00 0.46417120E+03</pdfrwt>
<pdfrwt beam="2">  1       21 0.63529496E-02 0.46417120E+03</pdfrwt>
<totfact> 0.27397281E+04</totfact>
</mgrwt>
</event>
<event>
 7    0  0.4737014E-002  0.4554367E+03  0.7546771E-02  0.1026113E+00
         21   -1    0    0  502  501  0.00000000000E+00  0.00000000000E+00  0.14122039608E+03  0.14122039608E+03  0.00000000000E+00 0. -1.
         21   -1    0    0  501  502 -0.00000000000E+00 -0.00000000000E+00 -0.36719650768E+03  0.36719650768E+03  0.00000000000E+00 0. -1.
      99926    2    1    2    0    0  0.00000000000E+00  0.00000000000E+00 -0.22597611160E+03  0.50841690377E+03  0.45543665314E+03 0.  0.
      99925    2    3    3    0    0 -0.69205833110E+02  0.47944948380E+02 -0.22723773468E+03  0.35762809382E+03  0.26300703416E+03 0.  0.
         25    1    4    4    0    0 -0.56588659512E+02  0.18952486541E+02 -0.16151622671E+03  0.21282968007E+03  0.12509000000E+03 0.  0.
         25    1    3    3    0    0  0.69205833110E+02 -0.47944948380E+02  0.12616230859E+01  0.15078880994E+03  0.12509000000E+03 0.  0.
         25    1    4    4    0    0 -0.12617173598E+02  0.28992461838E+02 -0.65721507977E+02  0.14479841375E+03  0.12509000000E+03 0.  0.
<mgrwt>
<rscale>  2 0.45543665E+03</rscale>
<asrwt>0</asrwt>
<pdfrwt beam="1">  1       21 0.20767706E-01 0.45543665E+03</pdfrwt>
<pdfrwt beam="2">  1       21 0.53999485E-01 0.45543665E+03</pdfrwt>
<totfact> 0.64459622E+04</totfact>
</mgrwt>
</event>
<event>
 7    0  0.4737014E-002  0.4295959E+03  0.7546771E-02  0.1033988E+00
         21   -1    0    0  502  501  0.00000000000E+00  0.00000000000E+00  0.89989532984E+02  0.89989532984E+02  0.00000000000E+00 0. -1.
         21   -1    0    0  501  502 -0.00000000000E+00 -0.00000000000E+00 -0.51270575684E+03  0.51270575684E+03  0.00000000000E+00 0. -1.
      99926    2    1    2    0    0  0.00000000000E+00 -0.71054273576E-14 -0.42271622386E+03  0.60269528983E+03  0.42959586412E+03 0.  0.
      99925    2    3    3    0    0  0.37902572673E+02  0.63629441389E+02 -0.33749507133E+03  0.43418575370E+03  0.26292400940E+03 0.  0.
         25    1    4    4    0    0  0.52051456303E+02  0.30938222434E+02 -0.21170481051E+03  0.25324486689E+03  0.12509000000E+03 0.  0.
         25    1    3    3    0    0 -0.37902572673E+02 -0.63629441389E+02 -0.85221152529E+02  0.16850953612E+03  0.12509000000E+03 0.  0.
         25    1    4    4    0    0 -0.14148883631E+02  0.32691218955E+02 -0.12579026082E+03  0.18094088682E+03  0.12509000000E+03 0.  0.
<mgrwt>
<rscale>  2 0.42959586E+03</rscale>
<asrwt>0</asrwt>
<pdfrwt beam="1">  1       21 0.13233755E-01 0.42959586E+03</pdfrwt>
<pdfrwt beam="2">  1       21 0.75397905E-01 0.42959586E+03</pdfrwt>
<totfact> 0.71889464E+04</totfact>
</mgrwt>
</event>
<event>
 7    0  0.4737014E-002  0.4421222E+03  0.7546771E-02  0.1030098E+00
         21   -1    0    0  502  501  0.00000000000E+00  0.00000000000E+00  0.37755767012E+03  0.37755767012E+03  0.00000000000E+00 0.  1.
         21   -1    0    0  501  502 -0.00000000000E+00 -0.00000000000E+00 -0.12943189039E+03  0.12943189039E+03  0.00000000000E+00 0.  1.
      99926    2    1    2    0    0  0.00000000000E+00 -0.44408920985E-15  0.24812577973E+03  0.50698956052E+03  0.44212216853E+03 0.  0.
      99925    2    3    3    0    0 -0.65936770612E+02 -0.34491795549E+01  0.24523089679E+03  0.36551361554E+03  0.26287345977E+03 0.  0.
         25    1    4    4    0    0 -0.13670845977E+02  0.36156640729E+01  0.70629768249E+02  0.14434693388E+03  0.12509000000E+03 0.  0.
         25    1    4    4    0    0 -0.52265924635E+02 -0.70648436279E+01  0.17460112854E+03  0.22116668167E+03  0.12509000000E+03 0.  0.
         25    1    3    3    0    0  0.65936770612E+02  0.34491795549E+01  0.28948829481E+01  0.14147594497E+03  0.12509000000E+03 0.  0.
<mgrwt>
<rscale>  2 0.44212217E+03</rscale>
<asrwt>0</asrwt>
<pdfrwt beam="1">  1       21 0.55523186E-01 0.44212217E+03</pdfrwt>
<pdfrwt beam="2">  1       21 0.19034102E-01 0.44212217E+03</pdfrwt>
<totfact> 0.71848426E+04</totfact>
</mgrwt>
</event>
<event>
 7    0  0.4737014E-002  0.4312087E+03  0.7546771E-02  0.1033479E+00
         21   -1    0    0  502  501  0.00000000000E+00  0.00000000000E+00  0.86091222129E+02  0.86091222129E+02  0.00000000000E+00 0.  1.
         21   -1    0    0  501  502 -0.00000000000E+00 -0.00000000000E+00 -0.53995325617E+03  0.53995325617E+03  0.00000000000E+00 0.  1.
      99926    2    1    2    0    0  0.00000000000E+00  0.00000000000E+00 -0.45386203404E+03  0.62604447830E+03  0.43120869990E+03 0.  0.
      99925    2    3    3    0    0  0.76004307700E+02  0.12827770247E+02 -0.35688535801E+03  0.44999564907E+03  0.26303558494E+03 0.  0.
         25    1    3    3    0    0 -0.76004307700E+02 -0.12827770247E+02 -0.96976676036E+02  0.17604882923E+03  0.12509000000E+03 0.  0.
         25    1    4    4    0    0  0.17882133789E+02  0.89106565634E+01 -0.22979616973E+03  0.26239847223E+03  0.12509000000E+03 0.  0.
         25    1    4    4    0    0  0.58122173911E+02  0.39171136840E+01 -0.12708918828E+03  0.18759717684E+03  0.12509000000E+03 0.  0.
<mgrwt>
<rscale>  2 0.43120870E+03</rscale>
<asrwt>0</asrwt>
<pdfrwt beam="1">  1       21 0.12660474E-01 0.43120870E+03</pdfrwt>
<pdfrwt beam="2">  1       21 0.79404890E-01 0.43120870E+03</pdfrwt>
<totfact> 0.69212642E+04</totfact>
</mgrwt>
</event>
<event>
 7    0  0.4737014E-002  0.4570947E+03  0.7546771E-02  0.1025627E+00
         21   -1    0    0  502  501  0.00000000000E+00  0.00000000000E+00  0.11558723039E+03  0.11558723039E+03  0.00000000000E+00 0. -1.
         21   -1    0    0  501  502 -0.00000000000E+00 -0.00000000000E+00 -0.45190011133E+03  0.45190011133E+03  0.00000000000E+00 0. -1.
      99926    2    1    2    0    0  0.00000000000E+00  0.00000000000E+00 -0.33631288094E+03  0.56748734172E+03  0.45709466101E+03 0.  0.
      99925    2    3    3    0    0  0.88226277582E+02 -0.46999328941E+02 -0.28218038431E+03  0.39845879895E+03  0.26296545819E+03 0.  0.
         25    1    4    4    0    0  0.46224894115E+02 -0.56403076777E+02 -0.18170195502E+03  0.23233845240E+03  0.12509000000E+03 0.  0.
         25    1    4    4    0    0  0.42001383467E+02  0.94037478360E+01 -0.10047842928E+03  0.16612034655E+03  0.12509000000E+03 0.  0.
         25    1    3    3    0    0 -0.88226277582E+02  0.46999328941E+02 -0.54132496634E+02  0.16902854276E+03  0.12509000000E+03 0.  0.
<mgrwt>
<rscale>  2 0.45709466E+03</rscale>
<asrwt>0</asrwt>
<pdfrwt beam="1">  1       21 0.16998122E-01 0.45709466E+03</pdfrwt>
<pdfrwt beam="2">  1       21 0.66455898E-01 0.45709466E+03</pdfrwt>
<totfact> 0.59729896E+04</totfact>
</mgrwt>
</event>
<event>
 7    0  0.4737014E-002  0.4530943E+03  0.7546771E-02  0.1026803E+00
         21   -1    0    0  502  501  0.00000000000E+00  0.00000000000E+00  0.11189806816E+03  0.11189806816E+03  0.00000000000E+00 0.  1.
         21   -1    0    0  501  502 -0.00000000000E+00 -0.00000000000E+00 -0.45866391379E+03  0.45866391379E+03  0.00000000000E+00 0.  1.
      99926    2    1    2    0    0  0.00000000000E+00  0.00000000000E+00 -0.34676584563E+03  0.57056198194E+03  0.45309427666E+03 0.  0.
      99925    2    3    3    0    0 -0.64561202119E+02 -0.70395583181E+02 -0.14615191762E+03  0.31557738797E+03  0.26287833274E+03 0.  0.
         25    1    4    4    0    0 -0.31974777982E+01 -0.37356337032E+01 -0.62414929928E+02  0.13988320271E+03  0.12509000000E+03 0.  0.
         25    1    4    4    0    0 -0.61363724321E+02 -0.66659949477E+02 -0.83736987687E+02  0.17569418526E+03  0.12509000000E+03 0.  0.
         25    1    3    3    0    0  0.64561202119E+02  0.70395583181E+02 -0.20061392801E+03  0.25498459397E+03  0.12509000000E+03 0.  0.
<mgrwt>
<rscale>  2 0.45309428E+03</rscale>
<asrwt>0</asrwt>
<pdfrwt beam="1">  1       21 0.16455598E-01 0.45309428E+03</pdfrwt>
<pdfrwt beam="2">  1       21 0.67450575E-01 0.45309428E+03</pdfrwt>
<totfact> 0.61448658E+04</totfact>
</mgrwt>
</event>
<event>
 7    0  0.4737014E-002  0.4480497E+03  0.7546771E-02  0.1028305E+00
         21   -1    0    0  502  501  0.00000000000E+00  0.00000000000E+00  0.72930954833E+02  0.72930954833E+02  0.00000000000E+00 0.  1.
         21   -1    0    0  501  502 -0.00000000000E+00 -0.00000000000E+00 -0.68814595685E+03  0.68814595685E+03  0.00000000000E+00 0.  1.
      99926    2    1    2    0    0  0.00000000000E+00  0.00000000000E+00 -0.61521500201E+03  0.76107691168E+03  0.44804973696E+03 0.  0.
      99925    2    3    3    0    0 -0.82845201985E+02  0.16628650536E+02 -0.27968844679E+03  0.39315651693E+03  0.26307143522E+03 0.  0.
         25    1    4    4    0    0 -0.45209502260E+02  0.17347354854E+02 -0.19776179914E+03  0.23896038817E+03  0.12509000000E+03 0.  0.
         25    1    3    3    0    0  0.82845201985E+02 -0.16628650536E+02 -0.33552655523E+03  0.36792039475E+03  0.12509000000E+03 0.  0.
         25    1    4    4    0    0 -0.37635699725E+02 -0.71870431810E+00 -0.81926647647E+02  0.15419612876E+03  0.12509000000E+03 0.  0.
<mgrwt>
<rscale>  2 0.44804974E+03</rscale>
<asrwt>0</asrwt>
<pdfrwt beam="1">  1       21 0.10725140E-01 0.44804974E+03</pdfrwt>
<pdfrwt beam="2">  1       21 0.10119793E+00 0.44804974E+03</pdfrwt>
<totfact> 0.52512103E+04</totfact>
</mgrwt>
</event>
<event>
 7    0  0.4737014E-002  0.4561332E+03  0.7546771E-02  0.1025909E+00
         21   -1    0    0  502  501  0.00000000000E+00  0.00000000000E+00  0.92628423456E+02  0.92628423456E+02  0.00000000000E+00 0.  1.
         21   -1    0    0  501  502 -0.00000000000E+00 -0.00000000000E+00 -0.56153789882E+03  0.56153789882E+03  0.00000000000E+00 0.  1.
      99926    2    1    2    0    0  0.14210854715E-13  0.00000000000E+00 -0.46890947537E+03  0.65416632228E+03  0.45613318353E+03 0.  0.
      99925    2    3    3    0    0 -0.10673933701E+03  0.40828873973E+02 -0.29615013553E+03  0.41218785089E+03  0.26293276447E+03 0.  0.
         25    1    3    3    0    0  0.10673933701E+03 -0.40828873973E+02 -0.17275933984E+03  0.24197847139E+03  0.12509000000E+03 0.  0.
         25    1    4    4    0    0 -0.38590291005E+02 -0.13179844061E+02 -0.16601286368E+03  0.21182704703E+03  0.12509000000E+03 0.  0.
         25    1    4    4    0    0 -0.68149046007E+02  0.54008718035E+02 -0.13013727185E+03  0.20036080385E+03  0.12509000000E+03 0.  0.
<mgrwt>
<rscale>  2 0.45613318E+03</rscale>
<asrwt>0</asrwt>
<pdfrwt beam="1">  1       21 0.13621827E-01 0.45613318E+03</pdfrwt>
<pdfrwt beam="2">  1       21 0.82579104E-01 0.45613318E+03</pdfrwt>
<totfact> 0.54969117E+04</totfact>
</mgrwt>
</event>
<event>
 7    0  0.4737014E-002  0.4484745E+03  0.7546771E-02  0.1028178E+00
         21   -1    0    0  502  501  0.00000000000E+00  0.00000000000E+00  0.42831959385E+03  0.42831959385E+03  0.00000000000E+00 0.  1.
         21   -1    0    0  501  502 -0.00000000000E+00 -0.00000000000E+00 -0.11739445151E+03  0.11739445151E+03  0.00000000000E+00 0.  1.
      99926    2    1    2    0    0  0.00000000000E+00  0.00000000000E+00  0.31092514233E+03  0.54571404536E+03  0.44847449779E+03 0.  0.
      99925    2    3    3    0    0 -0.56651285250E+02  0.89089297869E+02  0.17555305302E+03  0.33330081183E+03  0.26291497794E+03 0.  0.
         25    1    3    3    0    0  0.56651285250E+02 -0.89089297869E+02  0.13537208931E+03  0.21241323353E+03  0.12509000000E+03 0.  0.
         25    1    4    4    0    0 -0.15189155051E+02  0.65294892329E+02  0.12823231387E+03  0.19127249624E+03  0.12509000000E+03 0.  0.
         25    1    4    4    0    0 -0.41462130199E+02  0.23794405539E+02  0.47320739151E+02  0.14202831559E+03  0.12509000000E+03 0.  0.
<mgrwt>
<rscale>  2 0.44847450E+03</rscale>
<asrwt>0</asrwt>
<pdfrwt beam="1">  1       21 0.62988175E-01 0.44847450E+03</pdfrwt>
<pdfrwt beam="2">  1       21 0.17263890E-01 0.44847450E+03</pdfrwt>
<totfact> 0.65465989E+04</totfact>
</mgrwt>
</event>
<event>
 7    0  0.4737014E-002  0.4580958E+03  0.7546771E-02  0.1025335E+00
         21   -1    0    0  502  501  0.00000000000E+00  0.00000000000E+00  0.11057277819E+04  0.11057277819E+04  0.00000000000E+00 0. -1.
         21   -1    0    0  501  502 -0.00000000000E+00 -0.00000000000E+00 -0.47446521691E+02  0.47446521691E+02  0.00000000000E+00 0. -1.
      99926    2    1    2    0    0  0.00000000000E+00  0.00000000000E+00  0.10582812602E+04  0.11531743036E+04  0.45809578556E+03 0.  0.
      99925    2    3    3    0    0 -0.10569877975E+03 -0.47052064006E+02  0.64994079740E+03  0.71070897113E+03  0.26324527108E+03 0.  0.
         25    1    4    4    0    0 -0.49745349400E+02 -0.58856725513E+02  0.38734180767E+03  0.41427031995E+03  0.12509000000E+03 0.  0.
         25    1    4    4    0    0 -0.55953430347E+02  0.11804661508E+02  0.26259898974E+03  0.29643865118E+03  0.12509000000E+03 0.  0.
         25    1    3    3    0    0  0.10569877975E+03  0.47052064006E+02  0.40834046279E+03  0.44246533245E+03  0.12509000000E+03 0.  0.
<mgrwt>
<rscale>  2 0.45809579E+03</rscale>
<asrwt>0</asrwt>
<pdfrwt beam="1">  1       21 0.16260701E+00 0.45809579E+03</pdfrwt>
<pdfrwt beam="2">  1       21 0.69774304E-02 0.45809579E+03</pdfrwt>
<totfact> 0.32876173E+04</totfact>
</mgrwt>
</event>
<event>
 7    0  0.4737014E-002  0.4484943E+03  0.7546771E-02  0.1028172E+00
         21   -1    0    0  502  501  0.00000000000E+00  0.00000000000E+00  0.29095501524E+02  0.29095501524E+02  0.00000000000E+00 0. -1.
         21   -1    0    0  501  502 -0.00000000000E+00 -0.00000000000E+00 -0.17283353128E+04  0.17283353128E+04  0.00000000000E+00 0. -1.
      99926    2    1    2    0    0 -0.14210854715E-13  0.00000000000E+00 -0.16992398113E+04  0.17574308143E+04  0.44849429306E+03 0.  0.
      99925    2    3    3    0    0 -0.93314863612E+02 -0.34218061625E+02 -0.12301891224E+04  0.12619163379E+04  0.26303807229E+03 0.  0.
         25    1    4    4    0    0 -0.30119768067E+02  0.19783272350E+02 -0.61951994639E+03  0.63304901103E+03  0.12509000000E+03 0.  0.
         25    1    3    3    0    0  0.93314863612E+02  0.34218061625E+02 -0.46905068887E+03  0.49551447642E+03  0.12509000000E+03 0.  0.
         25    1    4    4    0    0 -0.63195095544E+02 -0.54001333975E+02 -0.61066917600E+03  0.62886732685E+03  0.12509000000E+03 0.  0.
<mgrwt>
<rscale>  2 0.44849429E+03</rscale>
<asrwt>0</asrwt>
<pdfrwt beam="1">  1       21 0.42787496E-02 0.44849429E+03</pdfrwt>
<pdfrwt beam="2">  1       21 0.25416699E+00 0.44849429E+03</pdfrwt>
<totfact> 0.19035365E+04</totfact>
</mgrwt>
</event>
<event>
 7    0  0.4737014E-002  0.4566155E+03  0.7546771E-02  0.1025767E+00
         21   -1    0    0  502  501  0.00000000000E+00  0.00000000000E+00  0.70470329287E+02  0.70470329287E+02  0.00000000000E+00 0. -1.
         21   -1    0    0  501  502 -0.00000000000E+00 -0.00000000000E+00 -0.73966481457E+03  0.73966481457E+03  0.00000000000E+00 0. -1.
      99926    2    1    2    0    0  0.00000000000E+00  0.00000000000E+00 -0.66919448529E+03  0.81013514386E+03  0.45661547519E+03 0.  0.
      99925    2    3    3    0    0 -0.40447555500E+02 -0.63371212047E+02 -0.26732592739E+03  0.38258659552E+03  0.26316807624E+03 0.  0.
         25    1    4    4    0    0  0.20771418561E+02 -0.27466327070E+02 -0.13271178996E+03  0.18559573876E+03  0.12509000000E+03 0.  0.
         25    1    3    3    0    0  0.40447555500E+02  0.63371212047E+02 -0.40186855790E+03  0.42754854834E+03  0.12509000000E+03 0.  0.
         25    1    4    4    0    0 -0.61218974061E+02 -0.35904884977E+02 -0.13461413743E+03  0.19699085676E+03  0.12509000000E+03 0.  0.
<mgrwt>
<rscale>  2 0.45661548E+03</rscale>
<asrwt>0</asrwt>
<pdfrwt beam="1">  1       21 0.10363283E-01 0.45661548E+03</pdfrwt>
<pdfrwt beam="2">  1       21 0.10877424E+00 0.45661548E+03</pdfrwt>
<totfact> 0.46683857E+04</totfact>
</mgrwt>
</event>
<event>
 7    0  0.4737014E-002  0.4555476E+03  0.7546771E-02  0.1026081E+00
         21   -1    0    0  502  501  0.00000000000E+00  0.00000000000E+00  0.30384042423E+03  0.30384042423E+03  0.00000000000E+00 0. -1.
         21   -1    0    0  501  502 -0.00000000000E+00 -0.00000000000E+00 -0.17075046685E+03  0.17075046685E+03  0.00000000000E+00 0. -1.
      99926    2    1    2    0    0  0.00000000000E+00  0.71054273576E-14  0.13308995738E+03  0.47459089109E+03  0.45554755750E+03 0.  0.
      99925    2    3    3    0    0  0.79869705209E+02  0.44976210218E+02  0.13729165768E+02  0.27889588356E+03  0.26304447262E+03 0.  0.
         25    1    4    4    0    0  0.55157882379E+01 -0.31206174360E+01  0.86701948028E+01  0.12555015950E+03  0.12509000000E+03 0.  0.
         25    1    4    4    0    0  0.74353916971E+02  0.48096827654E+02  0.50589709653E+01  0.15334572406E+03  0.12509000000E+03 0.  0.
         25    1    3    3    0    0 -0.79869705209E+02 -0.44976210218E+02  0.11936079161E+03  0.19569500753E+03  0.12509000000E+03 0.  0.
<mgrwt>
<rscale>  2 0.45554756E+03</rscale>
<asrwt>0</asrwt>
<pdfrwt beam="1">  1       21 0.44682416E-01 0.45554756E+03</pdfrwt>
<pdfrwt beam="2">  1       21 0.25110362E-01 0.45554756E+03</pdfrwt>
<totfact> 0.66805264E+04</totfact>
</mgrwt>
</event>
<event>
 7    0  0.4737014E-002  0.4798478E+03  0.7546771E-02  0.1019177E+00
         21   -1    0    0  502  501  0.00000000000E+00  0.00000000000E+00  0.11670020419E+03  0.11670020419E+03  0.00000000000E+00 0.  1.
         21   -1    0    0  501  502 -0.00000000000E+00 -0.00000000000E+00 -0.49325939966E+03  0.49325939966E+03  0.00000000000E+00 0.  1.
      99926    2    1    2    0    0  0.00000000000E+00  0.00000000000E+00 -0.37655919548E+03  0.60995960385E+03  0.47984777860E+03 0.  0.
      99925    2    3    3    0    0 -0.43487327732E+01 -0.12102917023E+03 -0.30841083409E+03  0.42298720272E+03  0.26293337475E+03 0.  0.
         25    1    3    3    0    0  0.43487327732E+01  0.12102917023E+03 -0.68148361386E+02  0.18697240113E+03  0.12509000000E+03 0.  0.
         25    1    4    4    0    0 -0.16990206101E+02 -0.92269331175E+02 -0.20408844045E+03  0.25710289031E+03  0.12509000000E+03 0.  0.
         25    1    4    4    0    0  0.12641473328E+02 -0.28759839058E+02 -0.10432239364E+03  0.16588431241E+03  0.12509000000E+03 0.  0.
<mgrwt>
<rscale>  2 0.47984778E+03</rscale>
<asrwt>0</asrwt>
<pdfrwt beam="1">  1       21 0.17161795E-01 0.47984778E+03</pdfrwt>
<pdfrwt beam="2">  1       21 0.72538145E-01 0.47984778E+03</pdfrwt>
<totfact> 0.47942157E+04</totfact>
</mgrwt>
</event>
<event>
 6    0  0.4737014E-002  0.4424085E+03  0.7546771E-02  0.1030010E+00
         21   -1    0    0  502  501  0.00000000000E+00  0.00000000000E+00  0.82905947857E+02  0.82905947857E+02  0.00000000000E+00 0. -1.
         21   -1    0    0  501  502 -0.00000000000E+00 -0.00000000000E+00 -0.59020290273E+03  0.59020290273E+03  0.00000000000E+00 0. -1.
      99926    2    1    2    0    0  0.00000000000E+00  0.00000000000E+00 -0.50729695487E+03  0.67310885059E+03  0.44240854910E+03 0.  0.
         25    1    3    3    0    0 -0.31528144744E+02  0.51638565224E+02 -0.13915618579E+03  0.19665329255E+03  0.12509000000E+03 0.  0.
         25    1    3    3    0    0 -0.59775481966E+02  0.20334376802E+00 -0.15532558077E+03  0.20819868812E+03  0.12509000000E+03 0.  0.
         25    1    3    3    0    0  0.91303626710E+02 -0.51841908992E+02 -0.21281518832E+03  0.26825686992E+03  0.12509000000E+03 0.  0.
<mgrwt>
<rscale>  2 0.44240855E+03</rscale>
<asrwt>0</asrwt>
<pdfrwt beam="1">  1       21 0.12192051E-01 0.44240855E+03</pdfrwt>
<pdfrwt beam="2">  1       21 0.86794549E-01 0.44240855E+03</pdfrwt>
<totfact> 0.60133030E+04</totfact>
</mgrwt>
</event>
<event>
 7    0  0.4737014E-002  0.4639498E+03  0.7546771E-02  0.1023642E+00
         21   -1    0    0  502  501  0.00000000000E+00  0.00000000000E+00  0.28680700285E+03  0.28680700285E+03  0.00000000000E+00 0.  1.
         21   -1    0    0  501  502 -0.00000000000E+00 -0.00000000000E+00 -0.18762569224E+03  0.18762569224E+03  0.00000000000E+00 0.  1.
      99926    2    1    2    0    0  0.00000000000E+00  0.00000000000E+00  0.99181310608E+02  0.47443269509E+03  0.46394983543E+03 0.  0.
      99925    2    3    3    0    0  0.83500801787E+02  0.73907945484E+02  0.11021190492E+03  0.30649237707E+03  0.26335554847E+03 0.  0.
         25    1    3    3    0    0 -0.83500801787E+02 -0.73907945484E+02 -0.11030594314E+02  0.16794031802E+03  0.12509000000E+03 0.  0.
         25    1    4    4    0    0  0.17505046647E+02  0.59620107813E+01  0.28653834213E+02  0.12965539922E+03  0.12509000000E+03 0.  0.
         25    1    4    4    0    0  0.65995755140E+02  0.67945934702E+02  0.81558070709E+02  0.17683697785E+03  0.12509000000E+03 0.  0.
<mgrwt>
<rscale>  2 0.46394984E+03</rscale>
<asrwt>0</asrwt>
<pdfrwt beam="1">  1       21 0.42177501E-01 0.46394984E+03</pdfrwt>
<pdfrwt beam="2">  1       21 0.27592013E-01 0.46394984E+03</pdfrwt>
<totfact> 0.62546261E+04</totfact>
</mgrwt>
</event>
<event>
 7    0  0.4737014E-002  0.4537596E+03  0.7546771E-02  0.1026607E+00
         21   -1    0    0  502  501  0.00000000000E+00  0.00000000000E+00  0.13846725346E+04  0.13846725346E+04  0.00000000000E+00 0. -1.
         21   -1    0    0  501  502 -0.00000000000E+00 -0.00000000000E+00 -0.37174457053E+02  0.37174457053E+02  0.00000000000E+00 0. -1.
      99926    2    1    2    0    0  0.71054273576E-14  0.35527136788E-14  0.13474980775E+04  0.14218469916E+04  0.45375962654E+03 0.  0.
      99925    2    3    3    0    0  0.40279465980E+02  0.20477077070E+02  0.11699062708E+04  0.11999729193E+04  0.26308283583E+03 0.  0.
         25    1    4    4    0    0  0.47716754163E+02 -0.38937928765E+01  0.71779063279E+03  0.73018008113E+03  0.12509000000E+03 0.  0.
         25    1    4    4    0    0 -0.74372881828E+01  0.24370869946E+02  0.45211563797E+03  0.46979283813E+03  0.12509000000E+03 0.  0.
         25    1    3    3    0    0 -0.40279465980E+02 -0.20477077070E+02  0.17759180677E+03  0.22187407239E+03  0.12509000000E+03 0.  0.
<mgrwt>
<rscale>  2 0.45375963E+03</rscale>
<asrwt>0</asrwt>
<pdfrwt beam="1">  1       21 0.20362828E+00 0.45375963E+03</pdfrwt>
<pdfrwt beam="2">  1       21 0.54668328E-02 0.45375963E+03</pdfrwt>
<totfact> 0.26005357E+04</totfact>
</mgrwt>
</event>
<event>
 7    0  0.4737014E-002  0.4440444E+03  0.7546771E-02  0.1029513E+00
         21   -1    0    0  502  501  0.00000000000E+00  0.00000000000E+00  0.16928728961E+03  0.16928728961E+03  0.00000000000E+00 0.  1.
         21   -1    0    0  501  502 -0.00000000000E+00 -0.00000000000E+00 -0.29118462007E+03  0.29118462007E+03  0.00000000000E+00 0.  1.
      99926    2    1    2    0    0  0.00000000000E+00 -0.14210854715E-13 -0.12189733045E+03  0.46047190968E+03  0.44404439016E+03 0.  0.
      99925    2    3    3    0    0  0.99607349280E+01 -0.99635966348E+02 -0.10056463488E+03  0.29882682305E+03  0.26297848269E+03 0.  0.
         25    1    4    4    0    0 -0.76789560258E+01 -0.61847283660E+02 -0.90683845410E+02  0.16659868181E+03  0.12509000000E+03 0.  0.
         25    1    4    4    0    0  0.17639690954E+02 -0.37788682688E+02 -0.98807894670E+01  0.13222814124E+03  0.12509000000E+03 0.  0.
         25    1    3    3    0    0 -0.99607349280E+01  0.99635966348E+02 -0.21332695576E+02  0.16164508663E+03  0.12509000000E+03 0.  0.
<mgrwt>
<rscale>  2 0.44404439E+03</rscale>
<asrwt>0</asrwt>
<pdfrwt beam="1">  1       21 0.24895190E-01 0.44404439E+03</pdfrwt>
<pdfrwt beam="2">  1       21 0.42821267E-01 0.44404439E+03</pdfrwt>
<totfact> 0.74410618E+04</totfact>
</mgrwt>
</event>
<event>
 7    0  0.4737014E-002  0.4591411E+03  0.7546771E-02  0.1025031E+00
         21   -1    0    0  502  501  0.00000000000E+00  0.00000000000E+00  0.83935488075E+03  0.83935488075E+03  0.00000000000E+00 0. -1.
         21   -1    0    0  501  502 -0.00000000000E+00 -0.00000000000E+00 -0.62789456013E+02  0.62789456013E+02  0.00000000000E+00 0. -1.
      99926    2    1    2    0    0  0.71054273576E-14  0.00000000000E+00  0.77656542473E+03  0.90214433676E+03  0.45914109537E+03 0.  0.
      99925    2    3    3    0    0  0.61718246981E+02 -0.78679147115E+02  0.60626693214E+03  0.66837386197E+03  0.26299139941E+03 0.  0.
         25    1    4    4    0    0  0.72293994264E+02 -0.37952298187E+02  0.32363792104E+03  0.35644888915E+03  0.12509000000E+03 0.  0.
         25    1    3    3    0    0 -0.61718246981E+02  0.78679147115E+02  0.17029849260E+03  0.23377047479E+03  0.12509000000E+03 0.  0.
         25    1    4    4    0    0 -0.10575747283E+02 -0.40726848927E+02  0.28262901110E+03  0.31192497282E+03  0.12509000000E+03 0.  0.
<mgrwt>
<rscale>  2 0.45914110E+03</rscale>
<asrwt>0</asrwt>
<pdfrwt beam="1">  1       21 0.12343453E+00 0.45914110E+03</pdfrwt>
<pdfrwt beam="2">  1       21 0.92337440E-02 0.45914110E+03</pdfrwt>
<totfact> 0.41770285E+04</totfact>
</mgrwt>
</event>
<event>
 7    0  0.4737014E-002  0.4532662E+03  0.7546771E-02  0.1026752E+00
         21   -1    0    0  502  501  0.00000000000E+00  0.00000000000E+00  0.17882989717E+03  0.17882989717E+03  0.00000000000E+00 0. -1.
         21   -1    0    0  501  502 -0.00000000000E+00 -0.00000000000E+00 -0.28721460154E+03  0.28721460154E+03  0.00000000000E+00 0. -1.
      99926    2    1    2    0    0 -0.14210854715E-13  0.00000000000E+00 -0.10838470437E+03  0.46604449871E+03  0.45326618078E+03 0.  0.
      99925    2    3    3    0    0  0.66683387259E+02 -0.87897385609E+02 -0.51807134419E+02  0.28991626686E+03  0.26304911724E+03 0.  0.
         25    1    4    4    0    0  0.74264280520E+02 -0.56015691619E+02 -0.25547971605E+02  0.15796565456E+03  0.12509000000E+03 0.  0.
         25    1    3    3    0    0 -0.66683387259E+02  0.87897385609E+02 -0.56577569947E+02  0.17612823185E+03  0.12509000000E+03 0.  0.
         25    1    4    4    0    0 -0.75808932612E+01 -0.31881693990E+02 -0.26259162815E+02  0.13195061230E+03  0.12509000000E+03 0.  0.
<mgrwt>
<rscale>  2 0.45326618E+03</rscale>
<asrwt>0</asrwt>
<pdfrwt beam="1">  1       21 0.26298514E-01 0.45326618E+03</pdfrwt>
<pdfrwt beam="2">  1       21 0.42237441E-01 0.45326618E+03</pdfrwt>
<totfact> 0.68670801E+04</totfact>
</mgrwt>
</event>
<event>
 7    0  0.4737014E-002  0.4610725E+03  0.7546771E-02  0.1024471E+00
         21   -1    0    0  502  501  0.00000000000E+00  0.00000000000E+00  0.49979063397E+02  0.49979063397E+02  0.00000000000E+00 0.  1.
         21   -1    0    0  501  502 -0.00000000000E+00 -0.00000000000E+00 -0.10633845904E+04  0.10633845904E+04  0.00000000000E+00 0.  1.
      99926    2    1    2    0    0  0.00000000000E+00  0.00000000000E+00 -0.10134055270E+04  0.11133636538E+04  0.46107251430E+03 0.  0.
      99925    2    3    3    0    0 -0.41087484471E+02  0.86564736651E+02 -0.80370035262E+03  0.85105581314E+03  0.26302111182E+03 0.  0.
         25    1    4    4    0    0  0.19446965812E+02  0.32570606253E+02 -0.38832581567E+03  0.40973586136E+03  0.12509000000E+03 0.  0.
         25    1    4    4    0    0 -0.60534450283E+02  0.53994130398E+02 -0.41537453696E+03  0.44131995178E+03  0.12509000000E+03 0.  0.
         25    1    3    3    0    0  0.41087484471E+02 -0.86564736651E+02 -0.20970517442E+03  0.26230784069E+03  0.12509000000E+03 0.  0.
<mgrwt>
<rscale>  2 0.46107251E+03</rscale>
<asrwt>0</asrwt>
<pdfrwt beam="1">  1       21 0.73498630E-02 0.46107251E+03</pdfrwt>
<pdfrwt beam="2">  1       21 0.15638007E+00 0.46107251E+03</pdfrwt>
<totfact> 0.33418815E+04</totfact>
</mgrwt>
</event>
<event>
 7    0  0.4737014E-002  0.4556430E+03  0.7546771E-02  0.1026052E+00
         21   -1    0    0  502  501  0.00000000000E+00  0.00000000000E+00  0.81393112804E+02  0.81393112804E+02  0.00000000000E+00 0.  1.
         21   -1    0    0  501  502 -0.00000000000E+00 -0.00000000000E+00 -0.63767840346E+03  0.63767840346E+03  0.00000000000E+00 0.  1.
      99926    2    1    2    0    0 -0.71054273576E-14  0.00000000000E+00 -0.55628529066E+03  0.71907151626E+03  0.45564297526E+03 0.  0.
      99925    2    3    3    0    0  0.46169898169E+02 -0.33178890558E+02 -0.19431705334E+03  0.33190099673E+03  0.26299554394E+03 0.  0.
         25    1    3    3    0    0 -0.46169898169E+02  0.33178890558E+02 -0.36196823731E+03  0.38717051954E+03  0.12509000000E+03 0.  0.
         25    1    4    4    0    0  0.52074429150E+02 -0.11041634275E+02 -0.13495751167E+03  0.19155861222E+03  0.12509000000E+03 0.  0.
         25    1    4    4    0    0 -0.59045309806E+01 -0.22137256284E+02 -0.59359541674E+02  0.14034238451E+03  0.12509000000E+03 0.  0.
<mgrwt>
<rscale>  2 0.45564298E+03</rscale>
<asrwt>0</asrwt>
<pdfrwt beam="1">  1       21 0.11969576E-01 0.45564298E+03</pdfrwt>
<pdfrwt beam="2">  1       21 0.93776235E-01 0.45564298E+03</pdfrwt>
<totfact> 0.51618183E+04</totfact>
</mgrwt>
</event>
<event>
 7    0  0.4737014E-002  0.4664095E+03  0.7546771E-02  0.1022939E+00
         21   -1    0    0  502  501  0.00000000000E+00  0.00000000000E+00  0.28838953664E+03  0.28838953664E+03  0.00000000000E+00 0.  1.
         21   -1    0    0  501  502 -0.00000000000E+00 -0.00000000000E+00 -0.18857981591E+03  0.18857981591E+03  0.00000000000E+00 0.  1.
      99926    2    1    2    0    0  0.00000000000E+00 -0.35527136788E-14  0.99809720729E+02  0.47696935255E+03  0.46640945844E+03 0.  0.
      99925    2    3    3    0    0  0.96253747846E+02  0.25341116762E+02 -0.12644014321E+02  0.28152036483E+03  0.26303400644E+03 0.  0.
         25    1    3    3    0    0 -0.96253747846E+02 -0.25341116762E+02  0.11245373505E+03  0.19544898772E+03  0.12509000000E+03 0.  0.
         25    1    4    4    0    0  0.54074879691E+02  0.23274843722E+02 -0.45358733835E+02  0.14550166253E+03  0.12509000000E+03 0.  0.
         25    1    4    4    0    0  0.42178868155E+02  0.20662730409E+01  0.32714719514E+02  0.13601870230E+03  0.12509000000E+03 0.  0.
<mgrwt>
<rscale>  2 0.46640946E+03</rscale>
<asrwt>0</asrwt>
<pdfrwt beam="1">  1       21 0.42410226E-01 0.46640946E+03</pdfrwt>
<pdfrwt beam="2">  1       21 0.27732326E-01 0.46640946E+03</pdfrwt>
<totfact> 0.61190192E+04</totfact>
</mgrwt>
</event>
<event>
 7    0  0.4737014E-002  0.4502472E+03  0.7546771E-02  0.1027648E+00
         21   -1    0    0  502  501  0.00000000000E+00  0.00000000000E+00  0.12896026941E+03  0.12896026941E+03  0.00000000000E+00 0. -1.
         21   -1    0    0  501  502 -0.00000000000E+00 -0.00000000000E+00 -0.39299411538E+03  0.39299411538E+03  0.00000000000E+00 0. -1.
      99926    2    1    2    0    0  0.00000000000E+00  0.00000000000E+00 -0.26403384597E+03  0.52195438478E+03  0.45024716321E+03 0.  0.
      99925    2    3    3    0    0 -0.10044120267E+03  0.24735402244E+02 -0.12833020749E+03  0.31038108563E+03  0.26299714988E+03 0.  0.
         25    1    4    4    0    0 -0.40626919507E+02 -0.27463072080E+02 -0.65052700458E+02  0.14927869524E+03  0.12509000000E+03 0.  0.
         25    1    4    4    0    0 -0.59814283162E+02  0.52198474325E+02 -0.63277507036E+02  0.16110239039E+03  0.12509000000E+03 0.  0.
         25    1    3    3    0    0  0.10044120267E+03 -0.24735402244E+02 -0.13570363848E+03  0.21157329915E+03  0.12509000000E+03 0.  0.
<mgrwt>
<rscale>  2 0.45024716E+03</rscale>
<asrwt>0</asrwt>
<pdfrwt beam="1">  1       21 0.18964746E-01 0.45024716E+03</pdfrwt>
<pdfrwt beam="2">  1       21 0.57793252E-01 0.45024716E+03</pdfrwt>
<totfact> 0.66214256E+04</totfact>
</mgrwt>
</event>
<event>
 7    0  0.4737014E-002  0.4924251E+03  0.7546771E-02  0.1015775E+00
         21   -1    0    0  502  501  0.00000000000E+00  0.00000000000E+00  0.56873902145E+03  0.56873902145E+03  0.00000000000E+00 0. -1.
         21   -1    0    0  501  502 -0.00000000000E+00 -0.00000000000E+00 -0.10658774202E+03  0.10658774202E+03  0.00000000000E+00 0. -1.
      99926    2    1    2    0    0  0.00000000000E+00  0.00000000000E+00  0.46215127944E+03  0.67532676347E+03  0.49242505254E+03 0.  0.
      99925    2    3    3    0    0 -0.70067115642E+01  0.14045870705E+03  0.23116391007E+03  0.37736633774E+03  0.26304155023E+03 0.  0.
         25    1    4    4    0    0 -0.28123006741E+02  0.10472853936E+03  0.14342533346E+03  0.21903722251E+03  0.12509000000E+03 0.  0.
         25    1    4    4    0    0  0.21116295177E+02  0.35730167686E+02  0.87738576608E+02  0.15832911523E+03  0.12509000000E+03 0.  0.
         25    1    3    3    0    0  0.70067115642E+01 -0.14045870705E+03  0.23098736937E+03  0.29796042573E+03  0.12509000000E+03 0.  0.
<mgrwt>
<rscale>  2 0.49242505E+03</rscale>
<asrwt>0</asrwt>
<pdfrwt beam="1">  1       21 0.83638090E-01 0.49242505E+03</pdfrwt>
<pdfrwt beam="2">  1       21 0.15674668E-01 0.49242505E+03</pdfrwt>
<totfact> 0.40818492E+04</totfact>
</mgrwt>
</event>
<event>
 7    0  0.4737014E-002  0.4529859E+03  0.7546771E-02  0.1026835E+00
         21   -1    0    0  502  501  0.00000000000E+00  0.00000000000E+00  0.82067988847E+03  0.82067988847E+03  0.00000000000E+00 0.  1.
         21   -1    0    0  501  502 -0.00000000000E+00 -0.00000000000E+00 -0.62507997684E+02  0.62507997684E+02  0.00000000000E+00 0.  1.
      99926    2    1    2    0    0  0.00000000000E+00  0.00000000000E+00  0.75817189078E+03  0.88318788615E+03  0.45298590074E+03 0.  0.
      99925    2    3    3    0    0 -0.68116044377E+02  0.76187935649E+02  0.39206813613E+03  0.48303308571E+03  0.26298125691E+03 0.  0.
         25    1    4    4    0    0 -0.52025574163E+02  0.23693513722E+02  0.25375569302E+03  0.28863039133E+03  0.12509000000E+03 0.  0.
         25    1    4    4    0    0 -0.16090470214E+02  0.52494421927E+02  0.13831244311E+03  0.19440269439E+03  0.12509000000E+03 0.  0.
         25    1    3    3    0    0  0.68116044377E+02 -0.76187935649E+02  0.36610375466E+03  0.40015480044E+03  0.12509000000E+03 0.  0.
<mgrwt>
<rscale>  2 0.45298590E+03</rscale>
<asrwt>0</asrwt>
<pdfrwt beam="1">  1       21 0.12068821E+00 0.45298590E+03</pdfrwt>
<pdfrwt beam="2">  1       21 0.91923531E-02 0.45298590E+03</pdfrwt>
<totfact> 0.44669015E+04</totfact>
</mgrwt>
</event>
<event>
 7    0  0.4737014E-002  0.4541551E+03  0.7546771E-02  0.1026490E+00
         21   -1    0    0  502  501  0.00000000000E+00  0.00000000000E+00  0.12565638371E+03  0.12565638371E+03  0.00000000000E+00 0. -1.
         21   -1    0    0  501  502 -0.00000000000E+00 -0.00000000000E+00 -0.41035888948E+03  0.41035888948E+03  0.00000000000E+00 0. -1.
      99926    2    1    2    0    0  0.71054273576E-14  0.00000000000E+00 -0.28470250577E+03  0.53601527319E+03  0.45415510159E+03 0.  0.
      99925    2    3    3    0    0  0.56156816362E+02 -0.90573948394E+02 -0.22163510077E+03  0.35999756435E+03  0.26290473616E+03 0.  0.
         25    1    4    4    0    0  0.57299095430E+02 -0.63422295136E+02 -0.89207889201E+02  0.17581561209E+03  0.12509000000E+03 0.  0.
         25    1    4    4    0    0 -0.11422790686E+01 -0.27151653258E+02 -0.13242721157E+03  0.18418195227E+03  0.12509000000E+03 0.  0.
         25    1    3    3    0    0 -0.56156816362E+02  0.90573948394E+02 -0.63067404998E+02  0.17601770884E+03  0.12509000000E+03 0.  0.
<mgrwt>
<rscale>  2 0.45415510E+03</rscale>
<asrwt>0</asrwt>
<pdfrwt beam="1">  1       21 0.18478880E-01 0.45415510E+03</pdfrwt>
<pdfrwt beam="2">  1       21 0.60346896E-01 0.45415510E+03</pdfrwt>
<totfact> 0.63221914E+04</totfact>
</mgrwt>
</event>
<event>
 7    0  0.4737014E-002  0.4742926E+03  0.7546771E-02  0.1020716E+00
         21   -1    0    0  502  501  0.00000000000E+00  0.00000000000E+00  0.13120095907E+04  0.13120095907E+04  0.00000000000E+00 0. -1.
         21   -1    0    0  501  502 -0.00000000000E+00 -0.00000000000E+00 -0.42864303232E+02  0.42864303232E+02  0.00000000000E+00 0. -1.
      99926    2    1    2    0    0  0.71054273576E-14  0.00000000000E+00  0.12691452875E+04  0.13548738939E+04  0.47429263936E+03 0.  0.
      99925    2    3    3    0    0  0.51286733873E+02 -0.92915958205E+02  0.10021168264E+04  0.10414805126E+04  0.26302056943E+03 0.  0.
         25    1    4    4    0    0 -0.15561922176E+02 -0.40569565287E+02  0.47415066703E+03  0.49229506010E+03  0.12509000000E+03 0.  0.
         25    1    3    3    0    0 -0.51286733873E+02  0.92915958205E+02  0.26702846104E+03  0.31339338133E+03  0.12509000000E+03 0.  0.
         25    1    4    4    0    0  0.66848656049E+02 -0.52346392918E+02  0.52796615939E+03  0.54918545249E+03  0.12509000000E+03 0.  0.
<mgrwt>
<rscale>  2 0.47429264E+03</rscale>
<asrwt>0</asrwt>
<pdfrwt beam="1">  1       21 0.19294256E+00 0.47429264E+03</pdfrwt>
<pdfrwt beam="2">  1       21 0.63035749E-02 0.47429264E+03</pdfrwt>
<totfact> 0.23786823E+04</totfact>
</mgrwt>
</event>
<event>
 7    0  0.4737014E-002  0.4550101E+03  0.7546771E-02  0.1026238E+00
         21   -1    0    0  502  501  0.00000000000E+00  0.00000000000E+00  0.22279451953E+04  0.22279451953E+04  0.00000000000E+00 0. -1.
         21   -1    0    0  501  502 -0.00000000000E+00 -0.00000000000E+00 -0.23231512920E+02  0.23231512920E+02  0.00000000000E+00 0. -1.
      99926    2    1    2    0    0  0.00000000000E+00 -0.17763568394E-14  0.22047136824E+04  0.22511767083E+04  0.45501005524E+03 0.  0.
      99925    2    3    3    0    0  0.67606817724E+02  0.13256399777E+02  0.94279712438E+03  0.98120532217E+03  0.26296587721E+03 0.  0.
         25    1    4    4    0    0  0.17870617773E+02  0.29359090005E+02  0.35455640097E+03  0.37754346069E+03  0.12509000000E+03 0.  0.
         25    1    4    4    0    0  0.49736199951E+02 -0.16102690229E+02  0.58824072341E+03  0.60366186147E+03  0.12509000000E+03 0.  0.
         25    1    3    3    0    0 -0.67606817724E+02 -0.13256399777E+02  0.12619165580E+04  0.12699713861E+04  0.12509000000E+03 0.  0.
<mgrwt>
<rscale>  2 0.45501006E+03</rscale>
<asrwt>0</asrwt>
<pdfrwt beam="1">  1       21 0.32763885E+00 0.45501006E+03</pdfrwt>
<pdfrwt beam="2">  1       21 0.34164005E-02 0.45501006E+03</pdfrwt>
<totfact> 0.10024434E+04</totfact>
</mgrwt>
</event>
<event>
 7    0  0.4737014E-002  0.4507158E+03  0.7546771E-02  0.1027509E+00
         21   -1    0    0  502  501  0.00000000000E+00  0.00000000000E+00  0.76954920697E+03  0.76954920697E+03  0.00000000000E+00 0.  1.
         21   -1    0    0  501  502 -0.00000000000E+00 -0.00000000000E+00 -0.65994707368E+02  0.65994707368E+02  0.00000000000E+00 0.  1.
      99926    2    1    2    0    0  0.00000000000E+00 -0.71054273576E-14  0.70355449960E+03  0.83554391433E+03  0.45071576284E+03 0.  0.
      99925    2    3    3    0    0 -0.90715568008E+02  0.41041483379E+02  0.52714592068E+03  0.59746574975E+03  0.26299958706E+03 0.  0.
         25    1    3    3    0    0  0.90715568008E+02 -0.41041483379E+02  0.17640857892E+03  0.23807816459E+03  0.12509000000E+03 0.  0.
         25    1    4    4    0    0 -0.47733640243E+01  0.77765333782E+01  0.21926326717E+03  0.25260076782E+03  0.12509000000E+03 0.  0.
         25    1    4    4    0    0 -0.85942203983E+02  0.33264950001E+02  0.30788265351E+03  0.34486498192E+03  0.12509000000E+03 0.  0.
<mgrwt>
<rscale>  2 0.45071576E+03</rscale>
<asrwt>0</asrwt>
<pdfrwt beam="1">  1       21 0.11316900E+00 0.45071576E+03</pdfrwt>
<pdfrwt beam="2">  1       21 0.97051045E-02 0.45071576E+03</pdfrwt>
<totfact> 0.47675548E+04</totfact>
</mgrwt>
</event>
<event>
 7    0  0.4737014E-002  0.4561091E+03  0.7546771E-02  0.1025916E+00
         21   -1    0    0  502  501  0.00000000000E+00  0.00000000000E+00  0.13082316745E+04  0.13082316745E+04  0.00000000000E+00 0. -1.
         21   -1    0    0  501  502 -0.00000000000E+00 -0.00000000000E+00 -0.39755089271E+02  0.39755089271E+02  0.00000000000E+00 0. -1.
      99926    2    1    2    0    0  0.00000000000E+00  0.00000000000E+00  0.12684765852E+04  0.13479867637E+04  0.45610905277E+03 0.  0.
      99925    2    3    3    0    0  0.42600485070E+02  0.10574730274E+03  0.79588684363E+03  0.84600482652E+03  0.26323184696E+03 0.  0.
         25    1    4    4    0    0  0.29777436644E+02  0.63917944076E+02  0.29813713440E+03  0.33091608954E+03  0.12509000000E+03 0.  0.
         25    1    4    4    0    0  0.12823048425E+02  0.41829358667E+02  0.49774970924E+03  0.51508873698E+03  0.12509000000E+03 0.  0.
         25    1    3    3    0    0 -0.42600485070E+02 -0.10574730274E+03  0.47258974155E+03  0.50198193721E+03  0.12509000000E+03 0.  0.
<mgrwt>
<rscale>  2 0.45610905E+03</rscale>
<asrwt>0</asrwt>
<pdfrwt beam="1">  1       21 0.19238698E+00 0.45610905E+03</pdfrwt>
<pdfrwt beam="2">  1       21 0.58463375E-02 0.45610905E+03</pdfrwt>
<totfact> 0.27513642E+04</totfact>
</mgrwt>
</event>
<event>
 7    0  0.4737014E-002  0.4535461E+03  0.7546771E-02  0.1026670E+00
         21   -1    0    0  502  501  0.00000000000E+00  0.00000000000E+00  0.97099442976E+03  0.97099442976E+03  0.00000000000E+00 0.  1.
         21   -1    0    0  501  502 -0.00000000000E+00 -0.00000000000E+00 -0.52962214551E+02  0.52962214551E+02  0.00000000000E+00 0.  1.
      99926    2    1    2    0    0  0.00000000000E+00  0.00000000000E+00  0.91803221521E+03  0.10239566443E+04  0.45354609608E+03 0.  0.
      99925    2    3    3    0    0  0.72375015524E+02 -0.62084111233E+02  0.44628483689E+03  0.52667837534E+03  0.26292085439E+03 0.  0.
         25    1    4    4    0    0  0.26997355487E+02 -0.69289956875E+02  0.21189752620E+03  0.25705646274E+03  0.12509000000E+03 0.  0.
         25    1    3    3    0    0 -0.72375015524E+02  0.62084111233E+02  0.47174737832E+03  0.49727826897E+03  0.12509000000E+03 0.  0.
         25    1    4    4    0    0  0.45377660038E+02  0.72058456422E+01  0.23438731069E+03  0.26962191260E+03  0.12509000000E+03 0.  0.
<mgrwt>
<rscale>  2 0.45354610E+03</rscale>
<asrwt>0</asrwt>
<pdfrwt beam="1">  1       21 0.14279329E+00 0.45354610E+03</pdfrwt>
<pdfrwt beam="2">  1       21 0.77885615E-02 0.45354610E+03</pdfrwt>
<totfact> 0.38685009E+04</totfact>
</mgrwt>
</event>
<event>
 7    0  0.4737014E-002  0.4580845E+03  0.7546771E-02  0.1025338E+00
         21   -1    0    0  502  501  0.00000000000E+00  0.00000000000E+00  0.26212994291E+03  0.26212994291E+03  0.00000000000E+00 0. -1.
         21   -1    0    0  501  502 -0.00000000000E+00 -0.00000000000E+00 -0.20013110657E+03  0.20013110657E+03  0.00000000000E+00 0. -1.
      99926    2    1    2    0    0 -0.71054273576E-14  0.00000000000E+00  0.61998836340E+02  0.46226104948E+03  0.45808451421E+03 0.  0.
      99925    2    3    3    0    0  0.53318422827E+02 -0.90281603454E+02 -0.11314183866E+02  0.28333109345E+03  0.26297314620E+03 0.  0.
         25    1    4    4    0    0  0.38808486898E+01 -0.73917614636E+02  0.11998153021E+02  0.14584354122E+03  0.12509000000E+03 0.  0.
         25    1    3    3    0    0 -0.53318422827E+02  0.90281603454E+02  0.73313020206E+02  0.17892995603E+03  0.12509000000E+03 0.  0.
         25    1    4    4    0    0  0.49437574137E+02 -0.16363988818E+02 -0.23312336887E+02  0.13748755223E+03  0.12509000000E+03 0.  0.
<mgrwt>
<rscale>  2 0.45808451E+03</rscale>
<asrwt>0</asrwt>
<pdfrwt beam="1">  1       21 0.38548521E-01 0.45808451E+03</pdfrwt>
<pdfrwt beam="2">  1       21 0.29431045E-01 0.45808451E+03</pdfrwt>
<totfact> 0.66368458E+04</totfact>
</mgrwt>
</event>
<event>
 7    0  0.4737014E-002  0.4374943E+03  0.7546771E-02  0.1031518E+00
         21   -1    0    0  502  501  0.00000000000E+00  0.00000000000E+00  0.44542844352E+02  0.44542844352E+02  0.00000000000E+00 0.  1.
         21   -1    0    0  501  502 -0.00000000000E+00 -0.00000000000E+00 -0.10742535805E+04  0.10742535805E+04  0.00000000000E+00 0.  1.
      99926    2    1    2    0    0  0.00000000000E+00  0.00000000000E+00 -0.10297107362E+04  0.11187964249E+04  0.43749427440E+03 0.  0.
      99925    2    3    3    0    0 -0.88567435266E+02 -0.34022486381E+02 -0.69199120097E+03  0.74636695139E+03  0.26307809436E+03 0.  0.
         25    1    4    4    0    0 -0.38584666920E+02 -0.47181509708E+02 -0.27921084730E+03  0.31196326183E+03  0.12509000000E+03 0.  0.
         25    1    3    3    0    0  0.88567435266E+02  0.34022486381E+02 -0.33771953522E+03  0.37242947351E+03  0.12509000000E+03 0.  0.
         25    1    4    4    0    0 -0.49982768346E+02  0.13159023327E+02 -0.41278035367E+03  0.43440368956E+03  0.12509000000E+03 0.  0.
<mgrwt>
<rscale>  2 0.43749427E+03</rscale>
<asrwt>0</asrwt>
<pdfrwt beam="1">  1       21 0.65504169E-02 0.43749427E+03</pdfrwt>
<pdfrwt beam="2">  1       21 0.15797850E+00 0.43749427E+03</pdfrwt>
<totfact> 0.40032229E+04</totfact>
</mgrwt>
</event>
<event>
 7    0  0.4737014E-002  0.4610957E+03  0.7546771E-02  0.1024464E+00
         21   -1    0    0  502  501  0.00000000000E+00  0.00000000000E+00  0.77288363517E+03  0.77288363517E+03  0.00000000000E+00 0. -1.
         21   -1    0    0  501  502 -0.00000000000E+00 -0.00000000000E+00 -0.68771428731E+02  0.68771428731E+02  0.00000000000E+00 0. -1.
      99926    2    1    2    0    0  0.17763568394E-14 -0.17763568394E-14  0.70411220644E+03  0.84165506390E+03  0.46109570301E+03 0.  0.
      99925    2    3    3    0    0  0.15980038257E+02 -0.91547196704E+01  0.22644865145E+03  0.34754055250E+03  0.26299481625E+03 0.  0.
         25    1    4    4    0    0 -0.16489171027E+02  0.79036477519E+01  0.15096488928E+03  0.19690674519E+03  0.12509000000E+03 0.  0.
         25    1    3    3    0    0 -0.15980038257E+02  0.91547196704E+01  0.47766355499E+03  0.49411451141E+03  0.12509000000E+03 0.  0.
         25    1    4    4    0    0  0.32469209284E+02 -0.17058367422E+02  0.75483762173E+02  0.15063380730E+03  0.12509000000E+03 0.  0.
<mgrwt>
<rscale>  2 0.46109570E+03</rscale>
<asrwt>0</asrwt>
<pdfrwt beam="1">  1       21 0.11365935E+00 0.46109570E+03</pdfrwt>
<pdfrwt beam="2">  1       21 0.10113446E-01 0.46109570E+03</pdfrwt>
<totfact> 0.43687956E+04</totfact>
</mgrwt>
</event>
<event>
 7    0  0.4737014E-002  0.4548914E+03  0.7546771E-02  0.1026273E+00
         21   -1    0    0  502  501  0.00000000000E+00  0.00000000000E+00  0.88364228815E+03  0.88364228815E+03  0.00000000000E+00 0. -1.
         21   -1    0    0  501  502 -0.00000000000E+00 -0.00000000000E+00 -0.58543534957E+02  0.58543534957E+02  0.00000000000E+00 0. -1.
      99926    2    1    2    0    0  0.00000000000E+00  0.00000000000E+00  0.82509875320E+03  0.94218582311E+03  0.45489138566E+03 0.  0.
      99925    2    3    3    0    0 -0.89724516639E+02  0.63998786428E+02  0.46545809752E+03  0.54578294362E+03  0.26283349758E+03 0.  0.
         25    1    4    4    0    0 -0.56391798332E+01  0.28401985797E+02  0.24118965711E+03  0.27323695201E+03  0.12509000000E+03 0.  0.
         25    1    4    4    0    0 -0.84085336806E+02  0.35596800631E+02  0.22426844041E+03  0.27254599161E+03  0.12509000000E+03 0.  0.
         25    1    3    3    0    0  0.89724516639E+02 -0.63998786428E+02  0.35964065568E+03  0.39640287949E+03  0.12509000000E+03 0.  0.
<mgrwt>
<rscale>  2 0.45489139E+03</rscale>
<asrwt>0</asrwt>
<pdfrwt beam="1">  1       21 0.12994739E+00 0.45489139E+03</pdfrwt>
<pdfrwt beam="2">  1       21 0.86093439E-02 0.45489139E+03</pdfrwt>
<totfact> 0.41494084E+04</totfact>
</mgrwt>
</event>
<event>
 7    0  0.4737014E-002  0.4226905E+03  0.7546771E-02  0.1036194E+00
         21   -1    0    0  502  501  0.00000000000E+00  0.00000000000E+00  0.70610943661E+02  0.70610943661E+02  0.00000000000E+00 0. -1.
         21   -1    0    0  501  502 -0.00000000000E+00 -0.00000000000E+00 -0.63257632202E+03  0.63257632202E+03  0.00000000000E+00 0. -1.
      99926    2    1    2    0    0  0.00000000000E+00  0.00000000000E+00 -0.56196537836E+03  0.70318726568E+03  0.42269048267E+03 0.  0.
      99925    2    3    3    0    0 -0.73815099778E+01  0.75439275874E+02 -0.32636768687E+03  0.42587994272E+03  0.26289215953E+03 0.  0.
         25    1    4    4    0    0 -0.38279226163E+02  0.47510012440E+02 -0.13833206157E+03  0.19622886586E+03  0.12509000000E+03 0.  0.
         25    1    4    4    0    0  0.30897716185E+02  0.27929263434E+02 -0.18803562530E+03  0.22965107686E+03  0.12509000000E+03 0.  0.
         25    1    3    3    0    0  0.73815099778E+01 -0.75439275874E+02 -0.23559769149E+03  0.27730732296E+03  0.12509000000E+03 0.  0.
<mgrwt>
<rscale>  2 0.42269048E+03</rscale>
<asrwt>0</asrwt>
<pdfrwt beam="1">  1       21 0.10383962E-01 0.42269048E+03</pdfrwt>
<pdfrwt beam="2">  1       21 0.93025935E-01 0.42269048E+03</pdfrwt>
<totfact> 0.68570755E+04</totfact>
</mgrwt>
</event>
<event>
 7    0  0.4737014E-002  0.4541819E+03  0.7546771E-02  0.1026482E+00
         21   -1    0    0  502  501  0.00000000000E+00  0.00000000000E+00  0.78238739150E+02  0.78238739150E+02  0.00000000000E+00 0. -1.
         21   -1    0    0  501  502 -0.00000000000E+00 -0.00000000000E+00 -0.65914028688E+03  0.65914028688E+03  0.00000000000E+00 0. -1.
      99926    2    1    2    0    0  0.14210854715E-13  0.00000000000E+00 -0.58090154773E+03  0.73737902603E+03  0.45418192377E+03 0.  0.
      99925    2    3    3    0    0  0.65709263388E+02  0.74021828305E+02 -0.28134155241E+03  0.39799629628E+03  0.26353566054E+03 0.  0.
         25    1    3    3    0    0 -0.65709263388E+02 -0.74021828305E+02 -0.29955999532E+03  0.33938272976E+03  0.12509000000E+03 0.  0.
         25    1    4    4    0    0 -0.46162380813E+01  0.53316228205E+02 -0.12479815635E+03  0.18462399024E+03  0.12509000000E+03 0.  0.
         25    1    4    4    0    0  0.70325501470E+02  0.20705600099E+02 -0.15654339606E+03  0.21337230603E+03  0.12509000000E+03 0.  0.
<mgrwt>
<rscale>  2 0.45418192E+03</rscale>
<asrwt>0</asrwt>
<pdfrwt beam="1">  1       21 0.11505697E-01 0.45418192E+03</pdfrwt>
<pdfrwt beam="2">  1       21 0.96932392E-01 0.45418192E+03</pdfrwt>
<totfact> 0.51248897E+04</totfact>
</mgrwt>
</event>
<event>
 7    0  0.4737014E-002  0.4550033E+03  0.7546771E-02  0.1026240E+00
         21   -1    0    0  502  501  0.00000000000E+00  0.00000000000E+00  0.32382372932E+03  0.32382372932E+03  0.00000000000E+00 0.  1.
         21   -1    0    0  501  502 -0.00000000000E+00 -0.00000000000E+00 -0.15983081114E+03  0.15983081114E+03  0.00000000000E+00 0.  1.
      99926    2    1    2    0    0  0.14210854715E-13  0.00000000000E+00  0.16399291818E+03  0.48365454046E+03  0.45500333767E+03 0.  0.
      99925    2    3    3    0    0  0.73171275640E+02  0.21191529930E+02  0.19222583940E+03  0.33449783608E+03  0.26293518687E+03 0.  0.
         25    1    4    4    0    0  0.18439690154E+02  0.46749437921E+02  0.97136059696E+02  0.16615791980E+03  0.12509000000E+03 0.  0.
         25    1    4    4    0    0  0.54731585485E+02 -0.25557907991E+02  0.95089779704E+02  0.16833991628E+03  0.12509000000E+03 0.  0.
         25    1    3    3    0    0 -0.73171275640E+02 -0.21191529930E+02 -0.28232921221E+02  0.14915670438E+03  0.12509000000E+03 0.  0.
<mgrwt>
<rscale>  2 0.45500334E+03</rscale>
<asrwt>0</asrwt>
<pdfrwt beam="1">  1       21 0.47621137E-01 0.45500334E+03</pdfrwt>
<pdfrwt beam="2">  1       21 0.23504531E-01 0.45500334E+03</pdfrwt>
<totfact> 0.66433267E+04</totfact>
</mgrwt>
</event>
<event>
 7    0  0.4737014E-002  0.4551636E+03  0.7546771E-02  0.1026193E+00
         21   -1    0    0  502  501  0.00000000000E+00  0.00000000000E+00  0.22787436409E+03  0.22787436409E+03  0.00000000000E+00 0.  1.
         21   -1    0    0  501  502 -0.00000000000E+00 -0.00000000000E+00 -0.22728958490E+03  0.22728958490E+03  0.00000000000E+00 0.  1.
      99926    2    1    2    0    0 -0.71054273576E-14 -0.71054273576E-14  0.58477918177E+00  0.45516394899E+03  0.45516357334E+03 0.  0.
      99925    2    3    3    0    0 -0.57825642988E+02 -0.48917096424E+02  0.84701232456E+02  0.28646370263E+03  0.26296476349E+03 0.  0.
         25    1    4    4    0    0 -0.38176898331E+02 -0.22547323120E+02  0.84106650444E+02  0.15712190839E+03  0.12509000000E+03 0.  0.
         25    1    3    3    0    0  0.57825642988E+02  0.48917096424E+02 -0.84116453275E+02  0.16870024636E+03  0.12509000000E+03 0.  0.
         25    1    4    4    0    0 -0.19648744657E+02 -0.26369773304E+02  0.59458201288E+00  0.12934179424E+03  0.12509000000E+03 0.  0.
<mgrwt>
<rscale>  2 0.45516357E+03</rscale>
<asrwt>0</asrwt>
<pdfrwt beam="1">  1       21 0.33510936E-01 0.45516357E+03</pdfrwt>
<pdfrwt beam="2">  1       21 0.33424939E-01 0.45516357E+03</pdfrwt>
<totfact> 0.68444407E+04</totfact>
</mgrwt>
</event>
<event>
 7    0  0.4737014E-002  0.4509232E+03  0.7546771E-02  0.1027447E+00
         21   -1    0    0  502  501  0.00000000000E+00  0.00000000000E+00  0.55900934532E+03  0.55900934532E+03  0.00000000000E+00 0. -1.
         21   -1    0    0  501  502 -0.00000000000E+00 -0.00000000000E+00 -0.90933960621E+02  0.90933960621E+02  0.00000000000E+00 0. -1.
      99926    2    1    2    0    0  0.00000000000E+00  0.00000000000E+00  0.46807538470E+03  0.64994330594E+03  0.45092320319E+03 0.  0.
      99925    2    3    3    0    0 -0.36831163503E+02  0.48863576544E+02  0.42578327229E+03  0.50440872383E+03  0.26342471790E+03 0.  0.
         25    1    4    4    0    0 -0.24104991089E+02  0.36636695829E+02  0.29049622299E+03  0.31930997753E+03  0.12509000000E+03 0.  0.
         25    1    4    4    0    0 -0.12726172414E+02  0.12226880715E+02  0.13528704930E+03  0.18509874631E+03  0.12509000000E+03 0.  0.
         25    1    3    3    0    0  0.36831163503E+02 -0.48863576544E+02  0.42292112413E+02  0.14553458211E+03  0.12509000000E+03 0.  0.
<mgrwt>
<rscale>  2 0.45092320E+03</rscale>
<asrwt>0</asrwt>
<pdfrwt beam="1">  1       21 0.82207255E-01 0.45092320E+03</pdfrwt>
<pdfrwt beam="2">  1       21 0.13372642E-01 0.45092320E+03</pdfrwt>
<totfact> 0.57532842E+04</totfact>
</mgrwt>
</event>
<event>
 7    0  0.4737014E-002  0.4405286E+03  0.7546771E-02  0.1030585E+00
         21   -1    0    0  502  501  0.00000000000E+00  0.00000000000E+00  0.20931837768E+03  0.20931837768E+03  0.00000000000E+00 0.  1.
         21   -1    0    0  501  502 -0.00000000000E+00 -0.00000000000E+00 -0.23178264100E+03  0.23178264100E+03  0.00000000000E+00 0.  1.
      99926    2    1    2    0    0  0.14210854715E-13 -0.17763568394E-14 -0.22464263317E+02  0.44110101867E+03  0.44052862058E+03 0.  0.
      99925    2    3    3    0    0 -0.97834531913E+02  0.10084736330E+02 -0.25182346520E+02  0.28195268027E+03  0.26303966581E+03 0.  0.
         25    1    4    4    0    0 -0.14028508715E+02  0.16557010985E+02 -0.32550728517E+02  0.13106483776E+03  0.12509000000E+03 0.  0.
         25    1    3    3    0    0  0.97834531913E+02 -0.10084736330E+02  0.27180832036E+01  0.15914833841E+03  0.12509000000E+03 0.  0.
         25    1    4    4    0    0 -0.83806023199E+02 -0.64722746551E+01  0.73683819965E+01  0.15088784251E+03  0.12509000000E+03 0.  0.
<mgrwt>
<rscale>  2 0.44052862E+03</rscale>
<asrwt>0</asrwt>
<pdfrwt beam="1">  1       21 0.30782115E-01 0.44052862E+03</pdfrwt>
<pdfrwt beam="2">  1       21 0.34085682E-01 0.44052862E+03</pdfrwt>
<totfact> 0.78225907E+04</totfact>
</mgrwt>
</event>
<event>
 7    0  0.4737014E-002  0.4544979E+03  0.7546771E-02  0.1026389E+00
         21   -1    0    0  502  501  0.00000000000E+00  0.00000000000E+00  0.45797411922E+02  0.45797411922E+02  0.00000000000E+00 0. -1.
         21   -1    0    0  501  502 -0.00000000000E+00 -0.00000000000E+00 -0.11276200456E+04  0.11276200456E+04  0.00000000000E+00 0. -1.
      99926    2    1    2    0    0 -0.14210854715E-13  0.88817841970E-15 -0.10818226336E+04  0.11734174575E+04  0.45449787554E+03 0.  0.
      99925    2    3    3    0    0  0.10746627022E+03 -0.50024141797E+01 -0.76791323205E+03  0.81878998549E+03  0.26296822053E+03 0.  0.
         25    1    4    4    0    0  0.64747722905E+02  0.16247612439E+02 -0.29522882566E+03  0.32751155725E+03  0.12509000000E+03 0.  0.
         25    1    3    3    0    0 -0.10746627022E+03  0.50024141797E+01 -0.31390940160E+03  0.35462747200E+03  0.12509000000E+03 0.  0.
         25    1    4    4    0    0  0.42718547314E+02 -0.21250026619E+02 -0.47268440639E+03  0.49127842824E+03  0.12509000000E+03 0.  0.
<mgrwt>
<rscale>  2 0.45449788E+03</rscale>
<asrwt>0</asrwt>
<pdfrwt beam="1">  1       21 0.67349138E-02 0.45449788E+03</pdfrwt>
<pdfrwt beam="2">  1       21 0.16582647E+00 0.45449788E+03</pdfrwt>
<totfact> 0.33139526E+04</totfact>
</mgrwt>
</event>
<event>
 7    0  0.4737014E-002  0.4560383E+03  0.7546771E-02  0.1025937E+00
         21   -1    0    0  502  501  0.00000000000E+00  0.00000000000E+00  0.59165658529E+02  0.59165658529E+02  0.00000000000E+00 0.  1.
         21   -1    0    0  501  502 -0.00000000000E+00 -0.00000000000E+00 -0.87876533851E+03  0.87876533851E+03  0.00000000000E+00 0.  1.
      99926    2    1    2    0    0  0.00000000000E+00  0.00000000000E+00 -0.81959967998E+03  0.93793099704E+03  0.45603828763E+03 0.  0.
      99925    2    3    3    0    0 -0.49624594698E+02 -0.54205982931E+02 -0.69494011397E+03  0.74665004011E+03  0.26295176633E+03 0.  0.
         25    1    4    4    0    0 -0.57920643612E+02 -0.55444248240E+01 -0.37642629508E+03  0.40091121877E+03  0.12509000000E+03 0.  0.
         25    1    3    3    0    0  0.49624594698E+02  0.54205982931E+02 -0.12465956601E+03  0.19128095693E+03  0.12509000000E+03 0.  0.
         25    1    4    4    0    0  0.82960489141E+01 -0.48661558107E+02 -0.31851381889E+03  0.34573882135E+03  0.12509000000E+03 0.  0.
<mgrwt>
<rscale>  2 0.45603829E+03</rscale>
<asrwt>0</asrwt>
<pdfrwt beam="1">  1       21 0.87008326E-02 0.45603829E+03</pdfrwt>
<pdfrwt beam="2">  1       21 0.12923019E+00 0.45603829E+03</pdfrwt>
<totfact> 0.41297052E+04</totfact>
</mgrwt>
</event>
<event>
 7    0  0.4737014E-002  0.4509009E+03  0.7546771E-02  0.1027454E+00
         21   -1    0    0  502  501  0.00000000000E+00  0.00000000000E+00  0.15502217970E+03  0.15502217970E+03  0.00000000000E+00 0. -1.
         21   -1    0    0  501  502 -0.00000000000E+00 -0.00000000000E+00 -0.32787500816E+03  0.32787500816E+03  0.00000000000E+00 0. -1.
      99926    2    1    2    0    0  0.00000000000E+00  0.00000000000E+00 -0.17285282846E+03  0.48289718785E+03  0.45090086907E+03 0.  0.
      99925    2    3    3    0    0 -0.92001389343E+02 -0.34581729109E+02 -0.57934095994E+02  0.28664741129E+03  0.26296430802E+03 0.  0.
         25    1    4    4    0    0 -0.45147318275E+02 -0.53723522534E+02 -0.48375513936E+02  0.15136774977E+03  0.12509000000E+03 0.  0.
         25    1    3    3    0    0  0.92001389343E+02  0.34581729109E+02 -0.11491873247E+03  0.19624977656E+03  0.12509000000E+03 0.  0.
         25    1    4    4    0    0 -0.46854071067E+02  0.19141793425E+02 -0.95585820583E+01  0.13527966152E+03  0.12509000000E+03 0.  0.
<mgrwt>
<rscale>  2 0.45090087E+03</rscale>
<asrwt>0</asrwt>
<pdfrwt beam="1">  1       21 0.22797380E-01 0.45090087E+03</pdfrwt>
<pdfrwt beam="2">  1       21 0.48216912E-01 0.45090087E+03</pdfrwt>
<totfact> 0.68698210E+04</totfact>
</mgrwt>
</event>
<event>
 7    0  0.4737014E-002  0.4592535E+03  0.7546771E-02  0.1024998E+00
         21   -1    0    0  502  501  0.00000000000E+00  0.00000000000E+00  0.12568926661E+03  0.12568926661E+03  0.00000000000E+00 0.  1.
         21   -1    0    0  501  502 -0.00000000000E+00 -0.00000000000E+00 -0.41951424198E+03  0.41951424198E+03  0.00000000000E+00 0.  1.
      99926    2    1    2    0    0  0.71054273576E-14 -0.88817841970E-15 -0.29382497537E+03  0.54520350860E+03  0.45925346992E+03 0.  0.
      99925    2    3    3    0    0  0.43079221895E+02 -0.40784638831E+01 -0.31339603732E+03  0.41140146155E+03  0.26298599418E+03 0.  0.
         25    1    4    4    0    0  0.36179141462E+02 -0.97446147054E+01 -0.10237320940E+03  0.16592670037E+03  0.12509000000E+03 0.  0.
         25    1    4    4    0    0  0.69000804331E+01  0.56661508223E+01 -0.21102282792E+03  0.24547476118E+03  0.12509000000E+03 0.  0.
         25    1    3    3    0    0 -0.43079221895E+02  0.40784638831E+01  0.19571061952E+02  0.13380204704E+03  0.12509000000E+03 0.  0.
<mgrwt>
<rscale>  2 0.45925347E+03</rscale>
<asrwt>0</asrwt>
<pdfrwt beam="1">  1       21 0.18483716E-01 0.45925347E+03</pdfrwt>
<pdfrwt beam="2">  1       21 0.61693270E-01 0.45925347E+03</pdfrwt>
<totfact> 0.60134891E+04</totfact>
</mgrwt>
</event>
<event>
 7    0  0.4737014E-002  0.4614923E+03  0.7546771E-02  0.1024349E+00
         21   -1    0    0  502  501  0.00000000000E+00  0.00000000000E+00  0.13463229886E+04  0.13463229886E+04  0.00000000000E+00 0.  1.
         21   -1    0    0  501  502 -0.00000000000E+00 -0.00000000000E+00 -0.39547552349E+02  0.39547552349E+02  0.00000000000E+00 0.  1.
      99926    2    1    2    0    0  0.00000000000E+00  0.00000000000E+00  0.13067754363E+04  0.13858705410E+04  0.46149227023E+03 0.  0.
      99925    2    3    3    0    0 -0.41461559861E+02 -0.40563959143E+02  0.11301825118E+04  0.11618235262E+04  0.26297699608E+03 0.  0.
         25    1    3    3    0    0  0.41461559861E+02  0.40563959143E+02  0.17659292448E+03  0.22404701472E+03  0.12509000000E+03 0.  0.
         25    1    4    4    0    0  0.31457559167E+01  0.61661867664E+01  0.62248973141E+03  0.63497156743E+03  0.12509000000E+03 0.  0.
         25    1    4    4    0    0 -0.44607315778E+02 -0.46730145910E+02  0.50769278037E+03  0.52685195881E+03  0.12509000000E+03 0.  0.
<mgrwt>
<rscale>  2 0.46149227E+03</rscale>
<asrwt>0</asrwt>
<pdfrwt beam="1">  1       21 0.19798865E+00 0.46149227E+03</pdfrwt>
<pdfrwt beam="2">  1       21 0.58158174E-02 0.46149227E+03</pdfrwt>
<totfact> 0.25404775E+04</totfact>
</mgrwt>
</event>
<event>
 7    0  0.4737014E-002  0.4517727E+03  0.7546771E-02  0.1027195E+00
         21   -1    0    0  502  501  0.00000000000E+00  0.00000000000E+00  0.44086149507E+03  0.44086149507E+03  0.00000000000E+00 0.  1.
         21   -1    0    0  501  502 -0.00000000000E+00 -0.00000000000E+00 -0.11573848434E+03  0.11573848434E+03  0.00000000000E+00 0.  1.
      99926    2    1    2    0    0  0.71054273576E-14  0.88817841970E-15  0.32512301073E+03  0.55659997941E+03  0.45177269170E+03 0.  0.
      99925    2    3    3    0    0 -0.34367022242E+02 -0.43014225958E+01  0.33398064333E+03  0.42650170805E+03  0.26298487105E+03 0.  0.
         25    1    4    4    0    0  0.11391947794E+02 -0.84272527894E+01  0.20792821448E+03  0.24306880824E+03  0.12509000000E+03 0.  0.
         25    1    4    4    0    0 -0.45758970037E+02  0.41258301935E+01  0.12605242885E+03  0.18343289981E+03  0.12509000000E+03 0.  0.
         25    1    3    3    0    0  0.34367022242E+02  0.43014225958E+01 -0.88576325970E+01  0.13009827135E+03  0.12509000000E+03 0.  0.
<mgrwt>
<rscale>  2 0.45177269E+03</rscale>
<asrwt>0</asrwt>
<pdfrwt beam="1">  1       21 0.64832573E-01 0.45177269E+03</pdfrwt>
<pdfrwt beam="2">  1       21 0.17020365E-01 0.45177269E+03</pdfrwt>
<totfact> 0.63026169E+04</totfact>
</mgrwt>
</event>
<event>
 6    0  0.4737014E-002  0.4518186E+03  0.7546771E-02  0.1027181E+00
         21   -1    0    0  502  501  0.00000000000E+00  0.00000000000E+00  0.15046631809E+03  0.15046631809E+03  0.00000000000E+00 0.  1.
         21   -1    0    0  501  502 -0.00000000000E+00 -0.00000000000E+00 -0.33917890582E+03  0.33917890582E+03  0.00000000000E+00 0.  1.
      99926    2    1    2    0    0  0.00000000000E+00  0.00000000000E+00 -0.18871258773E+03  0.48964522392E+03  0.45181855267E+03 0.  0.
         25    1    3    3    0    0 -0.76306079238E+02  0.64461847394E+02 -0.12761026146E+03  0.20471891566E+03  0.12509000000E+03 0.  0.
         25    1    3    3    0    0  0.64367759639E+02 -0.21021517304E+02 -0.52755004997E+02  0.15170929874E+03  0.12509000000E+03 0.  0.
         25    1    3    3    0    0  0.11938319599E+02 -0.43440330090E+02 -0.83473212684E+01  0.13321700952E+03  0.12509000000E+03 0.  0.
<mgrwt>
<rscale>  2 0.45181855E+03</rscale>
<asrwt>0</asrwt>
<pdfrwt beam="1">  1       21 0.22127400E-01 0.45181855E+03</pdfrwt>
<pdfrwt beam="2">  1       21 0.49879250E-01 0.45181855E+03</pdfrwt>
<totfact> 0.67698145E+04</totfact>
</mgrwt>
</event>
<event>
 7    0  0.4737014E-002  0.4544553E+03  0.7546771E-02  0.1026402E+00
         21   -1    0    0  502  501  0.00000000000E+00  0.00000000000E+00  0.57311269969E+02  0.57311269969E+02  0.00000000000E+00 0.  1.
         21   -1    0    0  501  502 -0.00000000000E+00 -0.00000000000E+00 -0.90091174303E+03  0.90091174303E+03  0.00000000000E+00 0.  1.
      99926    2    1    2    0    0 -0.71054273576E-14  0.00000000000E+00 -0.84360047306E+03  0.95822301300E+03  0.45445526127E+03 0.  0.
      99925    2    3    3    0    0 -0.37855337929E+02  0.10085502176E+03 -0.46129140578E+03  0.54179475621E+03  0.26295823773E+03 0.  0.
         25    1    4    4    0    0 -0.53724244021E+02  0.34575544290E+02 -0.25448512411E+03  0.29067498887E+03  0.12509000000E+03 0.  0.
         25    1    4    4    0    0  0.15868906092E+02  0.66279477474E+02 -0.20680628167E+03  0.25111976735E+03  0.12509000000E+03 0.  0.
         25    1    3    3    0    0  0.37855337929E+02 -0.10085502176E+03 -0.38230906728E+03  0.41642825679E+03  0.12509000000E+03 0.  0.
<mgrwt>
<rscale>  2 0.45445526E+03</rscale>
<asrwt>0</asrwt>
<pdfrwt beam="1">  1       21 0.84281280E-02 0.45445526E+03</pdfrwt>
<pdfrwt beam="2">  1       21 0.13248702E+00 0.45445526E+03</pdfrwt>
<totfact> 0.40983923E+04</totfact>
</mgrwt>
</event>
<event>
 7    0  0.4737014E-002  0.4626109E+03  0.7546771E-02  0.1024027E+00
         21   -1    0    0  502  501  0.00000000000E+00  0.00000000000E+00  0.48210382221E+03  0.48210382221E+03  0.00000000000E+00 0.  1.
         21   -1    0    0  501  502 -0.00000000000E+00 -0.00000000000E+00 -0.11097652213E+03  0.11097652213E+03  0.00000000000E+00 0.  1.
      99926    2    1    2    0    0 -0.71054273576E-14  0.00000000000E+00  0.37112730007E+03  0.59308034434E+03  0.46261087534E+03 0.  0.
      99925    2    3    3    0    0 -0.58672411651E+02  0.60408994337E+02  0.12191871387E+03  0.30180019393E+03  0.26292106378E+03 0.  0.
         25    1    4    4    0    0 -0.69037741106E+02  0.33978250442E+02  0.77500480166E+02  0.16605590542E+03  0.12509000000E+03 0.  0.
         25    1    3    3    0    0  0.58672411651E+02 -0.60408994337E+02  0.24920858620E+03  0.29128015041E+03  0.12509000000E+03 0.  0.
         25    1    4    4    0    0  0.10365329456E+02  0.26430743896E+02  0.44418233706E+02  0.13574428851E+03  0.12509000000E+03 0.  0.
<mgrwt>
<rscale>  2 0.46261088E+03</rscale>
<asrwt>0</asrwt>
<pdfrwt beam="1">  1       21 0.70897620E-01 0.46261088E+03</pdfrwt>
<pdfrwt beam="2">  1       21 0.16320077E-01 0.46261088E+03</pdfrwt>
<totfact> 0.55680714E+04</totfact>
</mgrwt>
</event>
<event>
 7    0  0.4737014E-002  0.3951232E+03  0.7546771E-02  0.1045482E+00
         21   -1    0    0  502  501  0.00000000000E+00  0.00000000000E+00  0.38292489324E+03  0.38292489324E+03  0.00000000000E+00 0. -1.
         21   -1    0    0  501  502 -0.00000000000E+00 -0.00000000000E+00 -0.10192750367E+03  0.10192750367E+03  0.00000000000E+00 0. -1.
      99926    2    1    2    0    0 -0.35527136788E-14  0.66613381478E-15  0.28099738958E+03  0.48485239691E+03  0.39512316287E+03 0.  0.
      99925    2    3    3    0    0  0.31854313875E+02 -0.10272046160E+01  0.20337836422E+03  0.33422712127E+03  0.26330449503E+03 0.  0.
         25    1    4    4    0    0  0.48866525138E+02 -0.21493138696E+02  0.88068913991E+02  0.16202942326E+03  0.12509000000E+03 0.  0.
         25    1    4    4    0    0 -0.17012211263E+02  0.20465934080E+02  0.11530945023E+03  0.17219769802E+03  0.12509000000E+03 0.  0.
         25    1    3    3    0    0 -0.31854313875E+02  0.10272046160E+01  0.77619025355E+02  0.15062527563E+03  0.12509000000E+03 0.  0.
<mgrwt>
<rscale>  2 0.39512316E+03</rscale>
<asrwt>0</asrwt>
<pdfrwt beam="1">  1       21 0.56312484E-01 0.39512316E+03</pdfrwt>
<pdfrwt beam="2">  1       21 0.14989339E-01 0.39512316E+03</pdfrwt>
<totfact> 0.11002187E+05</totfact>
</mgrwt>
</event>
<event>
 7    0  0.4737014E-002  0.4593889E+03  0.7546771E-02  0.1024959E+00
         21   -1    0    0  502  501  0.00000000000E+00  0.00000000000E+00  0.53814860378E+03  0.53814860378E+03  0.00000000000E+00 0.  1.
         21   -1    0    0  501  502 -0.00000000000E+00 -0.00000000000E+00 -0.98038970010E+02  0.98038970010E+02  0.00000000000E+00 0.  1.
      99926    2    1    2    0    0  0.00000000000E+00 -0.71054273576E-14  0.44010963377E+03  0.63618757379E+03  0.45938887591E+03 0.  0.
      99925    2    3    3    0    0 -0.48910997410E+02 -0.43520501037E+02  0.41046787692E+03  0.49192232667E+03  0.26309195695E+03 0.  0.
         25    1    3    3    0    0  0.48910997410E+02  0.43520501037E+02  0.29641756852E+02  0.14426524712E+03  0.12509000000E+03 0.  0.
         25    1    4    4    0    0 -0.17953543012E+02 -0.47616821819E+02  0.15367429379E+03  0.20458002859E+03  0.12509000000E+03 0.  0.
         25    1    4    4    0    0 -0.30957454398E+02  0.40963207825E+01  0.25679358313E+03  0.28734229808E+03  0.12509000000E+03 0.  0.
<mgrwt>
<rscale>  2 0.45938888E+03</rscale>
<asrwt>0</asrwt>
<pdfrwt beam="1">  1       21 0.79139499E-01 0.45938888E+03</pdfrwt>
<pdfrwt beam="2">  1       21 0.14417496E-01 0.45938888E+03</pdfrwt>
<totfact> 0.54588631E+04</totfact>
</mgrwt>
</event>
<event>
 7    0  0.4737014E-002  0.4531376E+03  0.7546771E-02  0.1026791E+00
         21   -1    0    0  502  501  0.00000000000E+00  0.00000000000E+00  0.56979393729E+02  0.56979393729E+02  0.00000000000E+00 0. -1.
         21   -1    0    0  501  502 -0.00000000000E+00 -0.00000000000E+00 -0.90091183217E+03  0.90091183217E+03  0.00000000000E+00 0. -1.
      99926    2    1    2    0    0  0.71054273576E-14 -0.35527136788E-14 -0.84393243844E+03  0.95789122590E+03  0.45313755086E+03 0.  0.
      99925    2    3    3    0    0  0.36266106410E+02 -0.28220731040E+02 -0.74656817904E+03  0.79284896694E+03  0.26293306807E+03 0.  0.
         25    1    4    4    0    0  0.20598549084E+02 -0.53610741450E+02 -0.41407136803E+03  0.43634965079E+03  0.12509000000E+03 0.  0.
         25    1    3    3    0    0 -0.36266106410E+02  0.28220731040E+02 -0.97364259399E+02  0.16504225896E+03  0.12509000000E+03 0.  0.
         25    1    4    4    0    0  0.15667557326E+02  0.25390010411E+02 -0.33249681102E+03  0.35649931616E+03  0.12509000000E+03 0.  0.
<mgrwt>
<rscale>  2 0.45313755E+03</rscale>
<asrwt>0</asrwt>
<pdfrwt beam="1">  1       21 0.83793235E-02 0.45313755E+03</pdfrwt>
<pdfrwt beam="2">  1       21 0.13248702E+00 0.45313755E+03</pdfrwt>
<totfact> 0.41422877E+04</totfact>
</mgrwt>
</event>
<event>
 7    0  0.4737014E-002  0.4567328E+03  0.7546771E-02  0.1025733E+00
         21   -1    0    0  502  501  0.00000000000E+00  0.00000000000E+00  0.85332567893E+03  0.85332567893E+03  0.00000000000E+00 0. -1.
         21   -1    0    0  501  502 -0.00000000000E+00 -0.00000000000E+00 -0.61115253347E+02  0.61115253347E+02  0.00000000000E+00 0. -1.
      99926    2    1    2    0    0  0.00000000000E+00  0.00000000000E+00  0.79221042558E+03  0.91444093228E+03  0.45673281054E+03 0.  0.
      99925    2    3    3    0    0 -0.37627649075E+02 -0.10558830194E+03  0.54751311997E+03  0.61764300614E+03  0.26295919269E+03 0.  0.
         25    1    3    3    0    0  0.37627649075E+02  0.10558830194E+03  0.24469730562E+03  0.29679792613E+03  0.12509000000E+03 0.  0.
         25    1    4    4    0    0 -0.39065837277E+02 -0.47687003266E+02  0.20028349204E+03  0.24405158309E+03  0.12509000000E+03 0.  0.
         25    1    4    4    0    0  0.14381882013E+01 -0.57901298671E+02  0.34722962792E+03  0.37359142306E+03  0.12509000000E+03 0.  0.
<mgrwt>
<rscale>  2 0.45673281E+03</rscale>
<asrwt>0</asrwt>
<pdfrwt beam="1">  1       21 0.12548906E+00 0.45673281E+03</pdfrwt>
<pdfrwt beam="2">  1       21 0.89875378E-02 0.45673281E+03</pdfrwt>
<totfact> 0.42042116E+04</totfact>
</mgrwt>
</event>
<event>
 7    0  0.4737014E-002  0.4284015E+03  0.7546771E-02  0.1034366E+00
         21   -1    0    0  502  501  0.00000000000E+00  0.00000000000E+00  0.36760089663E+03  0.36760089663E+03  0.00000000000E+00 0.  1.
         21   -1    0    0  501  502 -0.00000000000E+00 -0.00000000000E+00 -0.12481457931E+03  0.12481457931E+03  0.00000000000E+00 0.  1.
      99926    2    1    2    0    0  0.14210854715E-13  0.71054273576E-14  0.24278631732E+03  0.49241547594E+03  0.42840145316E+03 0.  0.
      99925    2    3    3    0    0 -0.64154087896E+02 -0.55887991148E+02  0.16859652671E+03  0.32391963718E+03  0.26317281012E+03 0.  0.
         25    1    4    4    0    0 -0.28479643517E+02  0.96251906887E+01  0.58406757194E+02  0.14128903629E+03  0.12509000000E+03 0.  0.
         25    1    4    4    0    0 -0.35674444379E+02 -0.65513181837E+02  0.11018976951E+03  0.18263060089E+03  0.12509000000E+03 0.  0.
         25    1    3    3    0    0  0.64154087896E+02  0.55887991148E+02  0.74189790611E+02  0.16849583876E+03  0.12509000000E+03 0.  0.
<mgrwt>
<rscale>  2 0.42840145E+03</rscale>
<asrwt>0</asrwt>
<pdfrwt beam="1">  1       21 0.54058955E-01 0.42840145E+03</pdfrwt>
<pdfrwt beam="2">  1       21 0.18355085E-01 0.42840145E+03</pdfrwt>
<totfact> 0.81745679E+04</totfact>
</mgrwt>
</event>
<event>
 7    0  0.4737014E-002  0.4590154E+03  0.7546771E-02  0.1025067E+00
         21   -1    0    0  502  501  0.00000000000E+00  0.00000000000E+00  0.14371521577E+03  0.14371521577E+03  0.00000000000E+00 0.  1.
         21   -1    0    0  501  502 -0.00000000000E+00 -0.00000000000E+00 -0.36651500175E+03  0.36651500175E+03  0.00000000000E+00 0.  1.
      99926    2    1    2    0    0  0.00000000000E+00  0.00000000000E+00 -0.22279978598E+03  0.51023021752E+03  0.45901539215E+03 0.  0.
      99925    2    3    3    0    0 -0.37129173424E+02  0.93264574471E+02 -0.20646253421E+03  0.34901213458E+03  0.26287988832E+03 0.  0.
         25    1    4    4    0    0 -0.15159838915E+02  0.19630493433E+02 -0.13509528067E+03  0.18577787799E+03  0.12509000000E+03 0.  0.
         25    1    3    3    0    0  0.37129173424E+02 -0.93264574471E+02 -0.16337251776E+02  0.16121808294E+03  0.12509000000E+03 0.  0.
         25    1    4    4    0    0 -0.21969334509E+02  0.73634081037E+02 -0.71367253531E+02  0.16323425659E+03  0.12509000000E+03 0.  0.
<mgrwt>
<rscale>  2 0.45901539E+03</rscale>
<asrwt>0</asrwt>
<pdfrwt beam="1">  1       21 0.21134591E-01 0.45901539E+03</pdfrwt>
<pdfrwt beam="2">  1       21 0.53899264E-01 0.45901539E+03</pdfrwt>
<totfact> 0.62540761E+04</totfact>
</mgrwt>
</event>
<event>
 7    0  0.4737014E-002  0.4592979E+03  0.7546771E-02  0.1024985E+00
         21   -1    0    0  502  501  0.00000000000E+00  0.00000000000E+00  0.10120401705E+03  0.10120401705E+03  0.00000000000E+00 0.  1.
         21   -1    0    0  501  502 -0.00000000000E+00 -0.00000000000E+00 -0.52111222222E+03  0.52111222222E+03  0.00000000000E+00 0.  1.
      99926    2    1    2    0    0  0.35527136788E-14  0.71054273576E-14 -0.41990820517E+03  0.62231623928E+03  0.45929794349E+03 0.  0.
      99925    2    3    3    0    0  0.18209102223E+02 -0.54233166414E+02 -0.40177367826E+03  0.48357483627E+03  0.26296335483E+03 0.  0.
         25    1    4    4    0    0  0.63820322362E+01 -0.67974445848E+02 -0.20340582674E+03  0.24836000901E+03  0.12509000000E+03 0.  0.
         25    1    4    4    0    0  0.11827069987E+02  0.13741279435E+02 -0.19836785151E+03  0.23521482725E+03  0.12509000000E+03 0.  0.
         25    1    3    3    0    0 -0.18209102223E+02  0.54233166414E+02 -0.18134526912E+02  0.13874140301E+03  0.12509000000E+03 0.  0.
<mgrwt>
<rscale>  2 0.45929794E+03</rscale>
<asrwt>0</asrwt>
<pdfrwt beam="1">  1       21 0.14882944E-01 0.45929794E+03</pdfrwt>
<pdfrwt beam="2">  1       21 0.76634149E-01 0.45929794E+03</pdfrwt>
<totfact> 0.55420346E+04</totfact>
</mgrwt>
</event>
<event>
 7    0  0.4737014E-002  0.4620487E+03  0.7546771E-02  0.1024189E+00
         21   -1    0    0  502  501  0.00000000000E+00  0.00000000000E+00  0.29167908632E+03  0.29167908632E+03  0.00000000000E+00 0.  1.
         21   -1    0    0  501  502 -0.00000000000E+00 -0.00000000000E+00 -0.18298279669E+03  0.18298279669E+03  0.00000000000E+00 0.  1.
      99926    2    1    2    0    0 -0.35527136788E-14  0.00000000000E+00  0.10869628963E+03  0.47466188301E+03  0.46204872016E+03 0.  0.
      99925    2    3    3    0    0 -0.28142138052E+02  0.10023745448E+03  0.74567503027E+01  0.28299425497E+03  0.26304109566E+03 0.  0.
         25    1    3    3    0    0  0.28142138052E+02 -0.10023745448E+03  0.10123953933E+03  0.19166762804E+03  0.12509000000E+03 0.  0.
         25    1    4    4    0    0 -0.95567802403E+01  0.94598134785E+01 -0.10714747813E+02  0.12626612388E+03  0.12509000000E+03 0.  0.
         25    1    4    4    0    0 -0.18585357811E+02  0.90777641002E+02  0.18171498116E+02  0.15672813109E+03  0.12509000000E+03 0.  0.
<mgrwt>
<rscale>  2 0.46204872E+03</rscale>
<asrwt>0</asrwt>
<pdfrwt beam="1">  1       21 0.42893983E-01 0.46204872E+03</pdfrwt>
<pdfrwt beam="2">  1       21 0.26909235E-01 0.46204872E+03</pdfrwt>
<totfact> 0.63466835E+04</totfact>
</mgrwt>
</event>
<event>
 7    0  0.4737014E-002  0.4541892E+03  0.7546771E-02  0.1026480E+00
         21   -1    0    0  502  501  0.00000000000E+00  0.00000000000E+00  0.11973716996E+04  0.11973716996E+04  0.00000000000E+00 0. -1.
         21   -1    0    0  501  502 -0.00000000000E+00 -0.00000000000E+00 -0.43070961483E+02  0.43070961483E+02  0.00000000000E+00 0. -1.
      99926    2    1    2    0    0  0.00000000000E+00  0.00000000000E+00  0.11543007381E+04  0.12404426611E+04  0.45418916921E+03 0.  0.
      99925    2    3    3    0    0  0.97364318112E+02  0.51779599396E+02  0.76938085291E+03  0.82095277624E+03  0.26430215029E+03 0.  0.
         25    1    4    4    0    0  0.75894363988E+02  0.73757499005E+01  0.47999264261E+03  0.50185137365E+03  0.12509000000E+03 0.  0.
         25    1    4    4    0    0  0.21469954124E+02  0.44403849495E+02  0.28938821030E+03  0.31910140259E+03  0.12509000000E+03 0.  0.
         25    1    3    3    0    0 -0.97364318112E+02 -0.51779599396E+02  0.38491988524E+03  0.41948988487E+03  0.12509000000E+03 0.  0.
<mgrwt>
<rscale>  2 0.45418917E+03</rscale>
<asrwt>0</asrwt>
<pdfrwt beam="1">  1       21 0.17608405E+00 0.45418917E+03</pdfrwt>
<pdfrwt beam="2">  1       21 0.63339657E-02 0.45418917E+03</pdfrwt>
<totfact> 0.31090393E+04</totfact>
</mgrwt>
</event>
<event>
 7    0  0.4737014E-002  0.4591504E+03  0.7546771E-02  0.1025028E+00
         21   -1    0    0  502  501  0.00000000000E+00  0.00000000000E+00  0.54848586965E+02  0.54848586965E+02  0.00000000000E+00 0. -1.
         21   -1    0    0  501  502 -0.00000000000E+00 -0.00000000000E+00 -0.96091409602E+03  0.96091409602E+03  0.00000000000E+00 0. -1.
      99926    2    1    2    0    0  0.00000000000E+00 -0.71054273576E-14 -0.90606550906E+03  0.10157626830E+04  0.45915043444E+03 0.  0.
      99925    2    3    3    0    0 -0.94931304987E+02 -0.49457346559E+02 -0.67279206267E+03  0.73024212211E+03  0.26295706021E+03 0.  0.
         25    1    4    4    0    0 -0.29090137040E+02 -0.44863505839E+02 -0.40743807807E+03  0.42954890966E+03  0.12509000000E+03 0.  0.
         25    1    3    3    0    0  0.94931304987E+02  0.49457346559E+02 -0.23327344638E+03  0.28552056087E+03  0.12509000000E+03 0.  0.
         25    1    4    4    0    0 -0.65841167947E+02 -0.45938407200E+01 -0.26535398461E+03  0.30069321246E+03  0.12509000000E+03 0.  0.
<mgrwt>
<rscale>  2 0.45915043E+03</rscale>
<asrwt>0</asrwt>
<pdfrwt beam="1">  1       21 0.80659691E-02 0.45915043E+03</pdfrwt>
<pdfrwt beam="2">  1       21 0.14131089E+00 0.45915043E+03</pdfrwt>
<totfact> 0.37334544E+04</totfact>
</mgrwt>
</event>
<event>
 7    0  0.4737014E-002  0.4542475E+03  0.7546771E-02  0.1026463E+00
         21   -1    0    0  502  501  0.00000000000E+00  0.00000000000E+00  0.24838443928E+03  0.24838443928E+03  0.00000000000E+00 0. -1.
         21   -1    0    0  501  502 -0.00000000000E+00 -0.00000000000E+00 -0.20768284598E+03  0.20768284598E+03  0.00000000000E+00 0. -1.
      99926    2    1    2    0    0  0.00000000000E+00  0.35527136788E-14  0.40701593291E+02  0.45606728526E+03  0.45424745347E+03 0.  0.
      99925    2    3    3    0    0  0.10852677808E+03 -0.24703829735E+02  0.90987701570E+01  0.28567190007E+03  0.26293973855E+03 0.  0.
         25    1    3    3    0    0 -0.10852677808E+03  0.24703829735E+02  0.31602823134E+02  0.17039538519E+03  0.12509000000E+03 0.  0.
         25    1    4    4    0    0  0.59557655806E+02  0.18261893468E+00 -0.33552538024E+02  0.14254974087E+03  0.12509000000E+03 0.  0.
         25    1    4    4    0    0  0.48969122275E+02 -0.24886448670E+02  0.42651308181E+02  0.14312215920E+03  0.12509000000E+03 0.  0.
<mgrwt>
<rscale>  2 0.45424745E+03</rscale>
<asrwt>0</asrwt>
<pdfrwt beam="1">  1       21 0.36527123E-01 0.45424745E+03</pdfrwt>
<pdfrwt beam="2">  1       21 0.30541595E-01 0.45424745E+03</pdfrwt>
<totfact> 0.68880344E+04</totfact>
</mgrwt>
</event>
<event>
 7    0  0.4737014E-002  0.4409937E+03  0.7546771E-02  0.1030442E+00
         21   -1    0    0  502  501  0.00000000000E+00  0.00000000000E+00  0.31826523894E+03  0.31826523894E+03  0.00000000000E+00 0. -1.
         21   -1    0    0  501  502 -0.00000000000E+00 -0.00000000000E+00 -0.15276208681E+03  0.15276208681E+03  0.00000000000E+00 0. -1.
      99926    2    1    2    0    0  0.00000000000E+00 -0.14210854715E-13  0.16550315214E+03  0.47102732575E+03  0.44099370544E+03 0.  0.
      99925    2    3    3    0    0  0.71332398673E+02  0.68830453864E+02  0.11425239913E+03  0.30339651037E+03  0.26300169072E+03 0.  0.
         25    1    4    4    0    0  0.47687524128E+02  0.58062306070E+02  0.26254472710E+02  0.14826374061E+03  0.12509000000E+03 0.  0.
         25    1    4    4    0    0  0.23644874546E+02  0.10768147794E+02  0.87997926417E+02  0.15513276976E+03  0.12509000000E+03 0.  0.
         25    1    3    3    0    0 -0.71332398673E+02 -0.68830453864E+02  0.51250753011E+02  0.16763081538E+03  0.12509000000E+03 0.  0.
<mgrwt>
<rscale>  2 0.44099371E+03</rscale>
<asrwt>0</asrwt>
<pdfrwt beam="1">  1       21 0.46803712E-01 0.44099371E+03</pdfrwt>
<pdfrwt beam="2">  1       21 0.22465013E-01 0.44099371E+03</pdfrwt>
<totfact> 0.75399086E+04</totfact>
</mgrwt>
</event>
<event>
 7    0  0.4737014E-002  0.4572954E+03  0.7546771E-02  0.1025569E+00
         21   -1    0    0  502  501  0.00000000000E+00  0.00000000000E+00  0.20188497845E+03  0.20188497845E+03  0.00000000000E+00 0. -1.
         21   -1    0    0  501  502 -0.00000000000E+00 -0.00000000000E+00 -0.25895820687E+03  0.25895820687E+03  0.00000000000E+00 0. -1.
      99926    2    1    2    0    0 -0.71054273576E-14  0.71054273576E-14 -0.57073228418E+02  0.46084318531E+03  0.45729540567E+03 0.  0.
      99925    2    3    3    0    0  0.52204509018E+02 -0.44622982343E+02 -0.12929412418E+03  0.30090605017E+03  0.26288963305E+03 0.  0.
         25    1    3    3    0    0 -0.52204509018E+02  0.44622982343E+02  0.72220895759E+02  0.15993713515E+03  0.12509000000E+03 0.  0.
         25    1    4    4    0    0  0.50046158197E+02  0.98075460485E+01 -0.69945068264E+02  0.15212043447E+03  0.12509000000E+03 0.  0.
         25    1    4    4    0    0  0.21583508208E+01 -0.54430528391E+02 -0.59349055912E+02  0.14878561569E+03  0.12509000000E+03 0.  0.
<mgrwt>
<rscale>  2 0.45729541E+03</rscale>
<asrwt>0</asrwt>
<pdfrwt beam="1">  1       21 0.29688967E-01 0.45729541E+03</pdfrwt>
<pdfrwt beam="2">  1       21 0.38082089E-01 0.45729541E+03</pdfrwt>
<totfact> 0.66886323E+04</totfact>
</mgrwt>
</event>
<event>
 7    0  0.4737014E-002  0.4487229E+03  0.7546771E-02  0.1028104E+00
         21   -1    0    0  502  501  0.00000000000E+00  0.00000000000E+00  0.58404044891E+02  0.58404044891E+02  0.00000000000E+00 0. -1.
         21   -1    0    0  501  502 -0.00000000000E+00 -0.00000000000E+00 -0.86189335995E+03  0.86189335995E+03  0.00000000000E+00 0. -1.
      99926    2    1    2    0    0  0.00000000000E+00  0.14210854715E-13 -0.80348931506E+03  0.92029740484E+03  0.44872289215E+03 0.  0.
      99925    2    3    3    0    0  0.51922102131E+02 -0.90429557289E+02 -0.55990323111E+03  0.62728699903E+03  0.26291432335E+03 0.  0.
         25    1    4    4    0    0  0.20031349369E+02 -0.36631526087E+01 -0.23186339983E+03  0.26424007630E+03  0.12509000000E+03 0.  0.
         25    1    3    3    0    0 -0.51922102131E+02  0.90429557289E+02 -0.24358608395E+03  0.29301040581E+03  0.12509000000E+03 0.  0.
         25    1    4    4    0    0  0.31890752763E+02 -0.86766404680E+02 -0.32803983128E+03  0.36304692272E+03  0.12509000000E+03 0.  0.
<mgrwt>
<rscale>  2 0.44872289E+03</rscale>
<asrwt>0</asrwt>
<pdfrwt beam="1">  1       21 0.85888303E-02 0.44872289E+03</pdfrwt>
<pdfrwt beam="2">  1       21 0.12674902E+00 0.44872289E+03</pdfrwt>
<totfact> 0.44513423E+04</totfact>
</mgrwt>
</event>
<event>
 7    0  0.4737014E-002  0.4627490E+03  0.7546771E-02  0.1023987E+00
         21   -1    0    0  502  501  0.00000000000E+00  0.00000000000E+00  0.44649382741E+03  0.44649382741E+03  0.00000000000E+00 0.  1.
         21   -1    0    0  501  502 -0.00000000000E+00 -0.00000000000E+00 -0.11989898782E+03  0.11989898782E+03  0.00000000000E+00 0.  1.
      99926    2    1    2    0    0  0.00000000000E+00  0.00000000000E+00  0.32659483959E+03  0.56639281523E+03  0.46274899448E+03 0.  0.
      99925    2    3    3    0    0 -0.20898197230E+02 -0.11572635272E+03  0.17475360511E+03  0.33719292005E+03  0.26330765175E+03 0.  0.
         25    1    3    3    0    0  0.20898197230E+02  0.11572635272E+03  0.15184123448E+03  0.22919989518E+03  0.12509000000E+03 0.  0.
         25    1    4    4    0    0 -0.70475543415E+01 -0.73117833730E+02  0.13585152232E+03  0.19874362845E+03  0.12509000000E+03 0.  0.
         25    1    4    4    0    0 -0.13850642888E+02 -0.42608518994E+02  0.38902082785E+02  0.13844929160E+03  0.12509000000E+03 0.  0.
<mgrwt>
<rscale>  2 0.46274899E+03</rscale>
<asrwt>0</asrwt>
<pdfrwt beam="1">  1       21 0.65660856E-01 0.46274899E+03</pdfrwt>
<pdfrwt beam="2">  1       21 0.17632204E-01 0.46274899E+03</pdfrwt>
<totfact> 0.57208618E+04</totfact>
</mgrwt>
</event>
<event>
 7    0  0.4737014E-002  0.4577035E+03  0.7546771E-02  0.1025449E+00
         21   -1    0    0  502  501  0.00000000000E+00  0.00000000000E+00  0.18966361215E+03  0.18966361215E+03  0.00000000000E+00 0. -1.
         21   -1    0    0  501  502 -0.00000000000E+00 -0.00000000000E+00 -0.27613685110E+03  0.27613685110E+03  0.00000000000E+00 0. -1.
      99926    2    1    2    0    0 -0.17763568394E-14  0.00000000000E+00 -0.86473238956E+02  0.46580046325E+03  0.45770345259E+03 0.  0.
      99925    2    3    3    0    0 -0.10697117278E+02 -0.45440341444E+02  0.53105533134E+02  0.27264509919E+03  0.26331710828E+03 0.  0.
         25    1    3    3    0    0  0.10697117278E+02  0.45440341444E+02 -0.13957877209E+03  0.19315536406E+03  0.12509000000E+03 0.  0.
         25    1    4    4    0    0  0.88880699103E+00 -0.56879661910E+02  0.50714928446E+02  0.14647729512E+03  0.12509000000E+03 0.  0.
         25    1    4    4    0    0 -0.11585924269E+02  0.11439320466E+02  0.23906046872E+01  0.12616780407E+03  0.12509000000E+03 0.  0.
<mgrwt>
<rscale>  2 0.45770345E+03</rscale>
<asrwt>0</asrwt>
<pdfrwt beam="1">  1       21 0.27891708E-01 0.45770345E+03</pdfrwt>
<pdfrwt beam="2">  1       21 0.40608360E-01 0.45770345E+03</pdfrwt>
<totfact> 0.66314170E+04</totfact>
</mgrwt>
</event>
<event>
 7    0  0.4737014E-002  0.4536768E+03  0.7546771E-02  0.1026631E+00
         21   -1    0    0  502  501  0.00000000000E+00  0.00000000000E+00  0.29032996656E+02  0.29032996656E+02  0.00000000000E+00 0. -1.
         21   -1    0    0  501  502 -0.00000000000E+00 -0.00000000000E+00 -0.17723165378E+04  0.17723165378E+04  0.00000000000E+00 0. -1.
      99926    2    1    2    0    0 -0.35527136788E-14  0.00000000000E+00 -0.17432835412E+04  0.18013495345E+04  0.45367680177E+03 0.  0.
      99925    2    3    3    0    0  0.99587135717E+01  0.47971434029E+02 -0.14977630103E+04  0.15214776466E+04  0.26305847173E+03 0.  0.
         25    1    4    4    0    0 -0.32258824406E+02  0.26658377505E+02 -0.65222244390E+03  0.66542687447E+03  0.12509000000E+03 0.  0.
         25    1    4    4    0    0  0.42217537978E+02  0.21313056524E+02 -0.84554056643E+03  0.85605077213E+03  0.12509000000E+03 0.  0.
         25    1    3    3    0    0 -0.99587135717E+01 -0.47971434029E+02 -0.24552053084E+03  0.27987188787E+03  0.12509000000E+03 0.  0.
<mgrwt>
<rscale>  2 0.45367680E+03</rscale>
<asrwt>0</asrwt>
<pdfrwt beam="1">  1       21 0.42695577E-02 0.45367680E+03</pdfrwt>
<pdfrwt beam="2">  1       21 0.26063482E+00 0.45367680E+03</pdfrwt>
<totfact> 0.17411710E+04</totfact>
</mgrwt>
</event>
<event>
 7    0  0.4737014E-002  0.4604206E+03  0.7546771E-02  0.1024659E+00
         21   -1    0    0  502  501  0.00000000000E+00  0.00000000000E+00  0.24516980460E+03  0.24516980460E+03  0.00000000000E+00 0.  1.
         21   -1    0    0  501  502 -0.00000000000E+00 -0.00000000000E+00 -0.21616361879E+03  0.21616361879E+03  0.00000000000E+00 0.  1.
      99926    2    1    2    0    0  0.00000000000E+00  0.00000000000E+00  0.29006185805E+02  0.46133342339E+03  0.46042064325E+03 0.  0.
      99925    2    3    3    0    0 -0.40402847287E+02 -0.88026104702E+02 -0.49685409721E+02  0.28463916632E+03  0.26300157772E+03 0.  0.
         25    1    4    4    0    0 -0.55539013941E+02 -0.35287286834E+02 -0.69340784564E+01  0.14151100390E+03  0.12509000000E+03 0.  0.
         25    1    3    3    0    0  0.40402847287E+02  0.88026104702E+02  0.78691595526E+02  0.17669425708E+03  0.12509000000E+03 0.  0.
         25    1    4    4    0    0  0.15136166653E+02 -0.52738817868E+02 -0.42751331265E+02  0.14312816241E+03  0.12509000000E+03 0.  0.
<mgrwt>
<rscale>  2 0.46042064E+03</rscale>
<asrwt>0</asrwt>
<pdfrwt beam="1">  1       21 0.36054383E-01 0.46042064E+03</pdfrwt>
<pdfrwt beam="2">  1       21 0.31788767E-01 0.46042064E+03</pdfrwt>
<totfact> 0.65217663E+04</totfact>
</mgrwt>
</event>
<event>
 7    0  0.4737014E-002  0.4760607E+03  0.7546771E-02  0.1020223E+00
         21   -1    0    0  502  501  0.00000000000E+00  0.00000000000E+00  0.44997854031E+03  0.44997854031E+03  0.00000000000E+00 0.  1.
         21   -1    0    0  501  502 -0.00000000000E+00 -0.00000000000E+00 -0.12591368982E+03  0.12591368982E+03  0.00000000000E+00 0.  1.
      99926    2    1    2    0    0 -0.14210854715E-13  0.14210854715E-13  0.32406485050E+03  0.57589223013E+03  0.47606074549E+03 0.  0.
      99925    2    3    3    0    0  0.94572711370E+02 -0.86239646807E+02  0.16180466304E+03  0.33431998224E+03  0.26307380547E+03 0.  0.
         25    1    4    4    0    0  0.73579530039E+02 -0.12079271214E+02  0.80723028285E+02  0.16650396821E+03  0.12509000000E+03 0.  0.
         25    1    3    3    0    0 -0.94572711370E+02  0.86239646807E+02  0.16226018746E+03  0.24157224789E+03  0.12509000000E+03 0.  0.
         25    1    4    4    0    0  0.20993181331E+02 -0.74160375593E+02  0.81081634756E+02  0.16781601403E+03  0.12509000000E+03 0.  0.
<mgrwt>
<rscale>  2 0.47606075E+03</rscale>
<asrwt>0</asrwt>
<pdfrwt beam="1">  1       21 0.66173314E-01 0.47606075E+03</pdfrwt>
<pdfrwt beam="2">  1       21 0.18516719E-01 0.47606075E+03</pdfrwt>
<totfact> 0.51126128E+04</totfact>
</mgrwt>
</event>
<event>
 7    0  0.4737014E-002  0.4550468E+03  0.7546771E-02  0.1026228E+00
         21   -1    0    0  502  501  0.00000000000E+00  0.00000000000E+00  0.70525668794E+02  0.70525668794E+02  0.00000000000E+00 0.  1.
         21   -1    0    0  501  502 -0.00000000000E+00 -0.00000000000E+00 -0.73401497531E+03  0.73401497531E+03  0.00000000000E+00 0.  1.
      99926    2    1    2    0    0 -0.71054273576E-14  0.00000000000E+00 -0.66348930652E+03  0.80454064410E+03  0.45504679776E+03 0.  0.
      99925    2    3    3    0    0 -0.47979601111E+02 -0.10242546886E+03 -0.41604792485E+03  0.50509488231E+03  0.26311964118E+03 0.  0.
         25    1    3    3    0    0  0.47979601111E+02  0.10242546886E+03 -0.24744138167E+03  0.29944576179E+03  0.12509000000E+03 0.  0.
         25    1    4    4    0    0  0.10744382433E+02 -0.59332909712E+02 -0.16866896827E+03  0.21847783614E+03  0.12509000000E+03 0.  0.
         25    1    4    4    0    0 -0.58723983544E+02 -0.43092559145E+02 -0.24737895658E+03  0.28661704617E+03  0.12509000000E+03 0.  0.
<mgrwt>
<rscale>  2 0.45504680E+03</rscale>
<asrwt>0</asrwt>
<pdfrwt beam="1">  1       21 0.10371422E-01 0.45504680E+03</pdfrwt>
<pdfrwt beam="2">  1       21 0.10794338E+00 0.45504680E+03</pdfrwt>
<totfact> 0.47528507E+04</totfact>
</mgrwt>
</event>
<event>
 7    0  0.4737014E-002  0.4386988E+03  0.7546771E-02  0.1031147E+00
         21   -1    0    0  502  501  0.00000000000E+00  0.00000000000E+00  0.73518012296E+02  0.73518012296E+02  0.00000000000E+00 0. -1.
         21   -1    0    0  501  502 -0.00000000000E+00 -0.00000000000E+00 -0.65445393910E+03  0.65445393910E+03  0.00000000000E+00 0. -1.
      99926    2    1    2    0    0 -0.71054273576E-14  0.00000000000E+00 -0.58093592681E+03  0.72797195140E+03  0.43869877019E+03 0.  0.
      99925    2    3    3    0    0  0.46664077437E+02  0.60515554594E+02 -0.47057135815E+03  0.54448485489E+03  0.26303362070E+03 0.  0.
         25    1    4    4    0    0  0.58462456462E+02  0.45234459372E+02 -0.21816276264E+03  0.26211927482E+03  0.12509000000E+03 0.  0.
         25    1    3    3    0    0 -0.46664077437E+02 -0.60515554594E+02 -0.11036456866E+03  0.18348709651E+03  0.12509000000E+03 0.  0.
         25    1    4    4    0    0 -0.11798379025E+02  0.15281095222E+02 -0.25240859551E+03  0.28236558007E+03  0.12509000000E+03 0.  0.
<mgrwt>
<rscale>  2 0.43869877E+03</rscale>
<asrwt>0</asrwt>
<pdfrwt beam="1">  1       21 0.10811472E-01 0.43869877E+03</pdfrwt>
<pdfrwt beam="2">  1       21 0.96243226E-01 0.43869877E+03</pdfrwt>
<totfact> 0.58564498E+04</totfact>
</mgrwt>
</event>
<event>
 7    0  0.4737014E-002  0.4503845E+03  0.7546771E-02  0.1027607E+00
         21   -1    0    0  502  501  0.00000000000E+00  0.00000000000E+00  0.21089739242E+03  0.21089739242E+03  0.00000000000E+00 0.  1.
         21   -1    0    0  501  502 -0.00000000000E+00 -0.00000000000E+00 -0.24045599464E+03  0.24045599464E+03  0.00000000000E+00 0.  1.
      99926    2    1    2    0    0  0.00000000000E+00  0.00000000000E+00 -0.29558602218E+02  0.45135338707E+03  0.45038446804E+03 0.  0.
      99925    2    3    3    0    0  0.26954382635E+02 -0.74068641738E+02  0.56468261315E+02  0.28029540923E+03  0.26299077829E+03 0.  0.
         25    1    4    4    0    0 -0.23383818881E+02 -0.21144218693E+02  0.16667676884E+02  0.13007382720E+03  0.12509000000E+03 0.  0.
         25    1    3    3    0    0 -0.26954382635E+02  0.74068641738E+02 -0.86026863534E+02  0.17105797784E+03  0.12509000000E+03 0.  0.
         25    1    4    4    0    0  0.50338201516E+02 -0.52924423044E+02  0.39800584431E+02  0.15022158203E+03  0.12509000000E+03 0.  0.
<mgrwt>
<rscale>  2 0.45038447E+03</rscale>
<asrwt>0</asrwt>
<pdfrwt beam="1">  1       21 0.31014323E-01 0.45038447E+03</pdfrwt>
<pdfrwt beam="2">  1       21 0.35361176E-01 0.45038447E+03</pdfrwt>
<totfact> 0.71407472E+04</totfact>
</mgrwt>
</event>
<event>
 7    0  0.4737014E-002  0.4499880E+03  0.7546771E-02  0.1027726E+00
         21   -1    0    0  502  501  0.00000000000E+00  0.00000000000E+00  0.65563888307E+02  0.65563888307E+02  0.00000000000E+00 0.  1.
         21   -1    0    0  501  502 -0.00000000000E+00 -0.00000000000E+00 -0.77210630079E+03  0.77210630079E+03  0.00000000000E+00 0.  1.
      99926    2    1    2    0    0  0.71054273576E-14  0.17763568394E-14 -0.70654241248E+03  0.83767018910E+03  0.44998796102E+03 0.  0.
      99925    2    3    3    0    0 -0.59726406864E+02  0.65757394021E+01 -0.61468375440E+03  0.67124902100E+03  0.26292327064E+03 0.  0.
         25    1    4    4    0    0 -0.31311851715E+02  0.36922692581E+02 -0.25414756073E+03  0.28737120248E+03  0.12509000000E+03 0.  0.
         25    1    4    4    0    0 -0.28414555149E+02 -0.30346953179E+02 -0.36053619367E+03  0.38387781853E+03  0.12509000000E+03 0.  0.
         25    1    3    3    0    0  0.59726406864E+02 -0.65757394021E+01 -0.91858658080E+02  0.16642116809E+03  0.12509000000E+03 0.  0.
<mgrwt>
<rscale>  2 0.44998796E+03</rscale>
<asrwt>0</asrwt>
<pdfrwt beam="1">  1       21 0.96417496E-02 0.44998796E+03</pdfrwt>
<pdfrwt beam="2">  1       21 0.11354503E+00 0.44998796E+03</pdfrwt>
<totfact> 0.47850062E+04</totfact>
</mgrwt>
</event>
<event>
 7    0  0.4737014E-002  0.4564583E+03  0.7546771E-02  0.1025813E+00
         21   -1    0    0  502  501  0.00000000000E+00  0.00000000000E+00  0.90496932847E+02  0.90496932847E+02  0.00000000000E+00 0.  1.
         21   -1    0    0  501  502 -0.00000000000E+00 -0.00000000000E+00 -0.57558348600E+03  0.57558348600E+03  0.00000000000E+00 0.  1.
      99926    2    1    2    0    0  0.00000000000E+00  0.35527136788E-14 -0.48508655315E+03  0.66608041884E+03  0.45645827884E+03 0.  0.
      99925    2    3    3    0    0 -0.38510519453E+02 -0.28782346611E+02 -0.15318427001E+03  0.30814450665E+03  0.26301356013E+03 0.  0.
         25    1    4    4    0    0 -0.13656767952E+02 -0.53089168042E+02 -0.91603271709E+02  0.16444948939E+03  0.12509000000E+03 0.  0.
         25    1    4    4    0    0 -0.24853751501E+02  0.24306821431E+02 -0.61580998299E+02  0.14369501725E+03  0.12509000000E+03 0.  0.
         25    1    3    3    0    0  0.38510519453E+02  0.28782346611E+02 -0.33190228314E+03  0.35793591220E+03  0.12509000000E+03 0.  0.
<mgrwt>
<rscale>  2 0.45645828E+03</rscale>
<asrwt>0</asrwt>
<pdfrwt beam="1">  1       21 0.13308373E-01 0.45645828E+03</pdfrwt>
<pdfrwt beam="2">  1       21 0.84644629E-01 0.45645828E+03</pdfrwt>
<totfact> 0.54158052E+04</totfact>
</mgrwt>
</event>
<event>
 7    0  0.4737014E-002  0.4445390E+03  0.7546771E-02  0.1029363E+00
         21   -1    0    0  502  501  0.00000000000E+00  0.00000000000E+00  0.18121058600E+03  0.18121058600E+03  0.00000000000E+00 0. -1.
         21   -1    0    0  501  502 -0.00000000000E+00 -0.00000000000E+00 -0.27263155016E+03  0.27263155016E+03  0.00000000000E+00 0. -1.
      99926    2    1    2    0    0  0.00000000000E+00  0.00000000000E+00 -0.91420964161E+02  0.45384213616E+03  0.44453896552E+03 0.  0.
      99925    2    3    3    0    0 -0.66227972234E+02  0.70986549199E+02 -0.22333762382E+02  0.28108281217E+03  0.26283743243E+03 0.  0.
         25    1    4    4    0    0  0.72402410661E+01  0.25393680190E+02 -0.16486966273E+02  0.12890534605E+03  0.12509000000E+03 0.  0.
         25    1    3    3    0    0  0.66227972234E+02 -0.70986549199E+02 -0.69087201779E+02  0.17275932398E+03  0.12509000000E+03 0.  0.
         25    1    4    4    0    0 -0.73468213300E+02  0.45592869009E+02 -0.58467961091E+01  0.15217746612E+03  0.12509000000E+03 0.  0.
<mgrwt>
<rscale>  2 0.44453897E+03</rscale>
<asrwt>0</asrwt>
<pdfrwt beam="1">  1       21 0.26648616E-01 0.44453897E+03</pdfrwt>
<pdfrwt beam="2">  1       21 0.40092875E-01 0.44453897E+03</pdfrwt>
<totfact> 0.74662559E+04</totfact>
</mgrwt>
</event>
<event>
 7    0  0.4737014E-002  0.4425273E+03  0.7546771E-02  0.1029974E+00
         21   -1    0    0  502  501  0.00000000000E+00  0.00000000000E+00  0.20636054052E+03  0.20636054052E+03  0.00000000000E+00 0. -1.
         21   -1    0    0  501  502 -0.00000000000E+00 -0.00000000000E+00 -0.23724304689E+03  0.23724304689E+03  0.00000000000E+00 0. -1.
      99926    2    1    2    0    0  0.00000000000E+00  0.00000000000E+00 -0.30882506371E+02  0.44360358741E+03  0.44252730262E+03 0.  0.
      99925    2    3    3    0    0  0.20221805539E+01 -0.80026069291E+01  0.81330044173E+02  0.27535586668E+03  0.26294133623E+03 0.  0.
         25    1    4    4    0    0 -0.18912233715E+02 -0.10843169367E+02  0.76839075111E+02  0.14841495366E+03  0.12509000000E+03 0.  0.
         25    1    3    3    0    0 -0.20221805539E+01  0.80026069291E+01 -0.11221255054E+03  0.16824772073E+03  0.12509000000E+03 0.  0.
         25    1    4    4    0    0  0.20934414269E+02  0.28405624380E+01  0.44909690629E+01  0.12694091302E+03  0.12509000000E+03 0.  0.
<mgrwt>
<rscale>  2 0.44252730E+03</rscale>
<asrwt>0</asrwt>
<pdfrwt beam="1">  1       21 0.30347139E-01 0.44252730E+03</pdfrwt>
<pdfrwt beam="2">  1       21 0.34888683E-01 0.44252730E+03</pdfrwt>
<totfact> 0.76746824E+04</totfact>
</mgrwt>
</event>
<event>
 7    0  0.4737014E-002  0.4380231E+03  0.7546771E-02  0.1031355E+00
         21   -1    0    0  502  501  0.00000000000E+00  0.00000000000E+00  0.29931684357E+02  0.29931684357E+02  0.00000000000E+00 0.  1.
         21   -1    0    0  501  502 -0.00000000000E+00 -0.00000000000E+00 -0.16025175644E+04  0.16025175644E+04  0.00000000000E+00 0.  1.
      99926    2    1    2    0    0  0.00000000000E+00  0.88817841970E-15 -0.15725858800E+04  0.16324492487E+04  0.43802305836E+03 0.  0.
      99925    2    3    3    0    0  0.87600606688E+02 -0.79172166053E+01 -0.11511180418E+04  0.11840976062E+04  0.26320685066E+03 0.  0.
         25    1    3    3    0    0 -0.87600606688E+02  0.79172166053E+01 -0.42146783825E+03  0.44835164256E+03  0.12509000000E+03 0.  0.
         25    1    4    4    0    0  0.42625418731E+02  0.18943158583E+02 -0.42679716838E+03  0.44719022867E+03  0.12509000000E+03 0.  0.
         25    1    4    4    0    0  0.44975187957E+02 -0.26860375189E+02 -0.72432087339E+03  0.73690737750E+03  0.12509000000E+03 0.  0.
<mgrwt>
<rscale>  2 0.43802306E+03</rscale>
<asrwt>0</asrwt>
<pdfrwt beam="1">  1       21 0.44017172E-02 0.43802306E+03</pdfrwt>
<pdfrwt beam="2">  1       21 0.23566441E+00 0.43802306E+03</pdfrwt>
<totfact> 0.23677084E+04</totfact>
</mgrwt>
</event>
<event>
 7    0  0.4737014E-002  0.4438476E+03  0.7546771E-02  0.1029573E+00
         21   -1    0    0  502  501  0.00000000000E+00  0.00000000000E+00  0.31973322740E+03  0.31973322740E+03  0.00000000000E+00 0.  1.
         21   -1    0    0  501  502 -0.00000000000E+00 -0.00000000000E+00 -0.15403520950E+03  0.15403520950E+03  0.00000000000E+00 0.  1.
      99926    2    1    2    0    0  0.00000000000E+00  0.00000000000E+00  0.16569801790E+03  0.47376843690E+03  0.44384760748E+03 0.  0.
      99925    2    3    3    0    0  0.69845965785E+02  0.50932273284E+02  0.16457800170E+03  0.32171148068E+03  0.26256390224E+03 0.  0.
         25    1    4    4    0    0  0.32500884864E+02  0.19292229408E+02  0.35479302687E+02  0.13540600670E+03  0.12509000000E+03 0.  0.
         25    1    4    4    0    0  0.37345080921E+02  0.31640043876E+02  0.12909869902E+03  0.18630547398E+03  0.12509000000E+03 0.  0.
         25    1    3    3    0    0 -0.69845965785E+02 -0.50932273284E+02  0.11200161960E+01  0.15205695622E+03  0.12509000000E+03 0.  0.
<mgrwt>
<rscale>  2 0.44384761E+03</rscale>
<asrwt>0</asrwt>
<pdfrwt beam="1">  1       21 0.47019592E-01 0.44384761E+03</pdfrwt>
<pdfrwt beam="2">  1       21 0.22652237E-01 0.44384761E+03</pdfrwt>
<totfact> 0.73445922E+04</totfact>
</mgrwt>
</event>
<event>
 7    0  0.4737014E-002  0.4421441E+03  0.7546771E-02  0.1030091E+00
         21   -1    0    0  502  501  0.00000000000E+00  0.00000000000E+00  0.21756600267E+03  0.21756600267E+03  0.00000000000E+00 0.  1.
         21   -1    0    0  501  502 -0.00000000000E+00 -0.00000000000E+00 -0.22463457721E+03  0.22463457721E+03  0.00000000000E+00 0.  1.
      99926    2    1    2    0    0  0.88817841970E-15  0.71054273576E-14 -0.70685745408E+01  0.44220057988E+03  0.44214408071E+03 0.  0.
      99925    2    3    3    0    0 -0.67312038006E+01  0.52758231717E+02 -0.89323658430E+02  0.28332280597E+03  0.26356091574E+03 0.  0.
         25    1    3    3    0    0  0.67312038006E+01 -0.52758231717E+02  0.82255083889E+02  0.15887777391E+03  0.12509000000E+03 0.  0.
         25    1    4    4    0    0 -0.41911289870E+02  0.26273006493E+02 -0.28867026726E+02  0.13757776136E+03  0.12509000000E+03 0.  0.
         25    1    4    4    0    0  0.35180086069E+02  0.26485225224E+02 -0.60456631704E+02  0.14574504461E+03  0.12509000000E+03 0.  0.
<mgrwt>
<rscale>  2 0.44214408E+03</rscale>
<asrwt>0</asrwt>
<pdfrwt beam="1">  1       21 0.31995001E-01 0.44214408E+03</pdfrwt>
<pdfrwt beam="2">  1       21 0.33034496E-01 0.44214408E+03</pdfrwt>
<totfact> 0.77104598E+04</totfact>
</mgrwt>
</event>
<event>
 7    0  0.4737014E-002  0.4618460E+03  0.7546771E-02  0.1024247E+00
         21   -1    0    0  502  501  0.00000000000E+00  0.00000000000E+00  0.53102604757E+03  0.53102604757E+03  0.00000000000E+00 0. -1.
         21   -1    0    0  501  502 -0.00000000000E+00 -0.00000000000E+00 -0.10041961024E+03  0.10041961024E+03  0.00000000000E+00 0. -1.
      99926    2    1    2    0    0  0.17763568394E-14  0.00000000000E+00  0.43060643733E+03  0.63144565781E+03  0.46184598612E+03 0.  0.
      99925    2    3    3    0    0 -0.11626329435E+02 -0.31738122280E+02  0.11264498836E+03  0.28809529582E+03  0.26299719796E+03 0.  0.
         25    1    4    4    0    0  0.26756410181E+02 -0.11999452678E+02  0.29529370607E+02  0.13183089235E+03  0.12509000000E+03 0.  0.
         25    1    3    3    0    0  0.11626329435E+02  0.31738122280E+02  0.31796144898E+03  0.34335036199E+03  0.12509000000E+03 0.  0.
         25    1    4    4    0    0 -0.38382739617E+02 -0.19738669602E+02  0.83115617750E+02  0.15626440347E+03  0.12509000000E+03 0.  0.
<mgrwt>
<rscale>  2 0.46184599E+03</rscale>
<asrwt>0</asrwt>
<pdfrwt beam="1">  1       21 0.78092065E-01 0.46184599E+03</pdfrwt>
<pdfrwt beam="2">  1       21 0.14767590E-01 0.46184599E+03</pdfrwt>
<totfact> 0.53815429E+04</totfact>
</mgrwt>
</event>
<event>
 7    0  0.4737014E-002  0.4485784E+03  0.7546771E-02  0.1028147E+00
         21   -1    0    0  502  501  0.00000000000E+00  0.00000000000E+00  0.77423277550E+02  0.77423277550E+02  0.00000000000E+00 0.  1.
         21   -1    0    0  501  502 -0.00000000000E+00 -0.00000000000E+00 -0.64974820400E+03  0.64974820400E+03  0.00000000000E+00 0.  1.
      99926    2    1    2    0    0  0.00000000000E+00  0.00000000000E+00 -0.57232492645E+03  0.72717148155E+03  0.44857835675E+03 0.  0.
      99925    2    3    3    0    0 -0.35260933661E+02 -0.94196612419E+02 -0.30323639967E+03  0.41384660450E+03  0.26305961822E+03 0.  0.
         25    1    4    4    0    0 -0.96560533978E+00 -0.39689902678E+02 -0.92896413040E+02  0.16079015027E+03  0.12509000000E+03 0.  0.
         25    1    3    3    0    0  0.35260933661E+02  0.94196612419E+02 -0.26908852678E+03  0.31332487705E+03  0.12509000000E+03 0.  0.
         25    1    4    4    0    0 -0.34295328321E+02 -0.54506709741E+02 -0.21033998663E+03  0.25305645423E+03  0.12509000000E+03 0.  0.
<mgrwt>
<rscale>  2 0.44857836E+03</rscale>
<asrwt>0</asrwt>
<pdfrwt beam="1">  1       21 0.11385777E-01 0.44857836E+03</pdfrwt>
<pdfrwt beam="2">  1       21 0.95551202E-01 0.44857836E+03</pdfrwt>
<totfact> 0.54134921E+04</totfact>
</mgrwt>
</event>
<event>
 7    0  0.4737014E-002  0.4540910E+03  0.7546771E-02  0.1026509E+00
         21   -1    0    0  502  501  0.00000000000E+00  0.00000000000E+00  0.36399928400E+02  0.36399928400E+02  0.00000000000E+00 0. -1.
         21   -1    0    0  501  502 -0.00000000000E+00 -0.00000000000E+00 -0.14162022295E+04  0.14162022295E+04  0.00000000000E+00 0. -1.
      99926    2    1    2    0    0 -0.35527136788E-14  0.71054273576E-14 -0.13798023011E+04  0.14526021579E+04  0.45409100301E+03 0.  0.
      99925    2    3    3    0    0 -0.29684296593E+02  0.53958700470E+02 -0.56902931135E+03  0.62992783118E+03  0.26310077254E+03 0.  0.
         25    1    4    4    0    0 -0.58874242128E+01 -0.93084600373E+00 -0.20306737806E+03  0.23857786228E+03  0.12509000000E+03 0.  0.
         25    1    3    3    0    0  0.29684296593E+02 -0.53958700470E+02 -0.81077298978E+03  0.82267432674E+03  0.12509000000E+03 0.  0.
         25    1    4    4    0    0 -0.23796872380E+02  0.54889546474E+02 -0.36596193329E+03  0.39134996891E+03  0.12509000000E+03 0.  0.
<mgrwt>
<rscale>  2 0.45409100E+03</rscale>
<asrwt>0</asrwt>
<pdfrwt beam="1">  1       21 0.53529318E-02 0.45409100E+03</pdfrwt>
<pdfrwt beam="2">  1       21 0.20826499E+00 0.45409100E+03</pdfrwt>
<totfact> 0.25140392E+04</totfact>
</mgrwt>
</event>
<event>
 7    0  0.4737014E-002  0.4438836E+03  0.7546771E-02  0.1029562E+00
         21   -1    0    0  502  501  0.00000000000E+00  0.00000000000E+00  0.51053410124E+02  0.51053410124E+02  0.00000000000E+00 0. -1.
         21   -1    0    0  501  502 -0.00000000000E+00 -0.00000000000E+00 -0.96483570146E+03  0.96483570146E+03  0.00000000000E+00 0. -1.
      99926    2    1    2    0    0  0.00000000000E+00 -0.17763568394E-14 -0.91378229134E+03  0.10158891116E+04  0.44388355576E+03 0.  0.
      99925    2    3    3    0    0 -0.47485682435E+02  0.46163623665E+01 -0.37375699744E+03  0.45951601106E+03  0.26302940986E+03 0.  0.
         25    1    4    4    0    0 -0.29081919851E+02 -0.33868578998E+02 -0.21766727723E+03  0.25498900051E+03  0.12509000000E+03 0.  0.
         25    1    4    4    0    0 -0.18403762584E+02  0.38484941364E+02 -0.15608972021E+03  0.20452701055E+03  0.12509000000E+03 0.  0.
         25    1    3    3    0    0  0.47485682435E+02 -0.46163623665E+01 -0.54002529390E+03  0.55637310053E+03  0.12509000000E+03 0.  0.
<mgrwt>
<rscale>  2 0.44388356E+03</rscale>
<asrwt>0</asrwt>
<pdfrwt beam="1">  1       21 0.75078543E-02 0.44388356E+03</pdfrwt>
<pdfrwt beam="2">  1       21 0.14188760E+00 0.44388356E+03</pdfrwt>
<totfact> 0.42090849E+04</totfact>
</mgrwt>
</event>
<event>
 7    0  0.4737014E-002  0.4550378E+03  0.7546771E-02  0.1026230E+00
         21   -1    0    0  502  501  0.00000000000E+00  0.00000000000E+00  0.96988632556E+02  0.96988632556E+02  0.00000000000E+00 0. -1.
         21   -1    0    0  501  502 -0.00000000000E+00 -0.00000000000E+00 -0.53372085401E+03  0.53372085401E+03  0.00000000000E+00 0. -1.
      99926    2    1    2    0    0  0.14210854715E-13 -0.17763568394E-14 -0.43673222145E+03  0.63070948657E+03  0.45503782611E+03 0.  0.
      99925    2    3    3    0    0 -0.73282164804E+02  0.93777257584E+01 -0.15622583053E+03  0.31481462927E+03  0.26314164106E+03 0.  0.
         25    1    3    3    0    0  0.73282164804E+02 -0.93777257584E+01 -0.28050639092E+03  0.31589485730E+03  0.12509000000E+03 0.  0.
         25    1    4    4    0    0 -0.70503575919E+02 -0.13439863143E+02 -0.10150475151E+03  0.17635789412E+03  0.12509000000E+03 0.  0.
         25    1    4    4    0    0 -0.27785888855E+01  0.22817588901E+02 -0.54721079023E+02  0.13845673515E+03  0.12509000000E+03 0.  0.
<mgrwt>
<rscale>  2 0.45503783E+03</rscale>
<asrwt>0</asrwt>
<pdfrwt beam="1">  1       21 0.14263034E-01 0.45503783E+03</pdfrwt>
<pdfrwt beam="2">  1       21 0.78488363E-01 0.45503783E+03</pdfrwt>
<totfact> 0.56809770E+04</totfact>
</mgrwt>
</event>
<event>
 7    0  0.4737014E-002  0.4493463E+03  0.7546771E-02  0.1027917E+00
         21   -1    0    0  502  501  0.00000000000E+00  0.00000000000E+00  0.40588838491E+03  0.40588838491E+03  0.00000000000E+00 0.  1.
         21   -1    0    0  501  502 -0.00000000000E+00 -0.00000000000E+00 -0.12436430013E+03  0.12436430013E+03  0.00000000000E+00 0.  1.
      99926    2    1    2    0    0  0.00000000000E+00  0.00000000000E+00  0.28152408478E+03  0.53025268504E+03  0.44934630262E+03 0.  0.
      99925    2    3    3    0    0 -0.57023758533E+02  0.85146522819E+02  0.13854130736E+03  0.31439805312E+03  0.26296540185E+03 0.  0.
         25    1    4    4    0    0  0.35647893377E+01  0.47517122668E+02  0.94373899061E+02  0.16378194526E+03  0.12509000000E+03 0.  0.
         25    1    4    4    0    0 -0.60588547870E+02  0.37629400151E+02  0.44167408303E+02  0.15061610785E+03  0.12509000000E+03 0.  0.
         25    1    3    3    0    0  0.57023758533E+02 -0.85146522819E+02  0.14298277742E+03  0.21585463192E+03  0.12509000000E+03 0.  0.
<mgrwt>
<rscale>  2 0.44934630E+03</rscale>
<asrwt>0</asrwt>
<pdfrwt beam="1">  1       21 0.59689468E-01 0.44934630E+03</pdfrwt>
<pdfrwt beam="2">  1       21 0.18288868E-01 0.44934630E+03</pdfrwt>
<totfact> 0.66099484E+04</totfact>
</mgrwt>
</event>
<event>
 7    0  0.4737014E-002  0.4534315E+03  0.7546771E-02  0.1026704E+00
         21   -1    0    0  502  501  0.00000000000E+00  0.00000000000E+00  0.20036156874E+03  0.20036156874E+03  0.00000000000E+00 0.  1.
         21   -1    0    0  501  502 -0.00000000000E+00 -0.00000000000E+00 -0.25653634764E+03  0.25653634764E+03  0.00000000000E+00 0.  1.
      99926    2    1    2    0    0  0.00000000000E+00  0.00000000000E+00 -0.56174778900E+02  0.45689791639E+03  0.45343147246E+03 0.  0.
      99925    2    3    3    0    0 -0.10187071732E+03  0.10796638567E+02  0.91703785106E+01  0.28250838646E+03  0.26312104083E+03 0.  0.
         25    1    4    4    0    0 -0.79366299235E+02  0.31470861931E+02  0.22258011193E+02  0.15307629394E+03  0.12509000000E+03 0.  0.
         25    1    3    3    0    0  0.10187071732E+03 -0.10796638567E+02 -0.65345157410E+02  0.17438952993E+03  0.12509000000E+03 0.  0.
         25    1    4    4    0    0 -0.22504418081E+02 -0.20674223363E+02 -0.13087632682E+02  0.12943209252E+03  0.12509000000E+03 0.  0.
<mgrwt>
<rscale>  2 0.45343147E+03</rscale>
<asrwt>0</asrwt>
<pdfrwt beam="1">  1       21 0.29464937E-01 0.45343147E+03</pdfrwt>
<pdfrwt beam="2">  1       21 0.37725933E-01 0.45343147E+03</pdfrwt>
<totfact> 0.69269633E+04</totfact>
</mgrwt>
</event>
<event>
 7    0  0.4737014E-002  0.4402818E+03  0.7546771E-02  0.1030660E+00
         21   -1    0    0  502  501  0.00000000000E+00  0.00000000000E+00  0.46647743577E+03  0.46647743577E+03  0.00000000000E+00 0. -1.
         21   -1    0    0  501  502 -0.00000000000E+00 -0.00000000000E+00 -0.10388927988E+03  0.10388927988E+03  0.00000000000E+00 0. -1.
      99926    2    1    2    0    0  0.00000000000E+00  0.00000000000E+00  0.36258815589E+03  0.57036671565E+03  0.44028175016E+03 0.  0.
      99925    2    3    3    0    0 -0.60571703418E+02 -0.98839357226E+01  0.13086311641E+03  0.29997694982E+03  0.26285812095E+03 0.  0.
         25    1    4    4    0    0  0.42521081714E+01 -0.54269744854E+01  0.37012986411E+02  0.13063308057E+03  0.12509000000E+03 0.  0.
         25    1    3    3    0    0  0.60571703418E+02  0.98839357226E+01  0.23172503949E+03  0.27038976583E+03  0.12509000000E+03 0.  0.
         25    1    4    4    0    0 -0.64823811589E+02 -0.44569612372E+01  0.93850129996E+02  0.16934386925E+03  0.12509000000E+03 0.  0.
<mgrwt>
<rscale>  2 0.44028175E+03</rscale>
<asrwt>0</asrwt>
<pdfrwt beam="1">  1       21 0.68599622E-01 0.44028175E+03</pdfrwt>
<pdfrwt beam="2">  1       21 0.15277835E-01 0.44028175E+03</pdfrwt>
<totfact> 0.68130128E+04</totfact>
</mgrwt>
</event>
<event>
 7    0  0.4737014E-002  0.4489732E+03  0.7546771E-02  0.1028029E+00
         21   -1    0    0  502  501  0.00000000000E+00  0.00000000000E+00  0.73062709021E+02  0.73062709021E+02  0.00000000000E+00 0.  1.
         21   -1    0    0  501  502 -0.00000000000E+00 -0.00000000000E+00 -0.68973946937E+03  0.68973946937E+03  0.00000000000E+00 0.  1.
      99926    2    1    2    0    0 -0.35527136788E-14  0.00000000000E+00 -0.61667676035E+03  0.76280217839E+03  0.44897320255E+03 0.  0.
      99925    2    3    3    0    0  0.18533160952E+02 -0.97725028429E+02 -0.45941833038E+03  0.53858937516E+03  0.26290616864E+03 0.  0.
         25    1    3    3    0    0 -0.18533160952E+02  0.97725028429E+02 -0.15725842997E+03  0.22421280323E+03  0.12509000000E+03 0.  0.
         25    1    4    4    0    0 -0.23208604076E+02 -0.56679535948E+02 -0.27421768050E+03  0.30756146296E+03  0.12509000000E+03 0.  0.
         25    1    4    4    0    0  0.41741765028E+02 -0.41045492481E+02 -0.18520064989E+03  0.23102791221E+03  0.12509000000E+03 0.  0.
<mgrwt>
<rscale>  2 0.44897320E+03</rscale>
<asrwt>0</asrwt>
<pdfrwt beam="1">  1       21 0.10744516E-01 0.44897320E+03</pdfrwt>
<pdfrwt beam="2">  1       21 0.10143228E+00 0.44897320E+03</pdfrwt>
<totfact> 0.52035138E+04</totfact>
</mgrwt>
</event>
<event>
 7    0  0.4737014E-002  0.4381614E+03  0.7546771E-02  0.1031312E+00
         21   -1    0    0  502  501  0.00000000000E+00  0.00000000000E+00  0.22211360632E+03  0.22211360632E+03  0.00000000000E+00 0. -1.
         21   -1    0    0  501  502 -0.00000000000E+00 -0.00000000000E+00 -0.21608923779E+03  0.21608923779E+03  0.00000000000E+00 0. -1.
      99926    2    1    2    0    0  0.00000000000E+00  0.00000000000E+00  0.60243685329E+01  0.43820284410E+03  0.43816143094E+03 0.  0.
      99925    2    3    3    0    0 -0.19869521382E+02 -0.18179577055E+02 -0.88749391118E+02  0.27897072259E+03  0.26310247954E+03 0.  0.
         25    1    4    4    0    0 -0.50087499721E+02 -0.12474520039E+02 -0.38382981111E+02  0.14065963393E+03  0.12509000000E+03 0.  0.
         25    1    4    4    0    0  0.30217978338E+02 -0.57050570161E+01 -0.50366410007E+02  0.13831108866E+03  0.12509000000E+03 0.  0.
         25    1    3    3    0    0  0.19869521382E+02  0.18179577055E+02  0.94773759651E+02  0.15923212151E+03  0.12509000000E+03 0.  0.
<mgrwt>
<rscale>  2 0.43816143E+03</rscale>
<asrwt>0</asrwt>
<pdfrwt beam="1">  1       21 0.32663766E-01 0.43816143E+03</pdfrwt>
<pdfrwt beam="2">  1       21 0.31777829E-01 0.43816143E+03</pdfrwt>
<totfact> 0.80016450E+04</totfact>
</mgrwt>
</event>
<event>
 7    0  0.4737014E-002  0.4049951E+03  0.7546771E-02  0.1042064E+00
         21   -1    0    0  502  501  0.00000000000E+00  0.00000000000E+00  0.14091119370E+03  0.14091119370E+03  0.00000000000E+00 0. -1.
         21   -1    0    0  501  502 -0.00000000000E+00 -0.00000000000E+00 -0.29100070835E+03  0.29100070835E+03  0.00000000000E+00 0. -1.
      99926    2    1    2    0    0 -0.35527136788E-14  0.00000000000E+00 -0.15008951465E+03  0.43191190205E+03  0.40499509716E+03 0.  0.
      99925    2    3    3    0    0  0.22459249068E+02 -0.50788018526E+01 -0.46907442325E+02  0.26813076685E+03  0.26298971061E+03 0.  0.
         25    1    4    4    0    0  0.96818912370E+01  0.29745403927E+02  0.15430672974E+01  0.12895122035E+03  0.12509000000E+03 0.  0.
         25    1    4    4    0    0  0.12777357831E+02 -0.34824205780E+02 -0.48450509622E+02  0.13917954650E+03  0.12509000000E+03 0.  0.
         25    1    3    3    0    0 -0.22459249068E+02  0.50788018526E+01 -0.10318207233E+03  0.16378113520E+03  0.12509000000E+03 0.  0.
<mgrwt>
<rscale>  2 0.40499510E+03</rscale>
<asrwt>0</asrwt>
<pdfrwt beam="1">  1       21 0.20722235E-01 0.40499510E+03</pdfrwt>
<pdfrwt beam="2">  1       21 0.42794221E-01 0.40499510E+03</pdfrwt>
<totfact> 0.10689903E+05</totfact>
</mgrwt>
</event>
<event>
 7    0  0.4737014E-002  0.4559488E+03  0.7546771E-02  0.1025963E+00
         21   -1    0    0  502  501  0.00000000000E+00  0.00000000000E+00  0.24961038613E+03  0.24961038613E+03  0.00000000000E+00 0.  1.
         21   -1    0    0  501  502 -0.00000000000E+00 -0.00000000000E+00 -0.20821381741E+03  0.20821381741E+03  0.00000000000E+00 0.  1.
      99926    2    1    2    0    0  0.00000000000E+00  0.00000000000E+00  0.41396568719E+02  0.45782420353E+03  0.45594881888E+03 0.  0.
      99925    2    3    3    0    0 -0.90920805499E+02  0.12141456238E+02 -0.42279750726E+02  0.28157653016E+03  0.26283789146E+03 0.  0.
         25    1    4    4    0    0 -0.84557207292E+02  0.51753745645E+01 -0.68858817456E+01  0.15123369094E+03  0.12509000000E+03 0.  0.
         25    1    3    3    0    0  0.90920805499E+02 -0.12141456238E+02  0.83676319445E+02  0.17624767337E+03  0.12509000000E+03 0.  0.
         25    1    4    4    0    0 -0.63635982068E+01  0.69660816731E+01 -0.35393868981E+02  0.13034283923E+03  0.12509000000E+03 0.  0.
<mgrwt>
<rscale>  2 0.45594882E+03</rscale>
<asrwt>0</asrwt>
<pdfrwt beam="1">  1       21 0.36707410E-01 0.45594882E+03</pdfrwt>
<pdfrwt beam="2">  1       21 0.30619679E-01 0.45594882E+03</pdfrwt>
<totfact> 0.67824497E+04</totfact>
</mgrwt>
</event>
<event>
 7    0  0.4737014E-002  0.4413769E+03  0.7546771E-02  0.1030325E+00
         21   -1    0    0  502  501  0.00000000000E+00  0.00000000000E+00  0.26606271501E+03  0.26606271501E+03  0.00000000000E+00 0.  1.
         21   -1    0    0  501  502 -0.00000000000E+00 -0.00000000000E+00 -0.18305229386E+03  0.18305229386E+03  0.00000000000E+00 0.  1.
      99926    2    1    2    0    0  0.00000000000E+00  0.00000000000E+00  0.83010421146E+02  0.44911500887E+03  0.44137689243E+03 0.  0.
      99925    2    3    3    0    0  0.61220987855E+02 -0.73339624088E+02  0.23343561401E+02  0.28078690050E+03  0.26300123919E+03 0.  0.
         25    1    4    4    0    0  0.58136095960E+02 -0.61401713785E+02 -0.81404861698E+01  0.15120764440E+03  0.12509000000E+03 0.  0.
         25    1    4    4    0    0  0.30848918952E+01 -0.11937910303E+02  0.31484047571E+02  0.12957925610E+03  0.12509000000E+03 0.  0.
         25    1    3    3    0    0 -0.61220987855E+02  0.73339624088E+02  0.59666859744E+02  0.16832810837E+03  0.12509000000E+03 0.  0.
<mgrwt>
<rscale>  2 0.44137689E+03</rscale>
<asrwt>0</asrwt>
<pdfrwt beam="1">  1       21 0.39126870E-01 0.44137689E+03</pdfrwt>
<pdfrwt beam="2">  1       21 0.26919455E-01 0.44137689E+03</pdfrwt>
<totfact> 0.77011777E+04</totfact>
</mgrwt>
</event>
<event>
 7    0  0.4737014E-002  0.4460233E+03  0.7546771E-02  0.1028915E+00
         21   -1    0    0  502  501  0.00000000000E+00  0.00000000000E+00  0.62646411477E+02  0.62646411477E+02  0.00000000000E+00 0. -1.
         21   -1    0    0  501  502 -0.00000000000E+00 -0.00000000000E+00 -0.79388728473E+03  0.79388728473E+03  0.00000000000E+00 0. -1.
      99926    2    1    2    0    0  0.14210854715E-13 -0.14210854715E-13 -0.73124087325E+03  0.85653369620E+03  0.44602327072E+03 0.  0.
      99925    2    3    3    0    0 -0.72090133966E+02  0.72462336287E+02 -0.50505532403E+03  0.57858552051E+03  0.26312078333E+03 0.  0.
         25    1    3    3    0    0  0.72090133966E+02 -0.72462336287E+02 -0.22618554922E+03  0.27794817569E+03  0.12509000000E+03 0.  0.
         25    1    4    4    0    0 -0.42198100742E+02  0.26588906306E+02 -0.17071971401E+03  0.21744051715E+03  0.12509000000E+03 0.  0.
         25    1    4    4    0    0 -0.29892033224E+02  0.45873429981E+02 -0.33433561001E+03  0.36114500336E+03  0.12509000000E+03 0.  0.
<mgrwt>
<rscale>  2 0.44602327E+03</rscale>
<asrwt>0</asrwt>
<pdfrwt beam="1">  1       21 0.92127079E-02 0.44602327E+03</pdfrwt>
<pdfrwt beam="2">  1       21 0.11674813E+00 0.44602327E+03</pdfrwt>
<totfact> 0.48472393E+04</totfact>
</mgrwt>
</event>
<event>
 7    0  0.4737014E-002  0.4608890E+03  0.7546771E-02  0.1024524E+00
         21   -1    0    0  502  501  0.00000000000E+00  0.00000000000E+00  0.51713669297E+02  0.51713669297E+02  0.00000000000E+00 0. -1.
         21   -1    0    0  501  502 -0.00000000000E+00 -0.00000000000E+00 -0.10268980162E+04  0.10268980162E+04  0.00000000000E+00 0. -1.
      99926    2    1    2    0    0  0.14210854715E-13 -0.11102230246E-14 -0.97518434689E+03  0.10786116855E+04  0.46088898625E+03 0.  0.
      99925    2    3    3    0    0 -0.11272431202E+03  0.52903557052E+00 -0.52450313620E+03  0.59750035515E+03  0.26305148571E+03 0.  0.
         25    1    4    4    0    0 -0.72422576447E+02 -0.99889951805E+01 -0.19772137102E+03  0.24512457703E+03  0.12509000000E+03 0.  0.
         25    1    3    3    0    0  0.11272431202E+03 -0.52903557052E+00 -0.45068121069E+03  0.48111133033E+03  0.12509000000E+03 0.  0.
         25    1    4    4    0    0 -0.40301735570E+02  0.10518030751E+02 -0.32678176517E+03  0.35237577813E+03  0.12509000000E+03 0.  0.
<mgrwt>
<rscale>  2 0.46088899E+03</rscale>
<asrwt>0</asrwt>
<pdfrwt beam="1">  1       21 0.76049524E-02 0.46088899E+03</pdfrwt>
<pdfrwt beam="2">  1       21 0.15101439E+00 0.46088899E+03</pdfrwt>
<totfact> 0.34626048E+04</totfact>
</mgrwt>
</event>
<event>
 7    0  0.4737014E-002  0.4523788E+03  0.7546771E-02  0.1027015E+00
         21   -1    0    0  502  501  0.00000000000E+00  0.00000000000E+00  0.10796576425E+03  0.10796576425E+03  0.00000000000E+00 0.  1.
         21   -1    0    0  501  502 -0.00000000000E+00 -0.00000000000E+00 -0.47386922407E+03  0.47386922407E+03  0.00000000000E+00 0.  1.
      99926    2    1    2    0    0  0.00000000000E+00  0.00000000000E+00 -0.36590345982E+03  0.58183498832E+03  0.45237883651E+03 0.  0.
      99925    2    3    3    0    0  0.40503683462E+02 -0.10267672142E+02 -0.36260426454E+03  0.44990937953E+03  0.26304110640E+03 0.  0.
         25    1    4    4    0    0 -0.32257585607E+01 -0.15235966878E+02 -0.12336618612E+03  0.17637818511E+03  0.12509000000E+03 0.  0.
         25    1    4    4    0    0  0.43729442022E+02  0.49682947354E+01 -0.23923807842E+03  0.27353119442E+03  0.12509000000E+03 0.  0.
         25    1    3    3    0    0 -0.40503683462E+02  0.10267672142E+02 -0.32991952808E+01  0.13192560879E+03  0.12509000000E+03 0.  0.
<mgrwt>
<rscale>  2 0.45237884E+03</rscale>
<asrwt>0</asrwt>
<pdfrwt beam="1">  1       21 0.15877318E-01 0.45237884E+03</pdfrwt>
<pdfrwt beam="2">  1       21 0.69686651E-01 0.45237884E+03</pdfrwt>
<totfact> 0.61066079E+04</totfact>
</mgrwt>
</event>
<event>
 7    0  0.4737014E-002  0.4615421E+03  0.7546771E-02  0.1024335E+00
         21   -1    0    0  502  501  0.00000000000E+00  0.00000000000E+00  0.83313060515E+02  0.83313060515E+02  0.00000000000E+00 0. -1.
         21   -1    0    0  501  502 -0.00000000000E+00 -0.00000000000E+00 -0.63921890708E+03  0.63921890708E+03  0.00000000000E+00 0. -1.
      99926    2    1    2    0    0  0.14210854715E-13  0.00000000000E+00 -0.55590584657E+03  0.72253196760E+03  0.46154212587E+03 0.  0.
      99925    2    3    3    0    0 -0.10360210814E+03  0.18633031649E+02 -0.26038337328E+03  0.38480185790E+03  0.26304444887E+03 0.  0.
         25    1    4    4    0    0 -0.36309377137E+02  0.16685234887E+02 -0.74920176540E+02  0.15118633829E+03  0.12509000000E+03 0.  0.
         25    1    3    3    0    0  0.10360210814E+03 -0.18633031649E+02 -0.29552247329E+03  0.33773010970E+03  0.12509000000E+03 0.  0.
         25    1    4    4    0    0 -0.67292731007E+02  0.19477967627E+01 -0.18546319674E+03  0.23361551961E+03  0.12509000000E+03 0.  0.
<mgrwt>
<rscale>  2 0.46154213E+03</rscale>
<asrwt>0</asrwt>
<pdfrwt beam="1">  1       21 0.12251921E-01 0.46154213E+03</pdfrwt>
<pdfrwt beam="2">  1       21 0.94002779E-01 0.46154213E+03</pdfrwt>
<totfact> 0.49119990E+04</totfact>
</mgrwt>
</event>
<event>
 7    0  0.4737014E-002  0.4566954E+03  0.7546771E-02  0.1025744E+00
         21   -1    0    0  502  501  0.00000000000E+00  0.00000000000E+00  0.24868663868E+04  0.24868663868E+04  0.00000000000E+00 0. -1.
         21   -1    0    0  501  502 -0.00000000000E+00 -0.00000000000E+00 -0.20967215547E+02  0.20967215547E+02  0.00000000000E+00 0. -1.
      99926    2    1    2    0    0  0.00000000000E+00  0.00000000000E+00  0.24658991713E+04  0.25078336024E+04  0.45669536266E+03 0.  0.
      99925    2    3    3    0    0  0.24276300176E+02 -0.86232714006E+02  0.19436715115E+04  0.19634122063E+04  0.26287473764E+03 0.  0.
         25    1    3    3    0    0 -0.24276300176E+02  0.86232714006E+02  0.52222765978E+03  0.54442139603E+03  0.12509000000E+03 0.  0.
         25    1    4    4    0    0 -0.88623182957E+01 -0.11175073650E+02  0.10130756983E+04  0.10208688953E+04  0.12509000000E+03 0.  0.
         25    1    4    4    0    0  0.33138618472E+02 -0.75057640356E+02  0.93059581324E+03  0.94254331101E+03  0.12509000000E+03 0.  0.
<mgrwt>
<rscale>  2 0.45669536E+03</rscale>
<asrwt>0</asrwt>
<pdfrwt beam="1">  1       21 0.36571544E+00 0.45669536E+03</pdfrwt>
<pdfrwt beam="2">  1       21 0.30834158E-02 0.45669536E+03</pdfrwt>
<totfact> 0.69597817E+03</totfact>
</mgrwt>
</event>
<event>
 7    0  0.4737014E-002  0.4553687E+03  0.7546771E-02  0.1026133E+00
         21   -1    0    0  502  501  0.00000000000E+00  0.00000000000E+00  0.14308824665E+03  0.14308824665E+03  0.00000000000E+00 0. -1.
         21   -1    0    0  501  502 -0.00000000000E+00 -0.00000000000E+00 -0.36229498876E+03  0.36229498876E+03  0.00000000000E+00 0. -1.
      99926    2    1    2    0    0 -0.14210854715E-13  0.14210854715E-13 -0.21920674212E+03  0.50538323541E+03  0.45536866257E+03 0.  0.
      99925    2    3    3    0    0 -0.85339717849E+02  0.71359524901E+02 -0.16316160742E+03  0.32885104441E+03  0.26295674557E+03 0.  0.
         25    1    3    3    0    0  0.85339717849E+02 -0.71359524901E+02 -0.56045134697E+02  0.17653219100E+03  0.12509000000E+03 0.  0.
         25    1    4    4    0    0 -0.63986785259E+02  0.53888397268E+02 -0.12373803256E+03  0.19482524695E+03  0.12509000000E+03 0.  0.
         25    1    4    4    0    0 -0.21352932590E+02  0.17471127632E+02 -0.39423574861E+02  0.13402579746E+03  0.12509000000E+03 0.  0.
<mgrwt>
<rscale>  2 0.45536866E+03</rscale>
<asrwt>0</asrwt>
<pdfrwt beam="1">  1       21 0.21042389E-01 0.45536866E+03</pdfrwt>
<pdfrwt beam="2">  1       21 0.53278674E-01 0.45536866E+03</pdfrwt>
<totfact> 0.64704561E+04</totfact>
</mgrwt>
</event>
<event>
 7    0  0.4737014E-002  0.4456629E+03  0.7546771E-02  0.1029023E+00
         21   -1    0    0  502  501  0.00000000000E+00  0.00000000000E+00  0.46753114948E+02  0.46753114948E+02  0.00000000000E+00 0. -1.
         21   -1    0    0  501  502 -0.00000000000E+00 -0.00000000000E+00 -0.10620438830E+04  0.10620438830E+04  0.00000000000E+00 0. -1.
      99926    2    1    2    0    0  0.14210854715E-13 -0.71054273576E-14 -0.10152907681E+04  0.11087969979E+04  0.44566292079E+03 0.  0.
      99925    2    3    3    0    0  0.72845796436E+02  0.52379578393E+02 -0.77612257866E+03  0.82436939519E+03  0.26299907288E+03 0.  0.
         25    1    3    3    0    0 -0.72845796436E+02 -0.52379578393E+02 -0.23916818939E+03  0.28442760275E+03  0.12509000000E+03 0.  0.
         25    1    4    4    0    0  0.10547629245E+01  0.70842065261E+01 -0.31074417881E+03  0.33505335585E+03  0.12509000000E+03 0.  0.
         25    1    4    4    0    0  0.71791033511E+02  0.45295371866E+02 -0.46537839985E+03  0.48931603934E+03  0.12509000000E+03 0.  0.
<mgrwt>
<rscale>  2 0.44566292E+03</rscale>
<asrwt>0</asrwt>
<pdfrwt beam="1">  1       21 0.68754589E-02 0.44566292E+03</pdfrwt>
<pdfrwt beam="2">  1       21 0.15618291E+00 0.44566292E+03</pdfrwt>
<totfact> 0.37871016E+04</totfact>
</mgrwt>
</event>
<event>
 7    0  0.4737014E-002  0.4521934E+03  0.7546771E-02  0.1027070E+00
         21   -1    0    0  502  501  0.00000000000E+00  0.00000000000E+00  0.16617051346E+03  0.16617051346E+03  0.00000000000E+00 0.  1.
         21   -1    0    0  501  502 -0.00000000000E+00 -0.00000000000E+00 -0.30763407406E+03  0.30763407406E+03  0.00000000000E+00 0.  1.
      99926    2    1    2    0    0  0.00000000000E+00 -0.35527136788E-14 -0.14146356060E+03  0.47380458752E+03  0.45219337476E+03 0.  0.
      99925    2    3    3    0    0  0.10010704631E+03  0.31200130845E+02 -0.12581938465E+03  0.30983167138E+03  0.26300242993E+03 0.  0.
         25    1    4    4    0    0  0.37264824689E+02  0.23338408974E+02 -0.19824708764E+02  0.13406668367E+03  0.12509000000E+03 0.  0.
         25    1    4    4    0    0  0.62842221626E+02  0.78617218709E+01 -0.10599467588E+03  0.17576498771E+03  0.12509000000E+03 0.  0.
         25    1    3    3    0    0 -0.10010704631E+03 -0.31200130845E+02 -0.15644175957E+02  0.16397291614E+03  0.12509000000E+03 0.  0.
<mgrwt>
<rscale>  2 0.45219337E+03</rscale>
<asrwt>0</asrwt>
<pdfrwt beam="1">  1       21 0.24436841E-01 0.45219337E+03</pdfrwt>
<pdfrwt beam="2">  1       21 0.45240304E-01 0.45219337E+03</pdfrwt>
<totfact> 0.68670754E+04</totfact>
</mgrwt>
</event>
<event>
 7    0  0.4737014E-002  0.4500432E+03  0.7546771E-02  0.1027709E+00
         21   -1    0    0  502  501  0.00000000000E+00  0.00000000000E+00  0.33987371115E+03  0.33987371115E+03  0.00000000000E+00 0.  1.
         21   -1    0    0  501  502 -0.00000000000E+00 -0.00000000000E+00 -0.14898095575E+03  0.14898095575E+03  0.00000000000E+00 0.  1.
      99926    2    1    2    0    0  0.00000000000E+00  0.17763568394E-14  0.19089275540E+03  0.48885466689E+03  0.45004315491E+03 0.  0.
      99925    2    3    3    0    0  0.53351397458E+02 -0.14422467763E+02  0.19247138225E+02  0.26939144632E+03  0.26295801915E+03 0.  0.
         25    1    4    4    0    0 -0.29206520699E+01  0.77802232669E+01  0.33355805208E+02  0.12972732913E+03  0.12509000000E+03 0.  0.
         25    1    4    4    0    0  0.56272049528E+02 -0.22202691030E+02 -0.14108666983E+02  0.13966411719E+03  0.12509000000E+03 0.  0.
         25    1    3    3    0    0 -0.53351397458E+02  0.14422467763E+02  0.17164561718E+03  0.21946322057E+03  0.12509000000E+03 0.  0.
<mgrwt>
<rscale>  2 0.45004315E+03</rscale>
<asrwt>0</asrwt>
<pdfrwt beam="1">  1       21 0.49981428E-01 0.45004315E+03</pdfrwt>
<pdfrwt beam="2">  1       21 0.21908964E-01 0.45004315E+03</pdfrwt>
<totfact> 0.68725833E+04</totfact>
</mgrwt>
</event>
<event>
 7    0  0.4737014E-002  0.4505415E+03  0.7546771E-02  0.1027561E+00
         21   -1    0    0  502  501  0.00000000000E+00  0.00000000000E+00  0.11086901273E+03  0.11086901273E+03  0.00000000000E+00 0. -1.
         21   -1    0    0  501  502 -0.00000000000E+00 -0.00000000000E+00 -0.45771947981E+03  0.45771947981E+03  0.00000000000E+00 0. -1.
      99926    2    1    2    0    0  0.00000000000E+00  0.00000000000E+00 -0.34685046708E+03  0.56858849254E+03  0.45054148238E+03 0.  0.
      99925    2    3    3    0    0 -0.65296950138E+02 -0.16857218280E+01 -0.10908337142E+03  0.29209756461E+03  0.26297389980E+03 0.  0.
         25    1    4    4    0    0 -0.71906077927E+02 -0.13698405444E+02 -0.63868685904E+02  0.15838196707E+03  0.12509000000E+03 0.  0.
         25    1    3    3    0    0  0.65296950138E+02  0.16857218280E+01 -0.23776709565E+03  0.27649092794E+03  0.12509000000E+03 0.  0.
         25    1    4    4    0    0  0.66091277886E+01  0.12012683616E+02 -0.45214685520E+02  0.13371559754E+03  0.12509000000E+03 0.  0.
<mgrwt>
<rscale>  2 0.45054148E+03</rscale>
<asrwt>0</asrwt>
<pdfrwt beam="1">  1       21 0.16304267E-01 0.45054148E+03</pdfrwt>
<pdfrwt beam="2">  1       21 0.67311688E-01 0.45054148E+03</pdfrwt>
<totfact> 0.62841147E+04</totfact>
</mgrwt>
</event>
<event>
 7    0  0.4737014E-002  0.4581754E+03  0.7546771E-02  0.1025312E+00
         21   -1    0    0  502  501  0.00000000000E+00  0.00000000000E+00  0.66982617131E+02  0.66982617131E+02  0.00000000000E+00 0. -1.
         21   -1    0    0  501  502 -0.00000000000E+00 -0.00000000000E+00 -0.78350445633E+03  0.78350445633E+03  0.00000000000E+00 0. -1.
      99926    2    1    2    0    0 -0.17763568394E-14  0.71054273576E-14 -0.71652183920E+03  0.85048707346E+03  0.45817542063E+03 0.  0.
      99925    2    3    3    0    0 -0.15584116324E+02  0.56921654710E+02 -0.63520691366E+03  0.69004217740E+03  0.26303506225E+03 0.  0.
         25    1    4    4    0    0  0.77990686022E+01  0.54239618406E+02 -0.25762934219E+03  0.29158729007E+03  0.12509000000E+03 0.  0.
         25    1    3    3    0    0  0.15584116324E+02 -0.56921654710E+02 -0.81314925540E+02  0.16044489606E+03  0.12509000000E+03 0.  0.
         25    1    4    4    0    0 -0.23383184926E+02  0.26820363042E+01 -0.37757757147E+03  0.39845488732E+03  0.12509000000E+03 0.  0.
<mgrwt>
<rscale>  2 0.45817542E+03</rscale>
<asrwt>0</asrwt>
<pdfrwt beam="1">  1       21 0.98503845E-02 0.45817542E+03</pdfrwt>
<pdfrwt beam="2">  1       21 0.11522125E+00 0.45817542E+03</pdfrwt>
<totfact> 0.44303646E+04</totfact>
</mgrwt>
</event>
<event>
 7    0  0.4737014E-002  0.4535342E+03  0.7546771E-02  0.1026673E+00
         21   -1    0    0  502  501  0.00000000000E+00  0.00000000000E+00  0.54274912456E+03  0.54274912456E+03  0.00000000000E+00 0.  1.
         21   -1    0    0  501  502 -0.00000000000E+00 -0.00000000000E+00 -0.94746019494E+02  0.94746019494E+02  0.00000000000E+00 0.  1.
      99926    2    1    2    0    0  0.00000000000E+00  0.00000000000E+00  0.44800310507E+03  0.63749514405E+03  0.45353420659E+03 0.  0.
      99925    2    3    3    0    0 -0.68168039686E+02 -0.84424282978E+02  0.24467127946E+03  0.37526303200E+03  0.26302845283E+03 0.  0.
         25    1    4    4    0    0 -0.45929811653E+02 -0.29873523691E+02  0.17020489371E+03  0.21821821409E+03  0.12509000000E+03 0.  0.
         25    1    3    3    0    0  0.68168039686E+02  0.84424282978E+02  0.20333182560E+03  0.26223211206E+03  0.12509000000E+03 0.  0.
         25    1    4    4    0    0 -0.22238228033E+02 -0.54550759288E+02  0.74466385750E+02  0.15704481791E+03  0.12509000000E+03 0.  0.
<mgrwt>
<rscale>  2 0.45353421E+03</rscale>
<asrwt>0</asrwt>
<pdfrwt beam="1">  1       21 0.79816046E-01 0.45353421E+03</pdfrwt>
<pdfrwt beam="2">  1       21 0.13933238E-01 0.45353421E+03</pdfrwt>
<totfact> 0.57085215E+04</totfact>
</mgrwt>
</event>
<event>
 7    0  0.4737014E-002  0.4573204E+03  0.7546771E-02  0.1025561E+00
         21   -1    0    0  502  501  0.00000000000E+00  0.00000000000E+00  0.16942294211E+02  0.16942294211E+02  0.00000000000E+00 0.  1.
         21   -1    0    0  501  502 -0.00000000000E+00 -0.00000000000E+00 -0.30860923852E+04  0.30860923852E+04  0.00000000000E+00 0.  1.
      99926    2    1    2    0    0  0.71054273576E-14  0.00000000000E+00 -0.30691500910E+04  0.31030346794E+04  0.45732039164E+03 0.  0.
      99925    2    3    3    0    0 -0.53952323836E+02 -0.95698332644E+02 -0.16896460826E+04  0.17135211525E+04  0.26302439356E+03 0.  0.
         25    1    4    4    0    0 -0.50780331413E+01 -0.62911424313E+02 -0.66569004467E+03  0.68027522181E+03  0.12509000000E+03 0.  0.
         25    1    3    3    0    0  0.53952323836E+02  0.95698332644E+02 -0.13795040085E+04  0.13895135269E+04  0.12509000000E+03 0.  0.
         25    1    4    4    0    0 -0.48874290694E+02 -0.32786908331E+02 -0.10239560379E+04  0.10332459307E+04  0.12509000000E+03 0.  0.
<mgrwt>
<rscale>  2 0.45732039E+03</rscale>
<asrwt>0</asrwt>
<pdfrwt beam="1">  1       21 0.24915109E-02 0.45732039E+03</pdfrwt>
<pdfrwt beam="2">  1       21 0.45383765E+00 0.45732039E+03</pdfrwt>
<totfact> 0.26652188E+03</totfact>
</mgrwt>
</event>
<event>
 7    0  0.4737014E-002  0.4739821E+03  0.7546771E-02  0.1020802E+00
         21   -1    0    0  502  501  0.00000000000E+00  0.00000000000E+00  0.32271874227E+03  0.32271874227E+03  0.00000000000E+00 0.  1.
         21   -1    0    0  501  502 -0.00000000000E+00 -0.00000000000E+00 -0.17403622524E+03  0.17403622524E+03  0.00000000000E+00 0.  1.
      99926    2    1    2    0    0  0.00000000000E+00  0.00000000000E+00  0.14868251703E+03  0.49675496751E+03  0.47398207443E+03 0.  0.
      99925    2    3    3    0    0  0.11113264385E+03  0.21886313372E+02  0.25012485443E+02  0.28753914581E+03  0.26310389716E+03 0.  0.
         25    1    3    3    0    0 -0.11113264385E+03 -0.21886313372E+02  0.12367003158E+03  0.20921582171E+03  0.12509000000E+03 0.  0.
         25    1    4    4    0    0  0.53345676480E+02 -0.26291418760E+01 -0.26183593841E+02  0.13851267910E+03  0.12509000000E+03 0.  0.
         25    1    4    4    0    0  0.57786967368E+02  0.24515455248E+02  0.51196079284E+02  0.14902646670E+03  0.12509000000E+03 0.  0.
<mgrwt>
<rscale>  2 0.47398207E+03</rscale>
<asrwt>0</asrwt>
<pdfrwt beam="1">  1       21 0.47458639E-01 0.47398207E+03</pdfrwt>
<pdfrwt beam="2">  1       21 0.25593563E-01 0.47398207E+03</pdfrwt>
<totfact> 0.56494412E+04</totfact>
</mgrwt>
</event>
<event>
 7    0  0.4737014E-002  0.4568727E+03  0.7546771E-02  0.1025692E+00
         21   -1    0    0  502  501  0.00000000000E+00  0.00000000000E+00  0.11794797203E+03  0.11794797203E+03  0.00000000000E+00 0. -1.
         21   -1    0    0  501  502 -0.00000000000E+00 -0.00000000000E+00 -0.44242535792E+03  0.44242535792E+03  0.00000000000E+00 0. -1.
      99926    2    1    2    0    0 -0.17763568394E-14  0.00000000000E+00 -0.32447738589E+03  0.56037332996E+03  0.45687273389E+03 0.  0.
      99925    2    3    3    0    0  0.13832069456E+02 -0.11329722445E+03 -0.18362300475E+03  0.34011200334E+03  0.26254748091E+03 0.  0.
         25    1    3    3    0    0 -0.13832069456E+02  0.11329722445E+03 -0.14085438115E+03  0.22026132661E+03  0.12509000000E+03 0.  0.
         25    1    4    4    0    0 -0.88646478673E+01 -0.49169847758E+02 -0.46685370667E+02  0.14255976938E+03  0.12509000000E+03 0.  0.
         25    1    4    4    0    0  0.22696717323E+02 -0.64127376691E+02 -0.13693763408E+03  0.19755223397E+03  0.12509000000E+03 0.  0.
<mgrwt>
<rscale>  2 0.45687273E+03</rscale>
<asrwt>0</asrwt>
<pdfrwt beam="1">  1       21 0.17345290E-01 0.45687273E+03</pdfrwt>
<pdfrwt beam="2">  1       21 0.65062553E-01 0.45687273E+03</pdfrwt>
<totfact> 0.60288169E+04</totfact>
</mgrwt>
</event>
<event>
 7    0  0.4737014E-002  0.4552952E+03  0.7546771E-02  0.1026155E+00
         21   -1    0    0  502  501  0.00000000000E+00  0.00000000000E+00  0.27546216523E+03  0.27546216523E+03  0.00000000000E+00 0.  1.
         21   -1    0    0  501  502 -0.00000000000E+00 -0.00000000000E+00 -0.18813265078E+03  0.18813265078E+03  0.00000000000E+00 0.  1.
      99926    2    1    2    0    0  0.35527136788E-14  0.00000000000E+00  0.87329514449E+02  0.46359481601E+03  0.45529518923E+03 0.  0.
      99925    2    3    3    0    0 -0.14249119457E+02 -0.10239105628E+03  0.10308816473E+03  0.30055246271E+03  0.26271209969E+03 0.  0.
         25    1    4    4    0    0 -0.44295103720E+02 -0.50926320970E+02  0.36106504064E+02  0.14665174434E+03  0.12509000000E+03 0.  0.
         25    1    3    3    0    0  0.14249119457E+02  0.10239105628E+03 -0.15758650279E+02  0.16304235330E+03  0.12509000000E+03 0.  0.
         25    1    4    4    0    0  0.30045984263E+02 -0.51464735310E+02  0.66981660664E+02  0.15390071837E+03  0.12509000000E+03 0.  0.
<mgrwt>
<rscale>  2 0.45529519E+03</rscale>
<asrwt>0</asrwt>
<pdfrwt beam="1">  1       21 0.40509142E-01 0.45529519E+03</pdfrwt>
<pdfrwt beam="2">  1       21 0.27666566E-01 0.45529519E+03</pdfrwt>
<totfact> 0.67755489E+04</totfact>
</mgrwt>
</event>
<event>
 7    0  0.4737014E-002  0.4575741E+03  0.7546771E-02  0.1025487E+00
         21   -1    0    0  502  501  0.00000000000E+00  0.00000000000E+00  0.50694373652E+03  0.50694373652E+03  0.00000000000E+00 0.  1.
         21   -1    0    0  501  502 -0.00000000000E+00 -0.00000000000E+00 -0.10325311600E+03  0.10325311600E+03  0.00000000000E+00 0.  1.
      99926    2    1    2    0    0 -0.14210854715E-13  0.00000000000E+00  0.40369062052E+03  0.61019685252E+03  0.45757412704E+03 0.  0.
      99925    2    3    3    0    0  0.10352563836E+03  0.31320519845E+02  0.19943236581E+03  0.34738993581E+03  0.26307406980E+03 0.  0.
         25    1    3    3    0    0 -0.10352563836E+03 -0.31320519845E+02  0.20425825470E+03  0.26280691672E+03  0.12509000000E+03 0.  0.
         25    1    4    4    0    0  0.75370360544E+02 -0.42604586695E+00  0.68167524556E+02  0.16116821110E+03  0.12509000000E+03 0.  0.
         25    1    4    4    0    0  0.28155277815E+02  0.31746565711E+02  0.13126484126E+03  0.18622172471E+03  0.12509000000E+03 0.  0.
<mgrwt>
<rscale>  2 0.45757413E+03</rscale>
<asrwt>0</asrwt>
<pdfrwt beam="1">  1       21 0.74550548E-01 0.45757413E+03</pdfrwt>
<pdfrwt beam="2">  1       21 0.15184282E-01 0.45757413E+03</pdfrwt>
<totfact> 0.56889389E+04</totfact>
</mgrwt>
</event>
<event>
 7    0  0.4737014E-002  0.4482924E+03  0.7546771E-02  0.1028232E+00
         21   -1    0    0  502  501  0.00000000000E+00  0.00000000000E+00  0.56698036049E+02  0.56698036049E+02  0.00000000000E+00 0.  1.
         21   -1    0    0  501  502 -0.00000000000E+00 -0.00000000000E+00 -0.88612436425E+03  0.88612436425E+03  0.00000000000E+00 0.  1.
      99926    2    1    2    0    0  0.00000000000E+00  0.00000000000E+00 -0.82942632820E+03  0.94282240029E+03  0.44829236508E+03 0.  0.
      99925    2    3    3    0    0  0.67546590887E+02 -0.65952377924E+02 -0.62610932359E+03  0.68611717916E+03  0.26425676975E+03 0.  0.
         25    1    4    4    0    0  0.31597271652E+02  0.31852951388E+01 -0.35177852592E+03  0.37470544842E+03  0.12509000000E+03 0.  0.
         25    1    3    3    0    0 -0.67546590887E+02  0.65952377924E+02 -0.20331700461E+03  0.25670522113E+03  0.12509000000E+03 0.  0.
         25    1    4    4    0    0  0.35949319236E+02 -0.69137673063E+02 -0.27433079767E+03  0.31141173074E+03  0.12509000000E+03 0.  0.
<mgrwt>
<rscale>  2 0.44829237E+03</rscale>
<asrwt>0</asrwt>
<pdfrwt beam="1">  1       21 0.83379471E-02 0.44829237E+03</pdfrwt>
<pdfrwt beam="2">  1       21 0.13031240E+00 0.44829237E+03</pdfrwt>
<totfact> 0.43679439E+04</totfact>
</mgrwt>
</event>
<event>
 7    0  0.4737014E-002  0.4541585E+03  0.7546771E-02  0.1026489E+00
         21   -1    0    0  502  501  0.00000000000E+00  0.00000000000E+00  0.95954327167E+02  0.95954327167E+02  0.00000000000E+00 0.  1.
         21   -1    0    0  501  502 -0.00000000000E+00 -0.00000000000E+00 -0.53739085763E+03  0.53739085763E+03  0.00000000000E+00 0.  1.
      99926    2    1    2    0    0  0.00000000000E+00  0.44408920985E-15 -0.44143653046E+03  0.63334518480E+03  0.45415846648E+03 0.  0.
      99925    2    3    3    0    0  0.10778698830E+03  0.28057598206E+01 -0.23383605591E+03  0.36806915447E+03  0.26300131994E+03 0.  0.
         25    1    4    4    0    0  0.79920005038E+02 -0.24987849211E+02 -0.14950735085E+03  0.21215927006E+03  0.12509000000E+03 0.  0.
         25    1    3    3    0    0 -0.10778698830E+03 -0.28057598206E+01 -0.20760047455E+03  0.26527603033E+03  0.12509000000E+03 0.  0.
         25    1    4    4    0    0  0.27866983257E+02  0.27793609032E+02 -0.84328705062E+02  0.15590988441E+03  0.12509000000E+03 0.  0.
<mgrwt>
<rscale>  2 0.45415847E+03</rscale>
<asrwt>0</asrwt>
<pdfrwt beam="1">  1       21 0.14110931E-01 0.45415847E+03</pdfrwt>
<pdfrwt beam="2">  1       21 0.79028066E-01 0.45415847E+03</pdfrwt>
<totfact> 0.57049322E+04</totfact>
</mgrwt>
</event>
<event>
 7    0  0.4737014E-002  0.4517846E+03  0.7546771E-02  0.1027191E+00
         21   -1    0    0  502  501  0.00000000000E+00  0.00000000000E+00  0.12382774273E+03  0.12382774273E+03  0.00000000000E+00 0.  1.
         21   -1    0    0  501  502 -0.00000000000E+00 -0.00000000000E+00 -0.41208327757E+03  0.41208327757E+03  0.00000000000E+00 0.  1.
      99926    2    1    2    0    0  0.71054273576E-14  0.00000000000E+00 -0.28825553485E+03  0.53591102030E+03  0.45178464815E+03 0.  0.
      99925    2    3    3    0    0  0.61954917970E+02 -0.88898005035E+02 -0.20478980270E+03  0.35055918270E+03  0.26308099537E+03 0.  0.
         25    1    3    3    0    0 -0.61954917970E+02  0.88898005035E+02 -0.83465732148E+02  0.18535183760E+03  0.12509000000E+03 0.  0.
         25    1    4    4    0    0  0.49088678434E+02 -0.80772663165E+02 -0.94241502622E+02  0.18292864833E+03  0.12509000000E+03 0.  0.
         25    1    4    4    0    0  0.12866239536E+02 -0.81253418693E+01 -0.11054830008E+03  0.16763053436E+03  0.12509000000E+03 0.  0.
<mgrwt>
<rscale>  2 0.45178465E+03</rscale>
<asrwt>0</asrwt>
<pdfrwt beam="1">  1       21 0.18209962E-01 0.45178465E+03</pdfrwt>
<pdfrwt beam="2">  1       21 0.60600483E-01 0.45178465E+03</pdfrwt>
<totfact> 0.64431328E+04</totfact>
</mgrwt>
</event>
<event>
 7    0  0.4737014E-002  0.4253938E+03  0.7546771E-02  0.1035325E+00
         21   -1    0    0  502  501  0.00000000000E+00  0.00000000000E+00  0.26024138740E+03  0.26024138740E+03  0.00000000000E+00 0.  1.
         21   -1    0    0  501  502 -0.00000000000E+00 -0.00000000000E+00 -0.17383848344E+03  0.17383848344E+03  0.00000000000E+00 0.  1.
      99926    2    1    2    0    0  0.00000000000E+00  0.00000000000E+00  0.86402903957E+02  0.43407987084E+03  0.42539378517E+03 0.  0.
      99925    2    3    3    0    0 -0.18115559101E+02  0.59152794383E+02  0.37304325619E+00  0.27014124941E+03  0.26296183926E+03 0.  0.
         25    1    3    3    0    0  0.18115559101E+02 -0.59152794383E+02  0.86029860701E+02  0.16393862143E+03  0.12509000000E+03 0.  0.
         25    1    4    4    0    0 -0.43236135352E+02  0.51230711214E+02 -0.70236637100E+01  0.14209429659E+03  0.12509000000E+03 0.  0.
         25    1    4    4    0    0  0.25120576251E+02  0.79220831698E+01  0.73967069662E+01  0.12804695282E+03  0.12509000000E+03 0.  0.
<mgrwt>
<rscale>  2 0.42539379E+03</rscale>
<asrwt>0</asrwt>
<pdfrwt beam="1">  1       21 0.38270792E-01 0.42539379E+03</pdfrwt>
<pdfrwt beam="2">  1       21 0.25564483E-01 0.42539379E+03</pdfrwt>
<totfact> 0.89423170E+04</totfact>
</mgrwt>
</event>
<event>
 7    0  0.4737014E-002  0.4545040E+03  0.7546771E-02  0.1026387E+00
         21   -1    0    0  502  501  0.00000000000E+00  0.00000000000E+00  0.14023251178E+03  0.14023251178E+03  0.00000000000E+00 0. -1.
         21   -1    0    0  501  502 -0.00000000000E+00 -0.00000000000E+00 -0.36827032244E+03  0.36827032244E+03  0.00000000000E+00 0. -1.
      99926    2    1    2    0    0  0.00000000000E+00  0.00000000000E+00 -0.22803781065E+03  0.50850283422E+03  0.45450400364E+03 0.  0.
      99925    2    3    3    0    0  0.69964091494E+02 -0.47639735559E+02 -0.22677765825E+03  0.35746106984E+03  0.26303192139E+03 0.  0.
         25    1    4    4    0    0  0.45597587324E+02  0.12018363920E+02 -0.13154566136E+03  0.18755092685E+03  0.12509000000E+03 0.  0.
         25    1    4    4    0    0  0.24366504170E+02 -0.59658099478E+02 -0.95231996889E+02  0.16991014299E+03  0.12509000000E+03 0.  0.
         25    1    3    3    0    0 -0.69964091494E+02  0.47639735559E+02 -0.12601524038E+01  0.15104176438E+03  0.12509000000E+03 0.  0.
<mgrwt>
<rscale>  2 0.45450400E+03</rscale>
<asrwt>0</asrwt>
<pdfrwt beam="1">  1       21 0.20622428E-01 0.45450400E+03</pdfrwt>
<pdfrwt beam="2">  1       21 0.54157401E-01 0.45450400E+03</pdfrwt>
<totfact> 0.64932575E+04</totfact>
</mgrwt>
</event>
<event>
 7    0  0.4737014E-002  0.4626162E+03  0.7546771E-02  0.1024025E+00
         21   -1    0    0  502  501  0.00000000000E+00  0.00000000000E+00  0.24055778965E+02  0.24055778965E+02  0.00000000000E+00 0.  1.
         21   -1    0    0  501  502 -0.00000000000E+00 -0.00000000000E+00 -0.22241409035E+04  0.22241409035E+04  0.00000000000E+00 0.  1.
      99926    2    1    2    0    0  0.00000000000E+00  0.00000000000E+00 -0.22000851245E+04  0.22481966824E+04  0.46261622091E+03 0.  0.
      99925    2    3    3    0    0 -0.84494557464E+02 -0.60090345144E+02 -0.10803619835E+04  0.11167473463E+04  0.26304455911E+03 0.  0.
         25    1    3    3    0    0  0.84494557464E+02  0.60090345144E+02 -0.11197231410E+04  0.11314493362E+04  0.12509000000E+03 0.  0.
         25    1    4    4    0    0 -0.80307428448E+02 -0.32891790131E+02 -0.65850475354E+03  0.67587511528E+03  0.12509000000E+03 0.  0.
         25    1    4    4    0    0 -0.41871290163E+01 -0.27198555013E+02 -0.42185722999E+03  0.44087223097E+03  0.12509000000E+03 0.  0.
<mgrwt>
<rscale>  2 0.46261622E+03</rscale>
<asrwt>0</asrwt>
<pdfrwt beam="1">  1       21 0.35376140E-02 0.46261622E+03</pdfrwt>
<pdfrwt beam="2">  1       21 0.32707960E+00 0.46261622E+03</pdfrwt>
<totfact> 0.94902522E+03</totfact>
</mgrwt>
</event>
<event>
 7    0  0.4737014E-002  0.4508844E+03  0.7546771E-02  0.1027459E+00
         21   -1    0    0  502  501  0.00000000000E+00  0.00000000000E+00  0.10867768177E+03  0.10867768177E+03  0.00000000000E+00 0. -1.
         21   -1    0    0  501  502 -0.00000000000E+00 -0.00000000000E+00 -0.46765984109E+03  0.46765984109E+03  0.00000000000E+00 0. -1.
      99926    2    1    2    0    0  0.00000000000E+00 -0.17763568394E-14 -0.35898215932E+03  0.57633752286E+03  0.45088440819E+03 0.  0.
      99925    2    3    3    0    0  0.10154192664E+03  0.15873142984E+02 -0.27419867242E+03  0.39358504741E+03  0.26298585143E+03 0.  0.
         25    1    4    4    0    0  0.20574411313E+02 -0.18199036102E+02 -0.14483886467E+03  0.19333989794E+03  0.12509000000E+03 0.  0.
         25    1    3    3    0    0 -0.10154192664E+03 -0.15873142984E+02 -0.84783486905E+02  0.18275247545E+03  0.12509000000E+03 0.  0.
         25    1    4    4    0    0  0.80967515322E+02  0.34072179086E+02 -0.12935980775E+03  0.20024514947E+03  0.12509000000E+03 0.  0.
<mgrwt>
<rscale>  2 0.45088441E+03</rscale>
<asrwt>0</asrwt>
<pdfrwt beam="1">  1       21 0.15982012E-01 0.45088441E+03</pdfrwt>
<pdfrwt beam="2">  1       21 0.68773506E-01 0.45088441E+03</pdfrwt>
<totfact> 0.62156915E+04</totfact>
</mgrwt>
</event>
<event>
 7    0  0.4737014E-002  0.4547168E+03  0.7546771E-02  0.1026325E+00
         21   -1    0    0  502  501  0.00000000000E+00  0.00000000000E+00  0.13950261389E+03  0.13950261389E+03  0.00000000000E+00 0. -1.
         21   -1    0    0  501  502 -0.00000000000E+00 -0.00000000000E+00 -0.37054390893E+03  0.37054390893E+03  0.00000000000E+00 0. -1.
      99926    2    1    2    0    0  0.00000000000E+00 -0.71054273576E-14 -0.23104129504E+03  0.51004652282E+03  0.45471680794E+03 0.  0.
      99925    2    3    3    0    0 -0.46879470102E+02  0.40143643465E+02 -0.25153826568E+03  0.36906130823E+03  0.26291738875E+03 0.  0.
         25    1    4    4    0    0 -0.33468487896E+02  0.58022660799E+02 -0.14924353514E+03  0.20593180845E+03  0.12509000000E+03 0.  0.
         25    1    4    4    0    0 -0.13410982206E+02 -0.17879017333E+02 -0.10229473054E+03  0.16312949979E+03  0.12509000000E+03 0.  0.
         25    1    3    3    0    0  0.46879470102E+02 -0.40143643465E+02  0.20496970635E+02  0.14098521459E+03  0.12509000000E+03 0.  0.
<mgrwt>
<rscale>  2 0.45471681E+03</rscale>
<asrwt>0</asrwt>
<pdfrwt beam="1">  1       21 0.20515090E-01 0.45471681E+03</pdfrwt>
<pdfrwt beam="2">  1       21 0.54491751E-01 0.45471681E+03</pdfrwt>
<totfact> 0.64715794E+04</totfact>
</mgrwt>
</event>
<event>
 7    0  0.4737014E-002  0.4599510E+03  0.7546771E-02  0.1024795E+00
         21   -1    0    0  502  501  0.00000000000E+00  0.00000000000E+00  0.49977874604E+03  0.49977874604E+03  0.00000000000E+00 0. -1.
         21   -1    0    0  501  502 -0.00000000000E+00 -0.00000000000E+00 -0.10582429865E+03  0.10582429865E+03  0.00000000000E+00 0. -1.
      99926    2    1    2    0    0  0.14210854715E-13  0.00000000000E+00  0.39395444739E+03  0.60560304468E+03  0.45995102035E+03 0.  0.
      99925    2    3    3    0    0  0.10921988363E+03  0.39183693117E+01  0.18986395407E+03  0.34245902678E+03  0.26322144169E+03 0.  0.
         25    1    3    3    0    0 -0.10921988363E+03 -0.39183693117E+01  0.20409049332E+03  0.26314401791E+03  0.12509000000E+03 0.  0.
         25    1    4    4    0    0  0.88930781841E+02 -0.14487956009E+02  0.12734908812E+03  0.19995970387E+03  0.12509000000E+03 0.  0.
         25    1    4    4    0    0  0.20289101791E+02  0.18406325321E+02  0.62514865948E+02  0.14249932290E+03  0.12509000000E+03 0.  0.
<mgrwt>
<rscale>  2 0.45995102E+03</rscale>
<asrwt>0</asrwt>
<pdfrwt beam="1">  1       21 0.73496873E-01 0.45995102E+03</pdfrwt>
<pdfrwt beam="2">  1       21 0.15562397E-01 0.45995102E+03</pdfrwt>
<totfact> 0.56107699E+04</totfact>
</mgrwt>
</event>
<event>
 7    0  0.4737014E-002  0.4746738E+03  0.7546771E-02  0.1020609E+00
         21   -1    0    0  502  501  0.00000000000E+00  0.00000000000E+00  0.10366210010E+03  0.10366210010E+03  0.00000000000E+00 0. -1.
         21   -1    0    0  501  502 -0.00000000000E+00 -0.00000000000E+00 -0.54338850381E+03  0.54338850381E+03  0.00000000000E+00 0. -1.
      99926    2    1    2    0    0  0.71054273576E-14  0.00000000000E+00 -0.43972640371E+03  0.64705060390E+03  0.47467375522E+03 0.  0.
      99925    2    3    3    0    0 -0.55733636098E+02  0.64563658094E+02 -0.40708888913E+03  0.49217187845E+03  0.26312941711E+03 0.  0.
         25    1    4    4    0    0 -0.20639563731E+02  0.42378797187E+02 -0.13576471442E+03  0.19052957729E+03  0.12509000000E+03 0.  0.
         25    1    3    3    0    0  0.55733636098E+02 -0.64563658094E+02 -0.32637514581E+02  0.15487872545E+03  0.12509000000E+03 0.  0.
         25    1    4    4    0    0 -0.35094072367E+02  0.22184860908E+02 -0.27132417471E+03  0.30164230116E+03  0.12509000000E+03 0.  0.
<mgrwt>
<rscale>  2 0.47467376E+03</rscale>
<asrwt>0</asrwt>
<pdfrwt beam="1">  1       21 0.15244426E-01 0.47467376E+03</pdfrwt>
<pdfrwt beam="2">  1       21 0.79910077E-01 0.47467376E+03</pdfrwt>
<totfact> 0.47978076E+04</totfact>
</mgrwt>
</event>
<event>
 7    0  0.4737014E-002  0.4619010E+03  0.7546771E-02  0.1024231E+00
         21   -1    0    0  502  501  0.00000000000E+00  0.00000000000E+00  0.36748506113E+03  0.36748506113E+03  0.00000000000E+00 0. -1.
         21   -1    0    0  501  502 -0.00000000000E+00 -0.00000000000E+00 -0.14514370363E+03  0.14514370363E+03  0.00000000000E+00 0. -1.
      99926    2    1    2    0    0  0.00000000000E+00  0.00000000000E+00  0.22234135750E+03  0.51262876476E+03  0.46190104049E+03 0.  0.
      99925    2    3    3    0    0 -0.99943823665E+02  0.24178608775E+02  0.71227782136E+02  0.29114243613E+03  0.26290140387E+03 0.  0.
         25    1    4    4    0    0 -0.88387669242E+02 -0.52041088639E+01  0.36653571487E+02  0.15757682325E+03  0.12509000000E+03 0.  0.
         25    1    4    4    0    0 -0.11556154424E+02  0.29382717639E+02  0.34574210648E+02  0.13356561288E+03  0.12509000000E+03 0.  0.
         25    1    3    3    0    0  0.99943823665E+02 -0.24178608775E+02  0.15111357537E+03  0.22148632863E+03  0.12509000000E+03 0.  0.
<mgrwt>
<rscale>  2 0.46190104E+03</rscale>
<asrwt>0</asrwt>
<pdfrwt beam="1">  1       21 0.54041921E-01 0.46190104E+03</pdfrwt>
<pdfrwt beam="2">  1       21 0.21344662E-01 0.46190104E+03</pdfrwt>
<totfact> 0.60983099E+04</totfact>
</mgrwt>
</event>
<event>
 7    0  0.4737014E-002  0.4561839E+03  0.7546771E-02  0.1025894E+00
         21   -1    0    0  502  501  0.00000000000E+00  0.00000000000E+00  0.92389396384E+03  0.92389396384E+03  0.00000000000E+00 0. -1.
         21   -1    0    0  501  502 -0.00000000000E+00 -0.00000000000E+00 -0.56311594179E+02  0.56311594179E+02  0.00000000000E+00 0. -1.
      99926    2    1    2    0    0  0.00000000000E+00  0.00000000000E+00  0.86758236966E+03  0.98020555802E+03  0.45618391886E+03 0.  0.
      99925    2    3    3    0    0 -0.64621679992E+02  0.93185811433E+02  0.57515796082E+03  0.64253841428E+03  0.26303873659E+03 0.  0.
         25    1    4    4    0    0 -0.59832679527E+02  0.63665409059E+02  0.37218973260E+03  0.40225108950E+03  0.12509000000E+03 0.  0.
         25    1    4    4    0    0 -0.47890004649E+01  0.29520402374E+02  0.20296822823E+03  0.24028732478E+03  0.12509000000E+03 0.  0.
         25    1    3    3    0    0  0.64621679992E+02 -0.93185811433E+02  0.29242440883E+03  0.33766714374E+03  0.12509000000E+03 0.  0.
<mgrwt>
<rscale>  2 0.45618392E+03</rscale>
<asrwt>0</asrwt>
<pdfrwt beam="1">  1       21 0.13586675E+00 0.45618392E+03</pdfrwt>
<pdfrwt beam="2">  1       21 0.82811174E-02 0.45618392E+03</pdfrwt>
<totfact> 0.39573650E+04</totfact>
</mgrwt>
</event>
<event>
 7    0  0.4737014E-002  0.4281818E+03  0.7546771E-02  0.1034436E+00
         21   -1    0    0  502  501  0.00000000000E+00  0.00000000000E+00  0.55761488717E+03  0.55761488717E+03  0.00000000000E+00 0.  1.
         21   -1    0    0  501  502 -0.00000000000E+00 -0.00000000000E+00 -0.82198164110E+02  0.82198164110E+02  0.00000000000E+00 0.  1.
      99926    2    1    2    0    0  0.00000000000E+00  0.00000000000E+00  0.47541672306E+03  0.63981305128E+03  0.42818183056E+03 0.  0.
      99925    2    3    3    0    0  0.15801238362E+02 -0.15899744593E+02  0.18370680381E+03  0.32162338127E+03  0.26304168605E+03 0.  0.
         25    1    4    4    0    0  0.46983744529E+02 -0.11794582592E+01  0.82258226959E+02  0.15691649809E+03  0.12509000000E+03 0.  0.
         25    1    3    3    0    0 -0.15801238362E+02  0.15899744593E+02  0.29170991925E+03  0.31818967001E+03  0.12509000000E+03 0.  0.
         25    1    4    4    0    0 -0.31182506168E+02 -0.14720286334E+02  0.10144857685E+03  0.16470688318E+03  0.12509000000E+03 0.  0.
<mgrwt>
<rscale>  2 0.42818183E+03</rscale>
<asrwt>0</asrwt>
<pdfrwt beam="1">  1       21 0.82002188E-01 0.42818183E+03</pdfrwt>
<pdfrwt beam="2">  1       21 0.12087966E-01 0.42818183E+03</pdfrwt>
<totfact> 0.69956215E+04</totfact>
</mgrwt>
</event>
<event>
 7    0  0.4737014E-002  0.4633838E+03  0.7546771E-02  0.1023804E+00
         21   -1    0    0  502  501  0.00000000000E+00  0.00000000000E+00  0.17716195238E+03  0.17716195238E+03  0.00000000000E+00 0. -1.
         21   -1    0    0  501  502 -0.00000000000E+00 -0.00000000000E+00 -0.30300598352E+03  0.30300598352E+03  0.00000000000E+00 0. -1.
      99926    2    1    2    0    0 -0.14210854715E-13  0.00000000000E+00 -0.12584403113E+03  0.48016793590E+03  0.46338377885E+03 0.  0.
      99925    2    3    3    0    0  0.96330373127E+02 -0.27313463429E+02 -0.83850850623E+01  0.28149816421E+03  0.26295501656E+03 0.  0.
         25    1    3    3    0    0 -0.96330373127E+02  0.27313463429E+02 -0.11745894607E+03  0.19866977169E+03  0.12509000000E+03 0.  0.
         25    1    4    4    0    0  0.31887527186E+02  0.20222595760E+02 -0.21388506839E+02  0.13240371632E+03  0.12509000000E+03 0.  0.
         25    1    4    4    0    0  0.64442845941E+02 -0.47536059188E+02  0.13003421776E+02  0.14909444790E+03  0.12509000000E+03 0.  0.
<mgrwt>
<rscale>  2 0.46338378E+03</rscale>
<asrwt>0</asrwt>
<pdfrwt beam="1">  1       21 0.26053229E-01 0.46338378E+03</pdfrwt>
<pdfrwt beam="2">  1       21 0.44559703E-01 0.46338378E+03</pdfrwt>
<totfact> 0.62429741E+04</totfact>
</mgrwt>
</event>
<event>
 7    0  0.4737014E-002  0.4455620E+03  0.7546771E-02  0.1029054E+00
         21   -1    0    0  502  501  0.00000000000E+00  0.00000000000E+00  0.25473188103E+02  0.25473188103E+02  0.00000000000E+00 0. -1.
         21   -1    0    0  501  502 -0.00000000000E+00 -0.00000000000E+00 -0.19483774110E+04  0.19483774110E+04  0.00000000000E+00 0. -1.
      99926    2    1    2    0    0  0.00000000000E+00  0.00000000000E+00 -0.19229042229E+04  0.19738505991E+04  0.44556204635E+03 0.  0.
      99925    2    3    3    0    0  0.40334452409E+02 -0.51265514965E+02 -0.15793607029E+04  0.16024684787E+04  0.26319189670E+03 0.  0.
         25    1    4    4    0    0 -0.86431468253E+01 -0.30545869892E+02 -0.60016994046E+03  0.61388860528E+03  0.12509000000E+03 0.  0.
         25    1    3    3    0    0 -0.40334452409E+02  0.51265514965E+02 -0.34354351998E+03  0.37138212033E+03  0.12509000000E+03 0.  0.
         25    1    4    4    0    0  0.48977599235E+02 -0.20719645073E+02 -0.97919076242E+03  0.98857987346E+03  0.12509000000E+03 0.  0.
<mgrwt>
<rscale>  2 0.44556205E+03</rscale>
<asrwt>0</asrwt>
<pdfrwt beam="1">  1       21 0.37460564E-02 0.44556205E+03</pdfrwt>
<pdfrwt beam="2">  1       21 0.28652614E+00 0.44556205E+03</pdfrwt>
<totfact> 0.15226753E+04</totfact>
</mgrwt>
</event>
<event>
 7    0  0.4737014E-002  0.4562053E+03  0.7546771E-02  0.1025888E+00
         21   -1    0    0  502  501  0.00000000000E+00  0.00000000000E+00  0.95999997501E+03  0.95999997501E+03  0.00000000000E+00 0. -1.
         21   -1    0    0  501  502 -0.00000000000E+00 -0.00000000000E+00 -0.54198781537E+02  0.54198781537E+02  0.00000000000E+00 0. -1.
      99926    2    1    2    0    0  0.35527136788E-14  0.44408920985E-15  0.90580119347E+03  0.10141987565E+04  0.45620534377E+03 0.  0.
      99925    2    3    3    0    0  0.13863212487E+02 -0.34342260927E+01  0.31696783294E+03  0.41205573604E+03  0.26290176857E+03 0.  0.
         25    1    4    4    0    0 -0.22972305146E+02 -0.47282338917E+01  0.11432557528E+03  0.17107871949E+03  0.12509000000E+03 0.  0.
         25    1    4    4    0    0  0.36835517634E+02  0.12940077990E+01  0.20264225766E+03  0.24097701655E+03  0.12509000000E+03 0.  0.
         25    1    3    3    0    0 -0.13863212487E+02  0.34342260927E+01  0.58883336053E+03  0.60214302050E+03  0.12509000000E+03 0.  0.
<mgrwt>
<rscale>  2 0.45620534E+03</rscale>
<asrwt>0</asrwt>
<pdfrwt beam="1">  1       21 0.14117646E+00 0.45620534E+03</pdfrwt>
<pdfrwt beam="2">  1       21 0.79704097E-02 0.45620534E+03</pdfrwt>
<totfact> 0.38257671E+04</totfact>
</mgrwt>
</event>
<event>
 7    0  0.4737014E-002  0.4534537E+03  0.7546771E-02  0.1026697E+00
         21   -1    0    0  502  501  0.00000000000E+00  0.00000000000E+00  0.61082653186E+02  0.61082653186E+02  0.00000000000E+00 0. -1.
         21   -1    0    0  501  502 -0.00000000000E+00 -0.00000000000E+00 -0.84156573487E+03  0.84156573487E+03  0.00000000000E+00 0. -1.
      99926    2    1    2    0    0  0.00000000000E+00  0.00000000000E+00 -0.78048308168E+03  0.90264838805E+03  0.45345371502E+03 0.  0.
      99925    2    3    3    0    0  0.73970203496E+02 -0.63711676557E+02 -0.59962564413E+03  0.66204978134E+03  0.26311258263E+03 0.  0.
         25    1    4    4    0    0  0.71641754395E+02 -0.10253703324E+02 -0.31620334289E+03  0.34766325885E+03  0.12509000000E+03 0.  0.
         25    1    4    4    0    0  0.23284491010E+01 -0.53457973233E+02 -0.28342230125E+03  0.31438652249E+03  0.12509000000E+03 0.  0.
         25    1    3    3    0    0 -0.73970203496E+02  0.63711676557E+02 -0.18085743755E+03  0.24059860671E+03  0.12509000000E+03 0.  0.
<mgrwt>
<rscale>  2 0.45345372E+03</rscale>
<asrwt>0</asrwt>
<pdfrwt beam="1">  1       21 0.89827439E-02 0.45345372E+03</pdfrwt>
<pdfrwt beam="2">  1       21 0.12375966E+00 0.45345372E+03</pdfrwt>
<totfact> 0.43645371E+04</totfact>
</mgrwt>
</event>
<event>
 7    0  0.4737014E-002  0.4496011E+03  0.7546771E-02  0.1027841E+00
         21   -1    0    0  502  501  0.00000000000E+00  0.00000000000E+00  0.13672635254E+03  0.13672635254E+03  0.00000000000E+00 0.  1.
         21   -1    0    0  501  502 -0.00000000000E+00 -0.00000000000E+00 -0.36960892026E+03  0.36960892026E+03  0.00000000000E+00 0.  1.
      99926    2    1    2    0    0  0.00000000000E+00 -0.71054273576E-14 -0.23288256772E+03  0.50633527280E+03  0.44960106554E+03 0.  0.
      99925    2    3    3    0    0  0.51428807411E+02  0.63744466697E+02 -0.67851084908E+02  0.28364450585E+03  0.26294896218E+03 0.  0.
         25    1    4    4    0    0  0.62599222061E+02  0.16419627881E+02 -0.42003516308E+02  0.14696962361E+03  0.12509000000E+03 0.  0.
         25    1    4    4    0    0 -0.11170414650E+02  0.47324838816E+02 -0.25847568600E+02  0.13667488224E+03  0.12509000000E+03 0.  0.
         25    1    3    3    0    0 -0.51428807411E+02 -0.63744466697E+02 -0.16503148281E+03  0.22269076695E+03  0.12509000000E+03 0.  0.
<mgrwt>
<rscale>  2 0.44960107E+03</rscale>
<asrwt>0</asrwt>
<pdfrwt beam="1">  1       21 0.20106817E-01 0.44960107E+03</pdfrwt>
<pdfrwt beam="2">  1       21 0.54354251E-01 0.44960107E+03</pdfrwt>
<totfact> 0.67681714E+04</totfact>
</mgrwt>
</event>
<event>
 7    0  0.4737014E-002  0.4537593E+03  0.7546771E-02  0.1026607E+00
         21   -1    0    0  502  501  0.00000000000E+00  0.00000000000E+00  0.12448145705E+03  0.12448145705E+03  0.00000000000E+00 0.  1.
         21   -1    0    0  501  502 -0.00000000000E+00 -0.00000000000E+00 -0.41351034157E+03  0.41351034157E+03  0.00000000000E+00 0.  1.
      99926    2    1    2    0    0 -0.44408920985E-15 -0.71054273576E-14 -0.28902888452E+03  0.53799179862E+03  0.45375927462E+03 0.  0.
      99925    2    3    3    0    0 -0.11944295603E+01 -0.61176152904E+02 -0.71083193802E+02  0.27935734510E+03  0.26314208610E+03 0.  0.
         25    1    4    4    0    0  0.15536919828E+02 -0.68496295211E+02 -0.31360897041E+02  0.14684737757E+03  0.12509000000E+03 0.  0.
         25    1    4    4    0    0 -0.16731349389E+02  0.73201423070E+01 -0.39722296760E+02  0.13250996753E+03  0.12509000000E+03 0.  0.
         25    1    3    3    0    0  0.11944295603E+01  0.61176152904E+02 -0.21794569072E+03  0.25863445352E+03  0.12509000000E+03 0.  0.
<mgrwt>
<rscale>  2 0.45375927E+03</rscale>
<asrwt>0</asrwt>
<pdfrwt beam="1">  1       21 0.18306097E-01 0.45375927E+03</pdfrwt>
<pdfrwt beam="2">  1       21 0.60810343E-01 0.45375927E+03</pdfrwt>
<totfact> 0.63286219E+04</totfact>
</mgrwt>
</event>
<event>
 7    0  0.4737014E-002  0.4597924E+03  0.7546771E-02  0.1024841E+00
         21   -1    0    0  502  501  0.00000000000E+00  0.00000000000E+00  0.35771967176E+03  0.35771967176E+03  0.00000000000E+00 0. -1.
         21   -1    0    0  501  502 -0.00000000000E+00 -0.00000000000E+00 -0.14774769557E+03  0.14774769557E+03  0.00000000000E+00 0. -1.
      99926    2    1    2    0    0  0.00000000000E+00  0.00000000000E+00  0.20997197619E+03  0.50546736733E+03  0.45979237558E+03 0.  0.
      99925    2    3    3    0    0 -0.10120998424E+03  0.45406610471E+02  0.17448327105E+03  0.33455166449E+03  0.26301175478E+03 0.  0.
         25    1    4    4    0    0 -0.40122452174E+02 -0.12992621033E+02  0.59557572455E+02  0.14482137931E+03  0.12509000000E+03 0.  0.
         25    1    4    4    0    0 -0.61087532064E+02  0.58399231504E+02  0.11492569860E+03  0.18973028517E+03  0.12509000000E+03 0.  0.
         25    1    3    3    0    0  0.10120998424E+03 -0.45406610471E+02  0.35488705144E+02  0.17091570284E+03  0.12509000000E+03 0.  0.
<mgrwt>
<rscale>  2 0.45979238E+03</rscale>
<asrwt>0</asrwt>
<pdfrwt beam="1">  1       21 0.52605834E-01 0.45979238E+03</pdfrwt>
<pdfrwt beam="2">  1       21 0.21727602E-01 0.45979238E+03</pdfrwt>
<totfact> 0.62477544E+04</totfact>
</mgrwt>
</event>
<event>
 7    0  0.4737014E-002  0.4562544E+03  0.7546771E-02  0.1025873E+00
         21   -1    0    0  502  501  0.00000000000E+00  0.00000000000E+00  0.95010306900E+02  0.95010306900E+02  0.00000000000E+00 0. -1.
         21   -1    0    0  501  502 -0.00000000000E+00 -0.00000000000E+00 -0.54775140254E+03  0.54775140254E+03  0.00000000000E+00 0. -1.
      99926    2    1    2    0    0  0.00000000000E+00  0.00000000000E+00 -0.45274109564E+03  0.64276170944E+03  0.45625444156E+03 0.  0.
      99925    2    3    3    0    0  0.74655815599E+02 -0.57885160025E+02 -0.37528236165E+03  0.46791450150E+03  0.26302651424E+03 0.  0.
         25    1    4    4    0    0  0.74071353311E+02 -0.10786054363E+02 -0.19197307061E+03  0.24104786307E+03  0.12509000000E+03 0.  0.
         25    1    3    3    0    0 -0.74655815599E+02  0.57885160025E+02 -0.77458733985E+02  0.17484720794E+03  0.12509000000E+03 0.  0.
         25    1    4    4    0    0  0.58446228800E+00 -0.47099105662E+02 -0.18330929105E+03  0.22686663844E+03  0.12509000000E+03 0.  0.
<mgrwt>
<rscale>  2 0.45625444E+03</rscale>
<asrwt>0</asrwt>
<pdfrwt beam="1">  1       21 0.13972104E-01 0.45625444E+03</pdfrwt>
<pdfrwt beam="2">  1       21 0.80551676E-01 0.45625444E+03</pdfrwt>
<totfact> 0.55568323E+04</totfact>
</mgrwt>
</event>
<event>
 7    0  0.4737014E-002  0.4495844E+03  0.7546771E-02  0.1027846E+00
         21   -1    0    0  502  501  0.00000000000E+00  0.00000000000E+00  0.61132134422E+02  0.61132134422E+02  0.00000000000E+00 0.  1.
         21   -1    0    0  501  502 -0.00000000000E+00 -0.00000000000E+00 -0.82659521243E+03  0.82659521243E+03  0.00000000000E+00 0.  1.
      99926    2    1    2    0    0 -0.71054273576E-14 -0.71054273576E-14 -0.76546307801E+03  0.88772734685E+03  0.44958438424E+03 0.  0.
      99925    2    3    3    0    0 -0.53568638224E+02 -0.62278981600E+02 -0.34562569053E+03  0.44201532034E+03  0.26300599786E+03 0.  0.
         25    1    4    4    0    0 -0.16534168062E+02 -0.69782685277E+02 -0.16583083489E+03  0.21975071280E+03  0.12509000000E+03 0.  0.
         25    1    3    3    0    0  0.53568638224E+02  0.62278981600E+02 -0.41983738748E+03  0.44571202651E+03  0.12509000000E+03 0.  0.
         25    1    4    4    0    0 -0.37034470162E+02  0.75037036774E+01 -0.17979485564E+03  0.22226460754E+03  0.12509000000E+03 0.  0.
<mgrwt>
<rscale>  2 0.44958438E+03</rscale>
<asrwt>0</asrwt>
<pdfrwt beam="1">  1       21 0.89900193E-02 0.44958438E+03</pdfrwt>
<pdfrwt beam="2">  1       21 0.12155813E+00 0.44958438E+03</pdfrwt>
<totfact> 0.45675017E+04</totfact>
</mgrwt>
</event>
<event>
 7    0  0.4737014E-002  0.4482856E+03  0.7546771E-02  0.1028235E+00
         21   -1    0    0  502  501  0.00000000000E+00  0.00000000000E+00  0.49181475784E+03  0.49181475784E+03  0.00000000000E+00 0. -1.
         21   -1    0    0  501  502 -0.00000000000E+00 -0.00000000000E+00 -0.10215228462E+03  0.10215228462E+03  0.00000000000E+00 0. -1.
      99926    2    1    2    0    0  0.00000000000E+00 -0.35527136788E-14  0.38966247322E+03  0.59396704246E+03  0.44828562825E+03 0.  0.
      99925    2    3    3    0    0 -0.10089120005E+03  0.17456871734E+02  0.29003357955E+03  0.40407970436E+03  0.26206326257E+03 0.  0.
         25    1    3    3    0    0  0.10089120005E+03 -0.17456871734E+02  0.99628893668E+02  0.18988733810E+03  0.12509000000E+03 0.  0.
         25    1    4    4    0    0 -0.39267132850E+02  0.38072420407E+02  0.17615216803E+03  0.22286433389E+03  0.12509000000E+03 0.  0.
         25    1    4    4    0    0 -0.61624067196E+02 -0.20615548673E+02  0.11388141152E+03  0.18121537047E+03  0.12509000000E+03 0.  0.
<mgrwt>
<rscale>  2 0.44828563E+03</rscale>
<asrwt>0</asrwt>
<pdfrwt beam="1">  1       21 0.72325699E-01 0.44828563E+03</pdfrwt>
<pdfrwt beam="2">  1       21 0.15022395E-01 0.44828563E+03</pdfrwt>
<totfact> 0.62291087E+04</totfact>
</mgrwt>
</event>
<event>
 6    0  0.4737014E-002  0.4552286E+03  0.7546771E-02  0.1026174E+00
         21   -1    0    0  502  501  0.00000000000E+00  0.00000000000E+00  0.18445386266E+03  0.18445386266E+03  0.00000000000E+00 0.  1.
         21   -1    0    0  501  502 -0.00000000000E+00 -0.00000000000E+00 -0.28087389675E+03  0.28087389675E+03  0.00000000000E+00 0.  1.
      99926    2    1    2    0    0  0.00000000000E+00  0.00000000000E+00 -0.96420034084E+02  0.46532775941E+03  0.45522862466E+03 0.  0.
         25    1    3    3    0    0  0.63848319371E+02  0.96138584600E+02 -0.51707427936E+02  0.17787749025E+03  0.12509000000E+03 0.  0.
         25    1    3    3    0    0 -0.48316141930E+02 -0.72159349044E+02 -0.22510628145E+01  0.15229575375E+03  0.12509000000E+03 0.  0.
         25    1    3    3    0    0 -0.15532177441E+02 -0.23979235555E+02 -0.42461543334E+02  0.13515451541E+03  0.12509000000E+03 0.  0.
<mgrwt>
<rscale>  2 0.45522862E+03</rscale>
<asrwt>0</asrwt>
<pdfrwt beam="1">  1       21 0.27125568E-01 0.45522862E+03</pdfrwt>
<pdfrwt beam="2">  1       21 0.41304985E-01 0.45522862E+03</pdfrwt>
<totfact> 0.67662681E+04</totfact>
</mgrwt>
</event>
<event>
 7    0  0.4737014E-002  0.4469495E+03  0.7546771E-02  0.1028636E+00
         21   -1    0    0  502  501  0.00000000000E+00  0.00000000000E+00  0.96532458142E+02  0.96532458142E+02  0.00000000000E+00 0. -1.
         21   -1    0    0  501  502 -0.00000000000E+00 -0.00000000000E+00 -0.51734887921E+03  0.51734887921E+03  0.00000000000E+00 0. -1.
      99926    2    1    2    0    0  0.17763568394E-14  0.14210854715E-13 -0.42081642107E+03  0.61388133736E+03  0.44694947825E+03 0.  0.
      99925    2    3    3    0    0  0.12995442404E+02  0.10434065347E+03 -0.27910718358E+03  0.39758323385E+03  0.26289875318E+03 0.  0.
         25    1    4    4    0    0  0.10752825725E+02  0.80387455686E+02 -0.19280196081E+03  0.24371678335E+03  0.12509000000E+03 0.  0.
         25    1    3    3    0    0 -0.12995442404E+02 -0.10434065347E+03 -0.14170923749E+03  0.21629810350E+03  0.12509000000E+03 0.  0.
         25    1    4    4    0    0  0.22426166785E+01  0.23953197782E+02 -0.86305222773E+02  0.15386645051E+03  0.12509000000E+03 0.  0.
<mgrwt>
<rscale>  2 0.44694948E+03</rscale>
<asrwt>0</asrwt>
<pdfrwt beam="1">  1       21 0.14195950E-01 0.44694948E+03</pdfrwt>
<pdfrwt beam="2">  1       21 0.76080718E-01 0.44694948E+03</pdfrwt>
<totfact> 0.61659669E+04</totfact>
</mgrwt>
</event>
<event>
 7    0  0.4737014E-002  0.4364025E+03  0.7546771E-02  0.1031856E+00
         21   -1    0    0  502  501  0.00000000000E+00  0.00000000000E+00  0.10197759374E+04  0.10197759374E+04  0.00000000000E+00 0. -1.
         21   -1    0    0  501  502 -0.00000000000E+00 -0.00000000000E+00 -0.46688486908E+02  0.46688486908E+02  0.00000000000E+00 0. -1.
      99926    2    1    2    0    0 -0.71054273576E-14 -0.14210854715E-13  0.97308745044E+03  0.10664644243E+04  0.43640254582E+03 0.  0.
      99925    2    3    3    0    0  0.55078449089E+02  0.77039515394E+02  0.62149308578E+03  0.68145166103E+03  0.26297145884E+03 0.  0.
         25    1    4    4    0    0  0.29524789141E+02 -0.14287935224E+01  0.31738262138E+03  0.34242224092E+03  0.12509000000E+03 0.  0.
         25    1    4    4    0    0  0.25553659947E+02  0.78468308917E+02  0.30411046440E+03  0.33902942010E+03  0.12509000000E+03 0.  0.
         25    1    3    3    0    0 -0.55078449089E+02 -0.77039515394E+02  0.35159436467E+03  0.38501276323E+03  0.12509000000E+03 0.  0.
<mgrwt>
<rscale>  2 0.43640255E+03</rscale>
<asrwt>0</asrwt>
<pdfrwt beam="1">  1       21 0.14996703E+00 0.43640255E+03</pdfrwt>
<pdfrwt beam="2">  1       21 0.68659546E-02 0.43640255E+03</pdfrwt>
<totfact> 0.42523285E+04</totfact>
</mgrwt>
</event>
<event>
 7    0  0.4737014E-002  0.4560837E+03  0.7546771E-02  0.1025923E+00
         21   -1    0    0  502  501  0.00000000000E+00  0.00000000000E+00  0.31089790155E+03  0.31089790155E+03  0.00000000000E+00 0.  1.
         21   -1    0    0  501  502 -0.00000000000E+00 -0.00000000000E+00 -0.16726740678E+03  0.16726740678E+03  0.00000000000E+00 0.  1.
      99926    2    1    2    0    0  0.00000000000E+00  0.00000000000E+00  0.14363049477E+03  0.47816530833E+03  0.45608370182E+03 0.  0.
      99925    2    3    3    0    0  0.94035586230E+02 -0.62251693976E+02  0.71206549410E+02  0.29483309392E+03  0.26294146822E+03 0.  0.
         25    1    4    4    0    0  0.39910967473E+02 -0.29230860498E+02  0.76016992916E+02  0.15451025805E+03  0.12509000000E+03 0.  0.
         25    1    3    3    0    0 -0.94035586230E+02  0.62251693976E+02  0.72423945361E+02  0.18333221441E+03  0.12509000000E+03 0.  0.
         25    1    4    4    0    0  0.54124618756E+02 -0.33020833477E+02 -0.48104435061E+01  0.14032283587E+03  0.12509000000E+03 0.  0.
<mgrwt>
<rscale>  2 0.45608370E+03</rscale>
<asrwt>0</asrwt>
<pdfrwt beam="1">  1       21 0.45720280E-01 0.45608370E+03</pdfrwt>
<pdfrwt beam="2">  1       21 0.24598148E-01 0.45608370E+03</pdfrwt>
<totfact> 0.66262130E+04</totfact>
</mgrwt>
</event>
<event>
 7    0  0.4737014E-002  0.4521729E+03  0.7546771E-02  0.1027076E+00
         21   -1    0    0  502  501  0.00000000000E+00  0.00000000000E+00  0.19961257038E+04  0.19961257038E+04  0.00000000000E+00 0. -1.
         21   -1    0    0  501  502 -0.00000000000E+00 -0.00000000000E+00 -0.25607146485E+02  0.25607146485E+02  0.00000000000E+00 0. -1.
      99926    2    1    2    0    0  0.00000000000E+00 -0.71054273576E-14  0.19705185574E+04  0.20217328503E+04  0.45217290189E+03 0.  0.
      99925    2    3    3    0    0 -0.90819501089E+02  0.39428848920E+02  0.14624215212E+04  0.14891796397E+04  0.26301421577E+03 0.  0.
         25    1    4    4    0    0 -0.27358246798E+02  0.73181700887E+01  0.50638322263E+03  0.52237295637E+03  0.12509000000E+03 0.  0.
         25    1    4    4    0    0 -0.63461254291E+02  0.32110678831E+02  0.95603829860E+03  0.96680668336E+03  0.12509000000E+03 0.  0.
         25    1    3    3    0    0  0.90819501089E+02 -0.39428848920E+02  0.50809703612E+03  0.53255321060E+03  0.12509000000E+03 0.  0.
<mgrwt>
<rscale>  2 0.45217290E+03</rscale>
<asrwt>0</asrwt>
<pdfrwt beam="1">  1       21 0.29354779E+00 0.45217290E+03</pdfrwt>
<pdfrwt beam="2">  1       21 0.37657582E-02 0.45217290E+03</pdfrwt>
<totfact> 0.13655295E+04</totfact>
</mgrwt>
</event>
<event>
 7    0  0.4737014E-002  0.4539235E+03  0.7546771E-02  0.1026558E+00
         21   -1    0    0  502  501  0.00000000000E+00  0.00000000000E+00  0.13265533284E+03  0.13265533284E+03  0.00000000000E+00 0. -1.
         21   -1    0    0  501  502 -0.00000000000E+00 -0.00000000000E+00 -0.38831177069E+03  0.38831177069E+03  0.00000000000E+00 0. -1.
      99926    2    1    2    0    0  0.00000000000E+00  0.00000000000E+00 -0.25565643785E+03  0.52096710353E+03  0.45392346133E+03 0.  0.
      99925    2    3    3    0    0  0.81035786942E+02 -0.19290175326E+02 -0.75190763033E+02  0.28611762510E+03  0.26319334133E+03 0.  0.
         25    1    4    4    0    0  0.27216777356E+02 -0.25846872090E+01 -0.76036697980E+02  0.14891783344E+03  0.12509000000E+03 0.  0.
         25    1    4    4    0    0  0.53819009586E+02 -0.16705488117E+02  0.84593494683E+00  0.13719979166E+03  0.12509000000E+03 0.  0.
         25    1    3    3    0    0 -0.81035786942E+02  0.19290175326E+02 -0.18046567481E+03  0.23484947842E+03  0.12509000000E+03 0.  0.
<mgrwt>
<rscale>  2 0.45392346E+03</rscale>
<asrwt>0</asrwt>
<pdfrwt beam="1">  1       21 0.19508138E-01 0.45392346E+03</pdfrwt>
<pdfrwt beam="2">  1       21 0.57104671E-01 0.45392346E+03</pdfrwt>
<totfact> 0.64369407E+04</totfact>
</mgrwt>
</event>
<event>
 7    0  0.4737014E-002  0.4596508E+03  0.7546771E-02  0.1024883E+00
         21   -1    0    0  502  501  0.00000000000E+00  0.00000000000E+00  0.83012109921E+02  0.83012109921E+02  0.00000000000E+00 0. -1.
         21   -1    0    0  501  502 -0.00000000000E+00 -0.00000000000E+00 -0.63628935199E+03  0.63628935199E+03  0.00000000000E+00 0. -1.
      99926    2    1    2    0    0  0.14210854715E-13 -0.71054273576E-14 -0.55327724207E+03  0.71930146191E+03  0.45965083108E+03 0.  0.
      99925    2    3    3    0    0 -0.81260533101E+02  0.60295663219E+02 -0.24792550585E+03  0.37415506956E+03  0.26131612729E+03 0.  0.
         25    1    4    4    0    0 -0.79715687053E+02  0.37698181054E+02 -0.13902911380E+03  0.20676640491E+03  0.12509000000E+03 0.  0.
         25    1    3    3    0    0  0.81260533101E+02 -0.60295663219E+02 -0.30535173622E+03  0.34514639235E+03  0.12509000000E+03 0.  0.
         25    1    4    4    0    0 -0.15448460478E+01  0.22597482165E+02 -0.10889639205E+03  0.16738866464E+03  0.12509000000E+03 0.  0.
<mgrwt>
<rscale>  2 0.45965083E+03</rscale>
<asrwt>0</asrwt>
<pdfrwt beam="1">  1       21 0.12207663E-01 0.45965083E+03</pdfrwt>
<pdfrwt beam="2">  1       21 0.93571964E-01 0.45965083E+03</pdfrwt>
<totfact> 0.50012690E+04</totfact>
</mgrwt>
</event>
<event>
 7    0  0.4737014E-002  0.4501602E+03  0.7546771E-02  0.1027674E+00
         21   -1    0    0  502  501  0.00000000000E+00  0.00000000000E+00  0.46273321071E+02  0.46273321071E+02  0.00000000000E+00 0. -1.
         21   -1    0    0  501  502 -0.00000000000E+00 -0.00000000000E+00 -0.10948219301E+04  0.10948219301E+04  0.00000000000E+00 0. -1.
      99926    2    1    2    0    0  0.00000000000E+00  0.00000000000E+00 -0.10485486091E+04  0.11410952512E+04  0.45016017900E+03 0.  0.
      99925    2    3    3    0    0  0.28160075886E+02  0.83629690797E+02 -0.82186394535E+03  0.86756214549E+03  0.26347071294E+03 0.  0.
         25    1    3    3    0    0 -0.28160075886E+02 -0.83629690797E+02 -0.22668466372E+03  0.27353310571E+03  0.12509000000E+03 0.  0.
         25    1    4    4    0    0  0.26268269622E+02  0.27697274876E+02 -0.51749860847E+03  0.53376912509E+03  0.12509000000E+03 0.  0.
         25    1    4    4    0    0  0.18918062642E+01  0.55932415921E+02 -0.30436533687E+03  0.33379302041E+03  0.12509000000E+03 0.  0.
<mgrwt>
<rscale>  2 0.45016018E+03</rscale>
<asrwt>0</asrwt>
<pdfrwt beam="1">  1       21 0.68048997E-02 0.45016018E+03</pdfrwt>
<pdfrwt beam="2">  1       21 0.16100324E+00 0.45016018E+03</pdfrwt>
<totfact> 0.35397655E+04</totfact>
</mgrwt>
</event>
<event>
 7    0  0.4737014E-002  0.4538708E+03  0.7546771E-02  0.1026574E+00
         21   -1    0    0  502  501  0.00000000000E+00  0.00000000000E+00  0.10343614189E+03  0.10343614189E+03  0.00000000000E+00 0.  1.
         21   -1    0    0  501  502 -0.00000000000E+00 -0.00000000000E+00 -0.49788853878E+03  0.49788853878E+03  0.00000000000E+00 0.  1.
      99926    2    1    2    0    0  0.00000000000E+00  0.00000000000E+00 -0.39445239689E+03  0.60132468067E+03  0.45387077254E+03 0.  0.
      99925    2    3    3    0    0 -0.97568362889E+02 -0.41539251770E+02 -0.29324299644E+03  0.40861778999E+03  0.26406807544E+03 0.  0.
         25    1    4    4    0    0 -0.21373835391E+02 -0.44054675627E+02 -0.10744565515E+03  0.17201666255E+03  0.12509000000E+03 0.  0.
         25    1    4    4    0    0 -0.76194527498E+02  0.25154238562E+01 -0.18579734129E+03  0.23660112745E+03  0.12509000000E+03 0.  0.
         25    1    3    3    0    0  0.97568362889E+02  0.41539251770E+02 -0.10120940045E+03  0.19270689068E+03  0.12509000000E+03 0.  0.
<mgrwt>
<rscale>  2 0.45387077E+03</rscale>
<asrwt>0</asrwt>
<pdfrwt beam="1">  1       21 0.15211198E-01 0.45387077E+03</pdfrwt>
<pdfrwt beam="2">  1       21 0.73218902E-01 0.45387077E+03</pdfrwt>
<totfact> 0.59122528E+04</totfact>
</mgrwt>
</event>
<event>
 7    0  0.4737014E-002  0.4472501E+03  0.7546771E-02  0.1028545E+00
         21   -1    0    0  502  501  0.00000000000E+00  0.00000000000E+00  0.39438403934E+03  0.39438403934E+03  0.00000000000E+00 0.  1.
         21   -1    0    0  501  502 -0.00000000000E+00 -0.00000000000E+00 -0.12680067487E+03  0.12680067487E+03  0.00000000000E+00 0.  1.
      99926    2    1    2    0    0  0.00000000000E+00  0.00000000000E+00  0.26758336447E+03  0.52118471421E+03  0.44725009714E+03 0.  0.
      99925    2    3    3    0    0  0.52413620720E+02 -0.67580092054E+02  0.24195872781E+03  0.36750196768E+03  0.26305781457E+03 0.  0.
         25    1    3    3    0    0 -0.52413620720E+02  0.67580092054E+02  0.25624636660E+02  0.15368274654E+03  0.12509000000E+03 0.  0.
         25    1    4    4    0    0  0.56088649424E+02 -0.60951572887E+02  0.14920743769E+03  0.21159252915E+03  0.12509000000E+03 0.  0.
         25    1    4    4    0    0 -0.36750287046E+01 -0.66285191669E+01  0.92751290115E+02  0.15590943852E+03  0.12509000000E+03 0.  0.
<mgrwt>
<rscale>  2 0.44725010E+03</rscale>
<asrwt>0</asrwt>
<pdfrwt beam="1">  1       21 0.57997652E-01 0.44725010E+03</pdfrwt>
<pdfrwt beam="2">  1       21 0.18647158E-01 0.44725010E+03</pdfrwt>
<totfact> 0.67882135E+04</totfact>
</mgrwt>
</event>
<event>
 7    0  0.4737014E-002  0.4696204E+03  0.7546771E-02  0.1022027E+00
         21   -1    0    0  502  501  0.00000000000E+00  0.00000000000E+00  0.24135190832E+03  0.24135190832E+03  0.00000000000E+00 0.  1.
         21   -1    0    0  501  502 -0.00000000000E+00 -0.00000000000E+00 -0.22844577969E+03  0.22844577969E+03  0.00000000000E+00 0.  1.
      99926    2    1    2    0    0  0.00000000000E+00  0.00000000000E+00  0.12906128629E+02  0.46979768801E+03  0.46962037808E+03 0.  0.
      99925    2    3    3    0    0 -0.64949770256E+02 -0.10780732080E+03  0.19540950851E+02  0.29222398489E+03  0.26300592675E+03 0.  0.
         25    1    4    4    0    0  0.71007360149E+01 -0.50172756542E+02 -0.39541598319E+01  0.13502173688E+03  0.12509000000E+03 0.  0.
         25    1    4    4    0    0 -0.72050506271E+02 -0.57634564263E+02  0.23495110683E+02  0.15720224800E+03  0.12509000000E+03 0.  0.
         25    1    3    3    0    0  0.64949770256E+02  0.10780732080E+03 -0.66348222220E+01  0.17757370312E+03  0.12509000000E+03 0.  0.
<mgrwt>
<rscale>  2 0.46962038E+03</rscale>
<asrwt>0</asrwt>
<pdfrwt beam="1">  1       21 0.35492928E-01 0.46962038E+03</pdfrwt>
<pdfrwt beam="2">  1       21 0.33594968E-01 0.46962038E+03</pdfrwt>
<totfact> 0.60146444E+04</totfact>
</mgrwt>
</event>
<event>
 7    0  0.4737014E-002  0.4562587E+03  0.7546771E-02  0.1025872E+00
         21   -1    0    0  502  501  0.00000000000E+00  0.00000000000E+00  0.40781232277E+03  0.40781232277E+03  0.00000000000E+00 0.  1.
         21   -1    0    0  501  502 -0.00000000000E+00 -0.00000000000E+00 -0.12761507503E+03  0.12761507503E+03  0.00000000000E+00 0.  1.
      99926    2    1    2    0    0  0.00000000000E+00 -0.77715611724E-15  0.28019724774E+03  0.53542739781E+03  0.45625869929E+03 0.  0.
      99925    2    3    3    0    0  0.10435421575E+03  0.98874029304E+00  0.23094781444E+03  0.36523986967E+03  0.26300663386E+03 0.  0.
         25    1    4    4    0    0  0.74542639256E+02 -0.82398816755E+01  0.16569988770E+03  0.22074524140E+03  0.12509000000E+03 0.  0.
         25    1    3    3    0    0 -0.10435421575E+03 -0.98874029304E+00  0.49249433305E+02  0.17018752813E+03  0.12509000000E+03 0.  0.
         25    1    4    4    0    0  0.29811576490E+02  0.92286219685E+01  0.65247926740E+02  0.14449462827E+03  0.12509000000E+03 0.  0.
<mgrwt>
<rscale>  2 0.45625870E+03</rscale>
<asrwt>0</asrwt>
<pdfrwt beam="1">  1       21 0.59972400E-01 0.45625870E+03</pdfrwt>
<pdfrwt beam="2">  1       21 0.18766923E-01 0.45625870E+03</pdfrwt>
<totfact> 0.62217568E+04</totfact>
</mgrwt>
</event>
<event>
 7    0  0.4737014E-002  0.4603018E+03  0.7546771E-02  0.1024694E+00
         21   -1    0    0  502  501  0.00000000000E+00  0.00000000000E+00  0.20924505225E+02  0.20924505225E+02  0.00000000000E+00 0.  1.
         21   -1    0    0  501  502 -0.00000000000E+00 -0.00000000000E+00 -0.25314545148E+04  0.25314545148E+04  0.00000000000E+00 0.  1.
      99926    2    1    2    0    0 -0.88817841970E-15 -0.14210854715E-13 -0.25105300096E+04  0.25523790201E+04  0.46030178458E+03 0.  0.
      99925    2    3    3    0    0 -0.51449916062E+01 -0.94845416440E+02 -0.19623047016E+04  0.19820978435E+04  0.26277365756E+03 0.  0.
         25    1    4    4    0    0 -0.32713033715E+02 -0.40801275138E+02 -0.78625694199E+03  0.79786112423E+03  0.12509000000E+03 0.  0.
         25    1    3    3    0    0  0.51449916062E+01  0.94845416440E+02 -0.54822530800E+03  0.57028117660E+03  0.12509000000E+03 0.  0.
         25    1    4    4    0    0  0.27568042109E+02 -0.54044141303E+02 -0.11760477596E+04  0.11842367192E+04  0.12509000000E+03 0.  0.
<mgrwt>
<rscale>  2 0.46030178E+03</rscale>
<asrwt>0</asrwt>
<pdfrwt beam="1">  1       21 0.30771359E-02 0.46030178E+03</pdfrwt>
<pdfrwt beam="2">  1       21 0.37227239E+00 0.46030178E+03</pdfrwt>
<totfact> 0.63450345E+03</totfact>
</mgrwt>
</event>
<event>
 7    0  0.4737014E-002  0.4497987E+03  0.7546771E-02  0.1027782E+00
         21   -1    0    0  502  501  0.00000000000E+00  0.00000000000E+00  0.76157919471E+02  0.76157919471E+02  0.00000000000E+00 0.  1.
         21   -1    0    0  501  502 -0.00000000000E+00 -0.00000000000E+00 -0.66414270214E+03  0.66414270214E+03  0.00000000000E+00 0.  1.
      99926    2    1    2    0    0  0.00000000000E+00  0.00000000000E+00 -0.58798478267E+03  0.74030062162E+03  0.44979873911E+03 0.  0.
      99925    2    3    3    0    0  0.50543597917E+02 -0.64729652784E+02 -0.25568790269E+03  0.37586501992E+03  0.26297077095E+03 0.  0.
         25    1    3    3    0    0 -0.50543597917E+02  0.64729652784E+02 -0.33229687998E+03  0.36443560170E+03  0.12509000000E+03 0.  0.
         25    1    4    4    0    0  0.82290038860E+00 -0.56773085177E+02 -0.10009577781E+03  0.16997215419E+03  0.12509000000E+03 0.  0.
         25    1    4    4    0    0  0.49720697528E+02 -0.79565676065E+01 -0.15559212488E+03  0.20589286572E+03  0.12509000000E+03 0.  0.
<mgrwt>
<rscale>  2 0.44979874E+03</rscale>
<asrwt>0</asrwt>
<pdfrwt beam="1">  1       21 0.11199695E-01 0.44979874E+03</pdfrwt>
<pdfrwt beam="2">  1       21 0.97668038E-01 0.44979874E+03</pdfrwt>
<totfact> 0.52898948E+04</totfact>
</mgrwt>
</event>
<event>
 7    0  0.4737014E-002  0.4634892E+03  0.7546771E-02  0.1023774E+00
         21   -1    0    0  502  501  0.00000000000E+00  0.00000000000E+00  0.62881105962E+03  0.62881105962E+03  0.00000000000E+00 0. -1.
         21   -1    0    0  501  502 -0.00000000000E+00 -0.00000000000E+00 -0.85408103331E+02  0.85408103331E+02  0.00000000000E+00 0. -1.
      99926    2    1    2    0    0  0.00000000000E+00  0.00000000000E+00  0.54340295629E+03  0.71421916295E+03  0.46348920141E+03 0.  0.
      99925    2    3    3    0    0 -0.38506473851E+02  0.10660808080E+03  0.40434472065E+03  0.49551220737E+03  0.26303928056E+03 0.  0.
         25    1    3    3    0    0  0.38506473851E+02 -0.10660808080E+03  0.13905823564E+03  0.21870695558E+03  0.12509000000E+03 0.  0.
         25    1    4    4    0    0 -0.72668351824E+01  0.27613161157E+02  0.24030859631E+03  0.27241700227E+03  0.12509000000E+03 0.  0.
         25    1    4    4    0    0 -0.31239638669E+02  0.78994919640E+02  0.16403612434E+03  0.22309520510E+03  0.12509000000E+03 0.  0.
<mgrwt>
<rscale>  2 0.46348920E+03</rscale>
<asrwt>0</asrwt>
<pdfrwt beam="1">  1       21 0.92472213E-01 0.46348920E+03</pdfrwt>
<pdfrwt beam="2">  1       21 0.12560015E-01 0.46348920E+03</pdfrwt>
<totfact> 0.48796354E+04</totfact>
</mgrwt>
</event>
<event>
 7    0  0.4737014E-002  0.4543309E+03  0.7546771E-02  0.1026438E+00
         21   -1    0    0  502  501  0.00000000000E+00  0.00000000000E+00  0.53051057521E+03  0.53051057521E+03  0.00000000000E+00 0.  1.
         21   -1    0    0  501  502 -0.00000000000E+00 -0.00000000000E+00 -0.97272603973E+02  0.97272603973E+02  0.00000000000E+00 0.  1.
      99926    2    1    2    0    0 -0.17763568394E-14  0.00000000000E+00  0.43323797124E+03  0.62778317919E+03  0.45433091502E+03 0.  0.
      99925    2    3    3    0    0  0.14162916488E+02  0.55308318559E+02  0.13859111147E+03  0.30263109419E+03  0.26290394574E+03 0.  0.
         25    1    3    3    0    0 -0.14162916488E+02 -0.55308318559E+02  0.29464685977E+03  0.32515208500E+03  0.12509000000E+03 0.  0.
         25    1    4    4    0    0  0.16055117263E+02  0.54803788686E+02  0.10523197549E+03  0.17315455180E+03  0.12509000000E+03 0.  0.
         25    1    4    4    0    0 -0.18922007741E+01  0.50452987316E+00  0.33359135975E+02  0.12947654238E+03  0.12509000000E+03 0.  0.
<mgrwt>
<rscale>  2 0.45433092E+03</rscale>
<asrwt>0</asrwt>
<pdfrwt beam="1">  1       21 0.78016260E-01 0.45433092E+03</pdfrwt>
<pdfrwt beam="2">  1       21 0.14304795E-01 0.45433092E+03</pdfrwt>
<totfact> 0.57301994E+04</totfact>
</mgrwt>
</event>
<event>
 6    0  0.4737014E-002  0.4546993E+03  0.7546771E-02  0.1026330E+00
         21   -1    0    0  502  501  0.00000000000E+00  0.00000000000E+00  0.24158350550E+02  0.24158350550E+02  0.00000000000E+00 0. -1.
         21   -1    0    0  501  502 -0.00000000000E+00 -0.00000000000E+00 -0.21395447533E+04  0.21395447533E+04  0.00000000000E+00 0. -1.
      99926    2    1    2    0    0  0.00000000000E+00  0.00000000000E+00 -0.21153864028E+04  0.21637031039E+04  0.45469933876E+03 0.  0.
         25    1    3    3    0    0  0.94745910477E+02  0.57882793428E+02 -0.78112453077E+03  0.79883054899E+03  0.12509000000E+03 0.  0.
         25    1    3    3    0    0 -0.72665690738E+02 -0.64228272584E+02 -0.65937731003E+03  0.67810878087E+03  0.12509000000E+03 0.  0.
         25    1    3    3    0    0 -0.22080219739E+02  0.63454791554E+01 -0.67488456197E+03  0.68676377401E+03  0.12509000000E+03 0.  0.
<mgrwt>
<rscale>  2 0.45469934E+03</rscale>
<asrwt>0</asrwt>
<pdfrwt beam="1">  1       21 0.35527000E-02 0.45469934E+03</pdfrwt>
<pdfrwt beam="2">  1       21 0.31463881E+00 0.45469934E+03</pdfrwt>
<totfact> 0.11242736E+04</totfact>
</mgrwt>
</event>
<event>
 7    0  0.4737014E-002  0.4570096E+03  0.7546771E-02  0.1025652E+00
         21   -1    0    0  502  501  0.00000000000E+00  0.00000000000E+00  0.74069915910E+03  0.74069915910E+03  0.00000000000E+00 0.  1.
         21   -1    0    0  501  502 -0.00000000000E+00 -0.00000000000E+00 -0.70493444051E+02  0.70493444051E+02  0.00000000000E+00 0.  1.
      99926    2    1    2    0    0  0.71054273576E-14  0.00000000000E+00  0.67020571505E+03  0.81119260316E+03  0.45700956109E+03 0.  0.
      99925    2    3    3    0    0 -0.54050470901E+02 -0.19940977677E+01  0.60135005511E+03  0.65850324584E+03  0.26282923386E+03 0.  0.
         25    1    4    4    0    0 -0.67964590821E+02 -0.29146504235E+01  0.31111408187E+03  0.34215078669E+03  0.12509000000E+03 0.  0.
         25    1    4    4    0    0  0.13914119920E+02  0.92055265576E+00  0.29023597324E+03  0.31635245916E+03  0.12509000000E+03 0.  0.
         25    1    3    3    0    0  0.54050470901E+02  0.19940977677E+01  0.68855659941E+02  0.15268935731E+03  0.12509000000E+03 0.  0.
<mgrwt>
<rscale>  2 0.45700956E+03</rscale>
<asrwt>0</asrwt>
<pdfrwt beam="1">  1       21 0.10892634E+00 0.45700956E+03</pdfrwt>
<pdfrwt beam="2">  1       21 0.10366683E-01 0.45700956E+03</pdfrwt>
<totfact> 0.46490723E+04</totfact>
</mgrwt>
</event>
<event>
 7    0  0.4737014E-002  0.4253867E+03  0.7546771E-02  0.1035327E+00
         21   -1    0    0  502  501  0.00000000000E+00  0.00000000000E+00  0.37692670183E+02  0.37692670183E+02  0.00000000000E+00 0. -1.
         21   -1    0    0  501  502 -0.00000000000E+00 -0.00000000000E+00 -0.12001927815E+04  0.12001927815E+04  0.00000000000E+00 0. -1.
      99926    2    1    2    0    0  0.71054273576E-14 -0.71054273576E-14 -0.11625001114E+04  0.12378854517E+04  0.42538674483E+03 0.  0.
      99925    2    3    3    0    0  0.34782061879E+02 -0.59613613738E+02 -0.88380441602E+03  0.92470439631E+03  0.26306729178E+03 0.  0.
         25    1    4    4    0    0 -0.77332509330E+01 -0.19249717799E+02 -0.31961757777E+03  0.34385063462E+03  0.12509000000E+03 0.  0.
         25    1    3    3    0    0 -0.34782061879E+02  0.59613613738E+02 -0.27869569534E+03  0.31318105542E+03  0.12509000000E+03 0.  0.
         25    1    4    4    0    0  0.42515312812E+02 -0.40363895939E+02 -0.56418683824E+03  0.58085376169E+03  0.12509000000E+03 0.  0.
<mgrwt>
<rscale>  2 0.42538674E+03</rscale>
<asrwt>0</asrwt>
<pdfrwt beam="1">  1       21 0.55430397E-02 0.42538674E+03</pdfrwt>
<pdfrwt beam="2">  1       21 0.17649894E+00 0.42538674E+03</pdfrwt>
<totfact> 0.39273707E+04</totfact>
</mgrwt>
</event>
<event>
 7    0  0.4737014E-002  0.4510745E+03  0.7546771E-02  0.1027402E+00
         21   -1    0    0  502  501  0.00000000000E+00  0.00000000000E+00  0.15860017996E+03  0.15860017996E+03  0.00000000000E+00 0.  1.
         21   -1    0    0  501  502 -0.00000000000E+00 -0.00000000000E+00 -0.32072506973E+03  0.32072506973E+03  0.00000000000E+00 0.  1.
      99926    2    1    2    0    0 -0.71054273576E-14  0.00000000000E+00 -0.16212488976E+03  0.47932524969E+03  0.45107451171E+03 0.  0.
      99925    2    3    3    0    0  0.26901295486E+02 -0.33881976126E+02 -0.20920374375E+03  0.33884181793E+03  0.26301312358E+03 0.  0.
         25    1    4    4    0    0 -0.53165525641E+01 -0.66828548666E+01 -0.14611475323E+03  0.19253559539E+03  0.12509000000E+03 0.  0.
         25    1    4    4    0    0  0.32217848050E+02 -0.27199121260E+02 -0.63088990528E+02  0.14630622255E+03  0.12509000000E+03 0.  0.
         25    1    3    3    0    0 -0.26901295486E+02  0.33881976126E+02  0.47078853992E+02  0.14048343176E+03  0.12509000000E+03 0.  0.
<mgrwt>
<rscale>  2 0.45107451E+03</rscale>
<asrwt>0</asrwt>
<pdfrwt beam="1">  1       21 0.23323556E-01 0.45107451E+03</pdfrwt>
<pdfrwt beam="2">  1       21 0.47165452E-01 0.45107451E+03</pdfrwt>
<totfact> 0.68870341E+04</totfact>
</mgrwt>
</event>
<event>
 7    0  0.4737014E-002  0.4611705E+03  0.7546771E-02  0.1024442E+00
         21   -1    0    0  502  501  0.00000000000E+00  0.00000000000E+00  0.71564489545E+03  0.71564489545E+03  0.00000000000E+00 0. -1.
         21   -1    0    0  501  502 -0.00000000000E+00 -0.00000000000E+00 -0.74295991965E+02  0.74295991965E+02  0.00000000000E+00 0. -1.
      99926    2    1    2    0    0  0.35527136788E-14  0.00000000000E+00  0.64134890348E+03  0.78994088741E+03  0.46117045613E+03 0.  0.
      99925    2    3    3    0    0  0.31980191382E+02 -0.43285317542E+02  0.58290498261E+03  0.64175333280E+03  0.26300716729E+03 0.  0.
         25    1    4    4    0    0 -0.11016081234E+01 -0.47031302301E+02  0.35976135020E+03  0.38378235256E+03  0.12509000000E+03 0.  0.
         25    1    4    4    0    0  0.33081799506E+02  0.37459847585E+01  0.22314363241E+03  0.25797098024E+03  0.12509000000E+03 0.  0.
         25    1    3    3    0    0 -0.31980191382E+02  0.43285317542E+02  0.58443920870E+02  0.14818755461E+03  0.12509000000E+03 0.  0.
<mgrwt>
<rscale>  2 0.46117046E+03</rscale>
<asrwt>0</asrwt>
<pdfrwt beam="1">  1       21 0.10524189E+00 0.46117046E+03</pdfrwt>
<pdfrwt beam="2">  1       21 0.10925882E-01 0.46117046E+03</pdfrwt>
<totfact> 0.45987370E+04</totfact>
</mgrwt>
</event>
<event>
 7    0  0.4737014E-002  0.4401143E+03  0.7546771E-02  0.1030712E+00
         21   -1    0    0  502  501  0.00000000000E+00  0.00000000000E+00  0.23759278917E+03  0.23759278917E+03  0.00000000000E+00 0. -1.
         21   -1    0    0  501  502 -0.00000000000E+00 -0.00000000000E+00 -0.20381575718E+03  0.20381575718E+03  0.00000000000E+00 0. -1.
      99926    2    1    2    0    0  0.14210854715E-13 -0.35527136788E-14  0.33777031990E+02  0.44140854635E+03  0.44011432254E+03 0.  0.
      99925    2    3    3    0    0 -0.92485822316E+02 -0.99864738019E+01  0.54195574046E+02  0.28418964816E+03  0.26300805860E+03 0.  0.
         25    1    4    4    0    0 -0.19401684600E+02  0.26413830536E+02  0.31545081218E+02  0.13310415492E+03  0.12509000000E+03 0.  0.
         25    1    4    4    0    0 -0.73084137716E+02 -0.36400304337E+02  0.22650492828E+02  0.15108549324E+03  0.12509000000E+03 0.  0.
         25    1    3    3    0    0  0.92485822316E+02  0.99864738019E+01 -0.20418542056E+02  0.15721889819E+03  0.12509000000E+03 0.  0.
<mgrwt>
<rscale>  2 0.44011432E+03</rscale>
<asrwt>0</asrwt>
<pdfrwt beam="1">  1       21 0.34940116E-01 0.44011432E+03</pdfrwt>
<pdfrwt beam="2">  1       21 0.29972905E-01 0.44011432E+03</pdfrwt>
<totfact> 0.78466617E+04</totfact>
</mgrwt>
</event>
<event>
 7    0  0.4737014E-002  0.4486396E+03  0.7546771E-02  0.1028129E+00
         21   -1    0    0  502  501  0.00000000000E+00  0.00000000000E+00  0.12037395948E+03  0.12037395948E+03  0.00000000000E+00 0. -1.
         21   -1    0    0  501  502 -0.00000000000E+00 -0.00000000000E+00 -0.41802536406E+03  0.41802536406E+03  0.00000000000E+00 0. -1.
      99926    2    1    2    0    0  0.00000000000E+00  0.00000000000E+00 -0.29765140459E+03  0.53839932354E+03  0.44863958021E+03 0.  0.
      99925    2    3    3    0    0  0.29235237799E+02 -0.37127334716E+02 -0.30401474505E+03  0.40452946766E+03  0.26265183586E+03 0.  0.
         25    1    4    4    0    0  0.26482752982E+02 -0.12010154983E+02 -0.20947808594E+03  0.24571153131E+03  0.12509000000E+03 0.  0.
         25    1    3    3    0    0 -0.29235237799E+02  0.37127334716E+02  0.63633404632E+01  0.13386985588E+03  0.12509000000E+03 0.  0.
         25    1    4    4    0    0  0.27524848172E+01 -0.25117179733E+02 -0.94536659114E+02  0.15881793635E+03  0.12509000000E+03 0.  0.
<mgrwt>
<rscale>  2 0.44863958E+03</rscale>
<asrwt>0</asrwt>
<pdfrwt beam="1">  1       21 0.17702053E-01 0.44863958E+03</pdfrwt>
<pdfrwt beam="2">  1       21 0.61474318E-01 0.44863958E+03</pdfrwt>
<totfact> 0.65894503E+04</totfact>
</mgrwt>
</event>
<event>
 6    0  0.4737014E-002  0.4592265E+03  0.7546771E-02  0.1025006E+00
         21   -1    0    0  502  501  0.00000000000E+00  0.00000000000E+00  0.38548265409E+02  0.38548265409E+02  0.00000000000E+00 0. -1.
         21   -1    0    0  501  502 -0.00000000000E+00 -0.00000000000E+00 -0.13676945436E+04  0.13676945436E+04  0.00000000000E+00 0. -1.
      99926    2    1    2    0    0  0.00000000000E+00  0.00000000000E+00 -0.13291462782E+04  0.14062428090E+04  0.45922653349E+03 0.  0.
         25    1    3    3    0    0 -0.12332230495E+02 -0.26928837076E+02 -0.27845843898E+03  0.30669831514E+03  0.12509000000E+03 0.  0.
         25    1    3    3    0    0  0.82438887899E+02  0.38588327661E+02 -0.75533720721E+03  0.77101688306E+03  0.12509000000E+03 0.  0.
         25    1    3    3    0    0 -0.70106657404E+02 -0.11659490585E+02 -0.29535063198E+03  0.32852761078E+03  0.12509000000E+03 0.  0.
<mgrwt>
<rscale>  2 0.45922653E+03</rscale>
<asrwt>0</asrwt>
<pdfrwt beam="1">  1       21 0.56688635E-02 0.45922653E+03</pdfrwt>
<pdfrwt beam="2">  1       21 0.20113152E+00 0.45922653E+03</pdfrwt>
<totfact> 0.25324106E+04</totfact>
</mgrwt>
</event>
<event>
 7    0  0.4737014E-002  0.4589080E+03  0.7546771E-02  0.1025098E+00
         21   -1    0    0  502  501  0.00000000000E+00  0.00000000000E+00  0.22499694269E+04  0.22499694269E+04  0.00000000000E+00 0.  1.
         21   -1    0    0  501  502 -0.00000000000E+00 -0.00000000000E+00 -0.23399934399E+02  0.23399934399E+02  0.00000000000E+00 0.  1.
      99926    2    1    2    0    0 -0.71054273576E-14  0.14210854715E-13  0.22265694925E+04  0.22733693613E+04  0.45890799510E+03 0.  0.
      99925    2    3    3    0    0  0.35687839663E+02  0.77589651509E+02  0.17928038874E+04  0.18139198166E+04  0.26242245750E+03 0.  0.
         25    1    4    4    0    0  0.37234716727E+02  0.26895783991E+02  0.11041466550E+04  0.11121587797E+04  0.12509000000E+03 0.  0.
         25    1    4    4    0    0 -0.15468770643E+01  0.50693867518E+02  0.68865723241E+03  0.70176103688E+03  0.12509000000E+03 0.  0.
         25    1    3    3    0    0 -0.35687839663E+02 -0.77589651509E+02  0.43376560510E+03  0.45944954477E+03  0.12509000000E+03 0.  0.
<mgrwt>
<rscale>  2 0.45890800E+03</rscale>
<asrwt>0</asrwt>
<pdfrwt beam="1">  1       21 0.33087771E+00 0.45890800E+03</pdfrwt>
<pdfrwt beam="2">  1       21 0.34411684E-02 0.45890800E+03</pdfrwt>
<totfact> 0.94477833E+03</totfact>
</mgrwt>
</event>
<event>
 7    0  0.4737014E-002  0.4490424E+03  0.7546771E-02  0.1028008E+00
         21   -1    0    0  502  501  0.00000000000E+00  0.00000000000E+00  0.10453078259E+04  0.10453078259E+04  0.00000000000E+00 0.  1.
         21   -1    0    0  501  502 -0.00000000000E+00 -0.00000000000E+00 -0.48224806216E+02  0.48224806216E+02  0.00000000000E+00 0.  1.
      99926    2    1    2    0    0  0.00000000000E+00  0.00000000000E+00  0.99708301967E+03  0.10935326321E+04  0.44904239149E+03 0.  0.
      99925    2    3    3    0    0  0.69853849317E+02 -0.73490295083E+02  0.54722843873E+03  0.61572824134E+03  0.26340447851E+03 0.  0.
         25    1    3    3    0    0 -0.69853849317E+02  0.73490295083E+02  0.44985458094E+03  0.47780439076E+03  0.12509000000E+03 0.  0.
         25    1    4    4    0    0  0.36249095417E+02 -0.71209179912E+01  0.19482964629E+03  0.23445853272E+03  0.12509000000E+03 0.  0.
         25    1    4    4    0    0  0.33604753900E+02 -0.66369377092E+02  0.35239879244E+03  0.38126970863E+03  0.12509000000E+03 0.  0.
<mgrwt>
<rscale>  2 0.44904239E+03</rscale>
<asrwt>0</asrwt>
<pdfrwt beam="1">  1       21 0.15372172E+00 0.44904239E+03</pdfrwt>
<pdfrwt beam="2">  1       21 0.70918839E-02 0.44904239E+03</pdfrwt>
<totfact> 0.37428941E+04</totfact>
</mgrwt>
</event>
<event>
 7    0  0.4737014E-002  0.4020327E+03  0.7546771E-02  0.1043078E+00
         21   -1    0    0  502  501  0.00000000000E+00  0.00000000000E+00  0.10440365858E+03  0.10440365858E+03  0.00000000000E+00 0. -1.
         21   -1    0    0  501  502 -0.00000000000E+00 -0.00000000000E+00 -0.38703211383E+03  0.38703211383E+03  0.00000000000E+00 0. -1.
      99926    2    1    2    0    0  0.00000000000E+00  0.00000000000E+00 -0.28262845525E+03  0.49143577241E+03  0.40203267863E+03 0.  0.
      99925    2    3    3    0    0 -0.38421569917E+02  0.30298297794E+02 -0.18007442791E+03  0.32244156983E+03  0.26295924110E+03 0.  0.
         25    1    4    4    0    0 -0.21795525360E+02 -0.14599935907E+02 -0.12117953229E+03  0.17612549560E+03  0.12509000000E+03 0.  0.
         25    1    4    4    0    0 -0.16626044558E+02  0.44898233701E+02 -0.58894895621E+02  0.14631607423E+03  0.12509000000E+03 0.  0.
         25    1    3    3    0    0  0.38421569917E+02 -0.30298297794E+02 -0.10255402734E+03  0.16899420259E+03  0.12509000000E+03 0.  0.
<mgrwt>
<rscale>  2 0.40203268E+03</rscale>
<asrwt>0</asrwt>
<pdfrwt beam="1">  1       21 0.15353479E-01 0.40203268E+03</pdfrwt>
<pdfrwt beam="2">  1       21 0.56916488E-01 0.40203268E+03</pdfrwt>
<totfact> 0.10269002E+05</totfact>
</mgrwt>
</event>
<event>
 7    0  0.4737014E-002  0.4524148E+03  0.7546771E-02  0.1027004E+00
         21   -1    0    0  502  501  0.00000000000E+00  0.00000000000E+00  0.40427513776E+02  0.40427513776E+02  0.00000000000E+00 0.  1.
         21   -1    0    0  501  502 -0.00000000000E+00 -0.00000000000E+00 -0.12657166397E+04  0.12657166397E+04  0.00000000000E+00 0.  1.
      99926    2    1    2    0    0  0.00000000000E+00  0.00000000000E+00 -0.12252891259E+04  0.13061441535E+04  0.45241475170E+03 0.  0.
      99925    2    3    3    0    0  0.61491066626E+02  0.66639000888E+02 -0.58879076317E+03  0.65116355712E+03  0.26290208750E+03 0.  0.
         25    1    3    3    0    0 -0.61491066626E+02 -0.66639000888E+02 -0.63649836277E+03  0.65498059637E+03  0.12509000000E+03 0.  0.
         25    1    4    4    0    0  0.48297933247E+01  0.54521330730E+02 -0.24008212435E+03  0.27619347737E+03  0.12509000000E+03 0.  0.
         25    1    4    4    0    0  0.56661273302E+02  0.12117670158E+02 -0.34870863882E+03  0.37497007976E+03  0.12509000000E+03 0.  0.
<mgrwt>
<rscale>  2 0.45241475E+03</rscale>
<asrwt>0</asrwt>
<pdfrwt beam="1">  1       21 0.59452225E-02 0.45241475E+03</pdfrwt>
<pdfrwt beam="2">  1       21 0.18613480E+00 0.45241475E+03</pdfrwt>
<totfact> 0.29525926E+04</totfact>
</mgrwt>
</event>
<event>
 7    0  0.4737014E-002  0.4231340E+03  0.7546771E-02  0.1036051E+00
         21   -1    0    0  502  501  0.00000000000E+00  0.00000000000E+00  0.99002245026E+03  0.99002245026E+03  0.00000000000E+00 0.  1.
         21   -1    0    0  501  502 -0.00000000000E+00 -0.00000000000E+00 -0.45211695255E+02  0.45211695255E+02  0.00000000000E+00 0.  1.
      99926    2    1    2    0    0  0.00000000000E+00 -0.71054273576E-14  0.94481075500E+03  0.10352341455E+04  0.42313398973E+03 0.  0.
      99925    2    3    3    0    0 -0.52278945785E+02 -0.39728717864E+02  0.72456581233E+03  0.77357252802E+03  0.26288282659E+03 0.  0.
         25    1    4    4    0    0 -0.62652598336E+02 -0.33836608739E+02  0.34791578695E+03  0.37651449783E+03  0.12509000000E+03 0.  0.
         25    1    4    4    0    0  0.10373652550E+02 -0.58921091246E+01  0.37665002539E+03  0.39705803019E+03  0.12509000000E+03 0.  0.
         25    1    3    3    0    0  0.52278945785E+02  0.39728717864E+02  0.22024494267E+03  0.26166161749E+03  0.12509000000E+03 0.  0.
<mgrwt>
<rscale>  2 0.42313399E+03</rscale>
<asrwt>0</asrwt>
<pdfrwt beam="1">  1       21 0.14559152E+00 0.42313399E+03</pdfrwt>
<pdfrwt beam="2">  1       21 0.66487793E-02 0.42313399E+03</pdfrwt>
<totfact> 0.48902757E+04</totfact>
</mgrwt>
</event>
<event>
 7    0  0.4737014E-002  0.4468619E+03  0.7546771E-02  0.1028662E+00
         21   -1    0    0  502  501  0.00000000000E+00  0.00000000000E+00  0.48273466495E+02  0.48273466495E+02  0.00000000000E+00 0. -1.
         21   -1    0    0  501  502 -0.00000000000E+00 -0.00000000000E+00 -0.10341373268E+04  0.10341373268E+04  0.00000000000E+00 0. -1.
      99926    2    1    2    0    0 -0.71054273576E-14  0.00000000000E+00 -0.98586386031E+03  0.10824107933E+04  0.44686191870E+03 0.  0.
      99925    2    3    3    0    0  0.36148684737E+02 -0.45720742372E+02 -0.83752897791E+03  0.87980808076E+03  0.26307861267E+03 0.  0.
         25    1    4    4    0    0  0.18725211046E+02 -0.91554374302E+01 -0.53707247496E+03  0.55184128789E+03  0.12509000000E+03 0.  0.
         25    1    4    4    0    0  0.17423473691E+02 -0.36565304942E+02 -0.30045650295E+03  0.32796679287E+03  0.12509000000E+03 0.  0.
         25    1    3    3    0    0 -0.36148684737E+02  0.45720742372E+02 -0.14833488240E+03  0.20260271254E+03  0.12509000000E+03 0.  0.
<mgrwt>
<rscale>  2 0.44686192E+03</rscale>
<asrwt>0</asrwt>
<pdfrwt beam="1">  1       21 0.70990398E-02 0.44686192E+03</pdfrwt>
<pdfrwt beam="2">  1       21 0.15207900E+00 0.44686192E+03</pdfrwt>
<totfact> 0.38497120E+04</totfact>
</mgrwt>
</event>
<event>
 7    0  0.4737014E-002  0.4525919E+03  0.7546771E-02  0.1026952E+00
         21   -1    0    0  502  501  0.00000000000E+00  0.00000000000E+00  0.45257038328E+02  0.45257038328E+02  0.00000000000E+00 0. -1.
         21   -1    0    0  501  502 -0.00000000000E+00 -0.00000000000E+00 -0.11315336230E+04  0.11315336230E+04  0.00000000000E+00 0. -1.
      99926    2    1    2    0    0  0.22204460493E-15  0.00000000000E+00 -0.10862765847E+04  0.11767906614E+04  0.45259191573E+03 0.  0.
      99925    2    3    3    0    0  0.12125238283E+01 -0.74610302645E+02 -0.89830722721E+03  0.93899210179E+03  0.26302495186E+03 0.  0.
         25    1    4    4    0    0 -0.30699015609E+02 -0.20599394584E+02 -0.36409278354E+03  0.38675292855E+03  0.12509000000E+03 0.  0.
         25    1    4    4    0    0  0.31911539438E+02 -0.54010908061E+02 -0.53421444366E+03  0.55223917324E+03  0.12509000000E+03 0.  0.
         25    1    3    3    0    0 -0.12125238283E+01  0.74610302645E+02 -0.18796935750E+03  0.23779855957E+03  0.12509000000E+03 0.  0.
<mgrwt>
<rscale>  2 0.45259192E+03</rscale>
<asrwt>0</asrwt>
<pdfrwt beam="1">  1       21 0.66554471E-02 0.45259192E+03</pdfrwt>
<pdfrwt beam="2">  1       21 0.16640200E+00 0.45259192E+03</pdfrwt>
<totfact> 0.33524989E+04</totfact>
</mgrwt>
</event>
<event>
 7    0  0.4737014E-002  0.4456250E+03  0.7546771E-02  0.1029035E+00
         21   -1    0    0  502  501  0.00000000000E+00  0.00000000000E+00  0.45941828455E+02  0.45941828455E+02  0.00000000000E+00 0. -1.
         21   -1    0    0  501  502 -0.00000000000E+00 -0.00000000000E+00 -0.10806143948E+04  0.10806143948E+04  0.00000000000E+00 0. -1.
      99926    2    1    2    0    0 -0.71054273576E-14  0.14210854715E-13 -0.10346725664E+04  0.11265562233E+04  0.44562495959E+03 0.  0.
      99925    2    3    3    0    0 -0.30006646630E+02  0.78608928947E+02 -0.81163027207E+03  0.85734415873E+03  0.26308847450E+03 0.  0.
         25    1    4    4    0    0 -0.37701993404E+02  0.41524815697E+02 -0.51998386554E+03  0.53775131720E+03  0.12509000000E+03 0.  0.
         25    1    3    3    0    0  0.30006646630E+02 -0.78608928947E+02 -0.22304229430E+03  0.26921206455E+03  0.12509000000E+03 0.  0.
         25    1    4    4    0    0  0.76953467741E+01  0.37084113250E+02 -0.29164640653E+03  0.31959284153E+03  0.12509000000E+03 0.  0.
<mgrwt>
<rscale>  2 0.44562496E+03</rscale>
<asrwt>0</asrwt>
<pdfrwt beam="1">  1       21 0.67561522E-02 0.44562496E+03</pdfrwt>
<pdfrwt beam="2">  1       21 0.15891386E+00 0.44562496E+03</pdfrwt>
<totfact> 0.37221620E+04</totfact>
</mgrwt>
</event>
<event>
 7    0  0.4737014E-002  0.4512120E+03  0.7546771E-02  0.1027361E+00
         21   -1    0    0  502  501  0.00000000000E+00  0.00000000000E+00  0.17259747151E+04  0.17259747151E+04  0.00000000000E+00 0.  1.
         21   -1    0    0  501  502 -0.00000000000E+00 -0.00000000000E+00 -0.29489464146E+02  0.29489464146E+02  0.00000000000E+00 0.  1.
      99926    2    1    2    0    0 -0.14210854715E-13  0.00000000000E+00  0.16964852509E+04  0.17554641792E+04  0.45121200993E+03 0.  0.
      99925    2    3    3    0    0 -0.68988708416E+02  0.65520909095E+02  0.86002379637E+03  0.90436623863E+03  0.26303028691E+03 0.  0.
         25    1    4    4    0    0 -0.36231148917E+02  0.59438340951E+02  0.34940009438E+03  0.37758912402E+03  0.12509000000E+03 0.  0.
         25    1    4    4    0    0 -0.32757559499E+02  0.60825681447E+01  0.51062370199E+03  0.52677711461E+03  0.12509000000E+03 0.  0.
         25    1    3    3    0    0  0.68988708416E+02 -0.65520909095E+02  0.83646145456E+03  0.85109794059E+03  0.12509000000E+03 0.  0.
<mgrwt>
<rscale>  2 0.45121201E+03</rscale>
<asrwt>0</asrwt>
<pdfrwt beam="1">  1       21 0.25381974E+00 0.45121201E+03</pdfrwt>
<pdfrwt beam="2">  1       21 0.43366871E-02 0.45121201E+03</pdfrwt>
<totfact> 0.18674292E+04</totfact>
</mgrwt>
</event>
<event>
 7    0  0.4737014E-002  0.4532804E+03  0.7546771E-02  0.1026748E+00
         21   -1    0    0  502  501  0.00000000000E+00  0.00000000000E+00  0.21860027209E+03  0.21860027209E+03  0.00000000000E+00 0. -1.
         21   -1    0    0  501  502 -0.00000000000E+00 -0.00000000000E+00 -0.23497578008E+03  0.23497578008E+03  0.00000000000E+00 0. -1.
      99926    2    1    2    0    0  0.00000000000E+00  0.00000000000E+00 -0.16375507995E+02  0.45357605217E+03  0.45328035237E+03 0.  0.
      99925    2    3    3    0    0  0.21865358350E+02 -0.10906067587E+03 -0.94560046985E+01  0.28604183912E+03  0.26335943648E+03 0.  0.
         25    1    4    4    0    0 -0.25131386449E+02 -0.66728195613E+02 -0.20490870849E+02  0.14543597410E+03  0.12509000000E+03 0.  0.
         25    1    4    4    0    0  0.46996744799E+02 -0.42332480257E+02  0.11034866150E+02  0.14060586502E+03  0.12509000000E+03 0.  0.
         25    1    3    3    0    0 -0.21865358350E+02  0.10906067587E+03 -0.69195032962E+01  0.16753421305E+03  0.12509000000E+03 0.  0.
<mgrwt>
<rscale>  2 0.45328035E+03</rscale>
<asrwt>0</asrwt>
<pdfrwt beam="1">  1       21 0.32147099E-01 0.45328035E+03</pdfrwt>
<pdfrwt beam="2">  1       21 0.34555262E-01 0.45328035E+03</pdfrwt>
<totfact> 0.69600340E+04</totfact>
</mgrwt>
</event>
<event>
 6    0  0.4737014E-002  0.4513383E+03  0.7546771E-02  0.1027324E+00
         21   -1    0    0  502  501  0.00000000000E+00  0.00000000000E+00  0.13198261054E+03  0.13198261054E+03  0.00000000000E+00 0.  1.
         21   -1    0    0  501  502 -0.00000000000E+00 -0.00000000000E+00 -0.38585806096E+03  0.38585806096E+03  0.00000000000E+00 0.  1.
      99926    2    1    2    0    0 -0.17763568394E-14  0.00000000000E+00 -0.25387545042E+03  0.51784067151E+03  0.45133825092E+03 0.  0.
         25    1    3    3    0    0  0.28401994524E+01  0.80200852280E+02 -0.16988448307E+03  0.22571772001E+03  0.12509000000E+03 0.  0.
         25    1    3    3    0    0  0.24681690729E+02  0.21313250606E+01 -0.39312058098E+02  0.13344165173E+03  0.12509000000E+03 0.  0.
         25    1    3    3    0    0 -0.27521890181E+02 -0.82332177341E+02 -0.44678909253E+02  0.15868129977E+03  0.12509000000E+03 0.  0.
<mgrwt>
<rscale>  2 0.45133825E+03</rscale>
<asrwt>0</asrwt>
<pdfrwt beam="1">  1       21 0.19409208E-01 0.45133825E+03</pdfrwt>
<pdfrwt beam="2">  1       21 0.56743832E-01 0.45133825E+03</pdfrwt>
<totfact> 0.65929244E+04</totfact>
</mgrwt>
</event>
<event>
 6    0  0.4737014E-002  0.4556965E+03  0.7546771E-02  0.1026037E+00
         21   -1    0    0  502  501  0.00000000000E+00  0.00000000000E+00  0.26215381123E+03  0.26215381123E+03  0.00000000000E+00 0. -1.
         21   -1    0    0  501  502 -0.00000000000E+00 -0.00000000000E+00 -0.19803196801E+03  0.19803196801E+03  0.00000000000E+00 0. -1.
      99926    2    1    2    0    0 -0.48849813084E-14  0.14210854715E-13  0.64121843218E+02  0.46018577924E+03  0.45569654446E+03 0.  0.
         25    1    3    3    0    0  0.27205132992E+01 -0.10687670934E+03 -0.55849797031E+01  0.16464729664E+03  0.12509000000E+03 0.  0.
         25    1    3    3    0    0  0.42661541986E+02  0.65523479296E+02  0.43021341949E+02  0.15366091717E+03  0.12509000000E+03 0.  0.
         25    1    3    3    0    0 -0.45382055285E+02  0.41353230044E+02  0.26685480973E+02  0.14187756543E+03  0.12509000000E+03 0.  0.
<mgrwt>
<rscale>  2 0.45569654E+03</rscale>
<asrwt>0</asrwt>
<pdfrwt beam="1">  1       21 0.38552031E-01 0.45569654E+03</pdfrwt>
<pdfrwt beam="2">  1       21 0.29122348E-01 0.45569654E+03</pdfrwt>
<totfact> 0.67789699E+04</totfact>
</mgrwt>
</event>
<event>
 7    0  0.4737014E-002  0.4693411E+03  0.7546771E-02  0.1022106E+00
         21   -1    0    0  502  501  0.00000000000E+00  0.00000000000E+00  0.20104341679E+03  0.20104341679E+03  0.00000000000E+00 0. -1.
         21   -1    0    0  501  502 -0.00000000000E+00 -0.00000000000E+00 -0.27392224769E+03  0.27392224769E+03  0.00000000000E+00 0. -1.
      99926    2    1    2    0    0 -0.35527136788E-14  0.00000000000E+00 -0.72878830898E+02  0.47496566448E+03  0.46934108966E+03 0.  0.
      99925    2    3    3    0    0  0.22454164225E+02  0.70368634575E+02  0.58433613865E+02  0.27914329478E+03  0.26277472780E+03 0.  0.
         25    1    3    3    0    0 -0.22454164225E+02 -0.70368634575E+02 -0.13131244476E+03  0.19582236969E+03  0.12509000000E+03 0.  0.
         25    1    4    4    0    0  0.51437122276E+02  0.33869685343E+02  0.32222146075E+02  0.14310383619E+03  0.12509000000E+03 0.  0.
         25    1    4    4    0    0 -0.28982958050E+02  0.36498949232E+02  0.26211467791E+02  0.13603945860E+03  0.12509000000E+03 0.  0.
<mgrwt>
<rscale>  2 0.46934109E+03</rscale>
<asrwt>0</asrwt>
<pdfrwt beam="1">  1       21 0.29565209E-01 0.46934109E+03</pdfrwt>
<pdfrwt beam="2">  1       21 0.40282683E-01 0.46934109E+03</pdfrwt>
<totfact> 0.59945687E+04</totfact>
</mgrwt>
</event>
<event>
 7    0  0.4737014E-002  0.4565677E+03  0.7546771E-02  0.1025781E+00
         21   -1    0    0  502  501  0.00000000000E+00  0.00000000000E+00  0.16774557996E+03  0.16774557996E+03  0.00000000000E+00 0. -1.
         21   -1    0    0  501  502 -0.00000000000E+00 -0.00000000000E+00 -0.31067004316E+03  0.31067004316E+03  0.00000000000E+00 0. -1.
      99926    2    1    2    0    0 -0.71054273576E-14  0.71054273576E-14 -0.14292446320E+03  0.47841562312E+03  0.45656774554E+03 0.  0.
      99925    2    3    3    0    0 -0.38621048800E+02  0.59098151496E+02  0.47716382755E+01  0.27239178127E+03  0.26304056161E+03 0.  0.
         25    1    4    4    0    0 -0.43924709247E+02  0.53715958096E+00 -0.12170530920E+02  0.13313639076E+03  0.12509000000E+03 0.  0.
         25    1    4    4    0    0  0.53036604468E+01  0.58560991915E+02  0.16942169195E+02  0.13925539051E+03  0.12509000000E+03 0.  0.
         25    1    3    3    0    0  0.38621048800E+02 -0.59098151496E+02 -0.14769610147E+03  0.20602384185E+03  0.12509000000E+03 0.  0.
<mgrwt>
<rscale>  2 0.45656775E+03</rscale>
<asrwt>0</asrwt>
<pdfrwt beam="1">  1       21 0.24668468E-01 0.45656775E+03</pdfrwt>
<pdfrwt beam="2">  1       21 0.45686770E-01 0.45656775E+03</pdfrwt>
<totfact> 0.65990671E+04</totfact>
</mgrwt>
</event>
<event>
 7    0  0.4737014E-002  0.4594881E+03  0.7546771E-02  0.1024930E+00
         21   -1    0    0  502  501  0.00000000000E+00  0.00000000000E+00  0.20644906200E+03  0.20644906200E+03  0.00000000000E+00 0. -1.
         21   -1    0    0  501  502 -0.00000000000E+00 -0.00000000000E+00 -0.25566760725E+03  0.25566760725E+03  0.00000000000E+00 0. -1.
      99926    2    1    2    0    0 -0.17763568394E-14  0.00000000000E+00 -0.49218545248E+02  0.46211666925E+03  0.45948814000E+03 0.  0.
      99925    2    3    3    0    0  0.12407365413E+02 -0.11667674002E+03 -0.27332272753E+02  0.28921808220E+03  0.26293086841E+03 0.  0.
         25    1    4    4    0    0  0.27603284876E+02 -0.45553584347E+02  0.19013487043E+02  0.13728106633E+03  0.12509000000E+03 0.  0.
         25    1    4    4    0    0 -0.15195919464E+02 -0.71123155678E+02 -0.46345759797E+02  0.15193701588E+03  0.12509000000E+03 0.  0.
         25    1    3    3    0    0 -0.12407365413E+02  0.11667674002E+03 -0.21886272495E+02  0.17289858705E+03  0.12509000000E+03 0.  0.
<mgrwt>
<rscale>  2 0.45948814E+03</rscale>
<asrwt>0</asrwt>
<pdfrwt beam="1">  1       21 0.30360156E-01 0.45948814E+03</pdfrwt>
<pdfrwt beam="2">  1       21 0.37598177E-01 0.45948814E+03</pdfrwt>
<totfact> 0.65645158E+04</totfact>
</mgrwt>
</event>
<event>
 7    0  0.4737014E-002  0.4400627E+03  0.7546771E-02  0.1030728E+00
         21   -1    0    0  502  501  0.00000000000E+00  0.00000000000E+00  0.19895116309E+04  0.19895116309E+04  0.00000000000E+00 0. -1.
         21   -1    0    0  501  502 -0.00000000000E+00 -0.00000000000E+00 -0.24334508896E+02  0.24334508896E+02  0.00000000000E+00 0. -1.
      99926    2    1    2    0    0  0.00000000000E+00  0.00000000000E+00  0.19651771220E+04  0.20138461398E+04  0.44006267045E+03 0.  0.
      99925    2    3    3    0    0 -0.24122548945E+02 -0.59923099744E+02  0.91437970453E+03  0.95365964870E+03  0.26306616323E+03 0.  0.
         25    1    4    4    0    0  0.16390097499E+02 -0.11434927983E+02  0.35263577568E+03  0.37469840040E+03  0.12509000000E+03 0.  0.
         25    1    4    4    0    0 -0.40512646444E+02 -0.48488171762E+02  0.56174392886E+03  0.57896124830E+03  0.12509000000E+03 0.  0.
         25    1    3    3    0    0  0.24122548945E+02  0.59923099744E+02  0.10507974175E+04  0.10601864911E+04  0.12509000000E+03 0.  0.
<mgrwt>
<rscale>  2 0.44006267E+03</rscale>
<asrwt>0</asrwt>
<pdfrwt beam="1">  1       21 0.29257513E+00 0.44006267E+03</pdfrwt>
<pdfrwt beam="2">  1       21 0.35786056E-02 0.44006267E+03</pdfrwt>
<totfact> 0.15169091E+04</totfact>
</mgrwt>
</event>
<event>
 7    0  0.4737014E-002  0.4507433E+03  0.7546771E-02  0.1027501E+00
         21   -1    0    0  502  501  0.00000000000E+00  0.00000000000E+00  0.14634763299E+03  0.14634763299E+03  0.00000000000E+00 0.  1.
         21   -1    0    0  501  502 -0.00000000000E+00 -0.00000000000E+00 -0.34706668325E+03  0.34706668325E+03  0.00000000000E+00 0.  1.
      99926    2    1    2    0    0  0.00000000000E+00 -0.17763568394E-14 -0.20071905026E+03  0.49341431624E+03  0.45074333088E+03 0.  0.
      99925    2    3    3    0    0  0.97901088159E+01  0.60197547288E+01 -0.81917586536E+01  0.26353097672E+03  0.26315278281E+03 0.  0.
         25    1    4    4    0    0  0.20896680295E+02 -0.20185615703E+02  0.25425018655E+02  0.13091245167E+03  0.12509000000E+03 0.  0.
         25    1    3    3    0    0 -0.97901088159E+01 -0.60197547288E+01 -0.19252729160E+03  0.22988333952E+03  0.12509000000E+03 0.  0.
         25    1    4    4    0    0 -0.11106571479E+02  0.26205370432E+02 -0.33616777308E+02  0.13261852505E+03  0.12509000000E+03 0.  0.
<mgrwt>
<rscale>  2 0.45074333E+03</rscale>
<asrwt>0</asrwt>
<pdfrwt beam="1">  1       21 0.21521711E-01 0.45074333E+03</pdfrwt>
<pdfrwt beam="2">  1       21 0.51039218E-01 0.45074333E+03</pdfrwt>
<totfact> 0.68004938E+04</totfact>
</mgrwt>
</event>
<event>
 7    0  0.4737014E-002  0.4220255E+03  0.7546771E-02  0.1036409E+00
         21   -1    0    0  502  501  0.00000000000E+00  0.00000000000E+00  0.21070061076E+03  0.21070061076E+03  0.00000000000E+00 0. -1.
         21   -1    0    0  501  502 -0.00000000000E+00 -0.00000000000E+00 -0.21132531143E+03  0.21132531143E+03  0.00000000000E+00 0. -1.
      99926    2    1    2    0    0  0.00000000000E+00  0.00000000000E+00 -0.62470066804E+00  0.42202592219E+03  0.42202545984E+03 0.  0.
      99925    2    3    3    0    0 -0.58060001293E+02  0.48403691731E+02  0.19932552570E+02  0.27443191864E+03  0.26306214132E+03 0.  0.
         25    1    3    3    0    0  0.58060001293E+02 -0.48403691731E+02 -0.20557253238E+02  0.14759400355E+03  0.12509000000E+03 0.  0.
         25    1    4    4    0    0 -0.51863280767E+02  0.42806835717E+02 -0.18700294032E+02  0.14324606163E+03  0.12509000000E+03 0.  0.
         25    1    4    4    0    0 -0.61967205256E+01  0.55968560139E+01  0.38632846602E+02  0.13118585701E+03  0.12509000000E+03 0.  0.
<mgrwt>
<rscale>  2 0.42202546E+03</rscale>
<asrwt>0</asrwt>
<pdfrwt beam="1">  1       21 0.30985384E-01 0.42202546E+03</pdfrwt>
<pdfrwt beam="2">  1       21 0.31077252E-01 0.42202546E+03</pdfrwt>
<totfact> 0.93257605E+04</totfact>
</mgrwt>
</event>
<event>
 7    0  0.4737014E-002  0.4432318E+03  0.7546771E-02  0.1029760E+00
         21   -1    0    0  502  501  0.00000000000E+00  0.00000000000E+00  0.17795143874E+04  0.17795143874E+04  0.00000000000E+00 0.  1.
         21   -1    0    0  501  502 -0.00000000000E+00 -0.00000000000E+00 -0.27599438087E+02  0.27599438087E+02  0.00000000000E+00 0.  1.
      99926    2    1    2    0    0  0.00000000000E+00 -0.35527136788E-14  0.17519149493E+04  0.18071138255E+04  0.44323175500E+03 0.  0.
      99925    2    3    3    0    0  0.56789445323E+02 -0.25242467244E+02  0.14429903959E+04  0.14680797401E+04  0.26301067922E+03 0.  0.
         25    1    3    3    0    0 -0.56789445323E+02  0.25242467244E+02  0.30892455343E+03  0.33903408540E+03  0.12509000000E+03 0.  0.
         25    1    4    4    0    0  0.60688885908E+02  0.45371633464E+01  0.84870050002E+03  0.86002544937E+03  0.12509000000E+03 0.  0.
         25    1    4    4    0    0 -0.38994405855E+01 -0.29779630590E+02  0.59428989585E+03  0.60805429070E+03  0.12509000000E+03 0.  0.
<mgrwt>
<rscale>  2 0.44323175E+03</rscale>
<asrwt>0</asrwt>
<pdfrwt beam="1">  1       21 0.26169321E+00 0.44323175E+03</pdfrwt>
<pdfrwt beam="2">  1       21 0.40587421E-02 0.44323175E+03</pdfrwt>
<totfact> 0.18780838E+04</totfact>
</mgrwt>
</event>
<event>
 7    0  0.4737014E-002  0.4442366E+03  0.7546771E-02  0.1029455E+00
         21   -1    0    0  502  501  0.00000000000E+00  0.00000000000E+00  0.35352445318E+03  0.35352445318E+03  0.00000000000E+00 0. -1.
         21   -1    0    0  501  502 -0.00000000000E+00 -0.00000000000E+00 -0.13955624828E+03  0.13955624828E+03  0.00000000000E+00 0. -1.
      99926    2    1    2    0    0  0.00000000000E+00  0.71054273576E-14  0.21396820489E+03  0.49308070146E+03  0.44423663227E+03 0.  0.
      99925    2    3    3    0    0 -0.74977375961E+02  0.48043502328E+02  0.19251761208E+03  0.33804063872E+03  0.26320839167E+03 0.  0.
         25    1    4    4    0    0 -0.10806924413E+02 -0.10501881830E+01  0.62041965811E+02  0.14005215504E+03  0.12509000000E+03 0.  0.
         25    1    4    4    0    0 -0.64170451548E+02  0.49093690511E+02  0.13047564627E+03  0.19798848368E+03  0.12509000000E+03 0.  0.
         25    1    3    3    0    0  0.74977375961E+02 -0.48043502328E+02  0.21450592810E+02  0.15504006274E+03  0.12509000000E+03 0.  0.
<mgrwt>
<rscale>  2 0.44423663E+03</rscale>
<asrwt>0</asrwt>
<pdfrwt beam="1">  1       21 0.51988890E-01 0.44423663E+03</pdfrwt>
<pdfrwt beam="2">  1       21 0.20522978E-01 0.44423663E+03</pdfrwt>
<totfact> 0.71691919E+04</totfact>
</mgrwt>
</event>
<event>
 7    0  0.4737014E-002  0.4606269E+03  0.7546771E-02  0.1024600E+00
         21   -1    0    0  502  501  0.00000000000E+00  0.00000000000E+00  0.11599411387E+03  0.11599411387E+03  0.00000000000E+00 0. -1.
         21   -1    0    0  501  502 -0.00000000000E+00 -0.00000000000E+00 -0.45730158401E+03  0.45730158401E+03  0.00000000000E+00 0. -1.
      99926    2    1    2    0    0 -0.35527136788E-14  0.14210854715E-13 -0.34130747014E+03  0.57329569788E+03  0.46062692934E+03 0.  0.
      99925    2    3    3    0    0  0.17342726031E+02 -0.11443727576E+03 -0.24399574784E+03  0.37704652049E+03  0.26312258250E+03 0.  0.
         25    1    4    4    0    0  0.29377574258E+02 -0.45852932723E+02 -0.16299029309E+03  0.21255323345E+03  0.12509000000E+03 0.  0.
         25    1    3    3    0    0 -0.17342726031E+02  0.11443727576E+03 -0.97311722308E+02  0.19624917739E+03  0.12509000000E+03 0.  0.
         25    1    4    4    0    0 -0.12034848227E+02 -0.68584343035E+02 -0.81005454743E+02  0.16449328703E+03  0.12509000000E+03 0.  0.
<mgrwt>
<rscale>  2 0.46062693E+03</rscale>
<asrwt>0</asrwt>
<pdfrwt beam="1">  1       21 0.17057958E-01 0.46062693E+03</pdfrwt>
<pdfrwt beam="2">  1       21 0.67250233E-01 0.46062693E+03</pdfrwt>
<totfact> 0.57740557E+04</totfact>
</mgrwt>
</event>
<event>
 7    0  0.4737014E-002  0.4485975E+03  0.7546771E-02  0.1028141E+00
         21   -1    0    0  502  501  0.00000000000E+00  0.00000000000E+00  0.58581147253E+03  0.58581147253E+03  0.00000000000E+00 0. -1.
         21   -1    0    0  501  502 -0.00000000000E+00 -0.00000000000E+00 -0.85880754961E+02  0.85880754961E+02  0.00000000000E+00 0. -1.
      99926    2    1    2    0    0 -0.17763568394E-14  0.00000000000E+00  0.49993071757E+03  0.67169222750E+03  0.44859751014E+03 0.  0.
      99925    2    3    3    0    0 -0.13046333639E+02 -0.67319717636E+02  0.43852125169E+03  0.51638356127E+03  0.26391086178E+03 0.  0.
         25    1    3    3    0    0  0.13046333639E+02  0.67319717636E+02  0.61409465885E+02  0.15530866622E+03  0.12509000000E+03 0.  0.
         25    1    4    4    0    0  0.19438536087E+02 -0.96422987782E+00  0.22400457875E+03  0.25730205173E+03  0.12509000000E+03 0.  0.
         25    1    4    4    0    0 -0.32484869726E+02 -0.66355487758E+02  0.21451667294E+03  0.25908150954E+03  0.12509000000E+03 0.  0.
<mgrwt>
<rscale>  2 0.44859751E+03</rscale>
<asrwt>0</asrwt>
<pdfrwt beam="1">  1       21 0.86148744E-01 0.44859751E+03</pdfrwt>
<pdfrwt beam="2">  1       21 0.12629523E-01 0.44859751E+03</pdfrwt>
<totfact> 0.57303237E+04</totfact>
</mgrwt>
</event>
<event>
 7    0  0.4737014E-002  0.4272827E+03  0.7546771E-02  0.1034722E+00
         21   -1    0    0  502  501  0.00000000000E+00  0.00000000000E+00  0.11326824833E+04  0.11326824833E+04  0.00000000000E+00 0. -1.
         21   -1    0    0  501  502 -0.00000000000E+00 -0.00000000000E+00 -0.40296051875E+02  0.40296051875E+02  0.00000000000E+00 0. -1.
      99926    2    1    2    0    0 -0.71054273576E-14  0.00000000000E+00  0.10923864315E+04  0.11729785352E+04  0.42728272657E+03 0.  0.
      99925    2    3    3    0    0  0.56989556132E+02 -0.42184010884E+02  0.83304880184E+03  0.87644723076E+03  0.26298696123E+03 0.  0.
         25    1    3    3    0    0 -0.56989556132E+02  0.42184010884E+02  0.25933762962E+03  0.29653130445E+03  0.12509000000E+03 0.  0.
         25    1    4    4    0    0  0.11659298342E+02  0.14213026083E+02  0.34421280364E+03  0.36669866599E+03  0.12509000000E+03 0.  0.
         25    1    4    4    0    0  0.45330257790E+02 -0.56397036967E+02  0.48883599820E+03  0.50974856477E+03  0.12509000000E+03 0.  0.
<mgrwt>
<rscale>  2 0.42728273E+03</rscale>
<asrwt>0</asrwt>
<pdfrwt beam="1">  1       21 0.16657093E+00 0.42728273E+03</pdfrwt>
<pdfrwt beam="2">  1       21 0.59258907E-02 0.42728273E+03</pdfrwt>
<totfact> 0.41234641E+04</totfact>
</mgrwt>
</event>
<event>
 7    0  0.4737014E-002  0.5020595E+03  0.7546771E-02  0.1013243E+00
         21   -1    0    0  502  501  0.00000000000E+00  0.00000000000E+00  0.34306245740E+03  0.34306245740E+03  0.00000000000E+00 0. -1.
         21   -1    0    0  501  502 -0.00000000000E+00 -0.00000000000E+00 -0.18368646185E+03  0.18368646185E+03  0.00000000000E+00 0. -1.
      99926    2    1    2    0    0  0.00000000000E+00  0.00000000000E+00  0.15937599555E+03  0.52674891925E+03  0.50205947454E+03 0.  0.
      99925    2    3    3    0    0  0.11193590993E+02  0.14934342650E+03  0.12988083320E+03  0.32940093162E+03  0.26307258961E+03 0.  0.
         25    1    4    4    0    0  0.79422065976E+00  0.36521053353E+02  0.81998306570E+02  0.15396638758E+03  0.12509000000E+03 0.  0.
         25    1    4    4    0    0  0.10399370334E+02  0.11282237315E+03  0.47882526632E+02  0.17543454404E+03  0.12509000000E+03 0.  0.
         25    1    3    3    0    0 -0.11193590993E+02 -0.14934342650E+03  0.29495162351E+02  0.19734798763E+03  0.12509000000E+03 0.  0.
<mgrwt>
<rscale>  2 0.50205947E+03</rscale>
<asrwt>0</asrwt>
<pdfrwt beam="1">  1       21 0.50450362E-01 0.50205947E+03</pdfrwt>
<pdfrwt beam="2">  1       21 0.27012715E-01 0.50205947E+03</pdfrwt>
<totfact> 0.44386550E+04</totfact>
</mgrwt>
</event>
<event>
 7    0  0.4737014E-002  0.4514940E+03  0.7546771E-02  0.1027277E+00
         21   -1    0    0  502  501  0.00000000000E+00  0.00000000000E+00  0.23188260105E+03  0.23188260105E+03  0.00000000000E+00 0. -1.
         21   -1    0    0  501  502 -0.00000000000E+00 -0.00000000000E+00 -0.21977369996E+03  0.21977369996E+03  0.00000000000E+00 0. -1.
      99926    2    1    2    0    0  0.00000000000E+00  0.71054273576E-14  0.12108901091E+02  0.45165630101E+03  0.45149395207E+03 0.  0.
      99925    2    3    3    0    0  0.86951892492E+02 -0.61807031005E+02  0.33677560273E+02  0.28584479403E+03  0.26304434515E+03 0.  0.
         25    1    4    4    0    0  0.41831228027E+02  0.10747628572E+02  0.17884744551E+02  0.13353926518E+03  0.12509000000E+03 0.  0.
         25    1    4    4    0    0  0.45120664466E+02 -0.72554659578E+02  0.15792815722E+02  0.15230552884E+03  0.12509000000E+03 0.  0.
         25    1    3    3    0    0 -0.86951892492E+02  0.61807031005E+02 -0.21568659182E+02  0.16581150698E+03  0.12509000000E+03 0.  0.
<mgrwt>
<rscale>  2 0.45149395E+03</rscale>
<asrwt>0</asrwt>
<pdfrwt beam="1">  1       21 0.34100383E-01 0.45149395E+03</pdfrwt>
<pdfrwt beam="2">  1       21 0.32319662E-01 0.45149395E+03</pdfrwt>
<totfact> 0.70750034E+04</totfact>
</mgrwt>
</event>
<event>
 7    0  0.4737014E-002  0.4345866E+03  0.7546771E-02  0.1032421E+00
         21   -1    0    0  502  501  0.00000000000E+00  0.00000000000E+00  0.31075946300E+03  0.31075946300E+03  0.00000000000E+00 0.  1.
         21   -1    0    0  501  502 -0.00000000000E+00 -0.00000000000E+00 -0.15193869197E+03  0.15193869197E+03  0.00000000000E+00 0.  1.
      99926    2    1    2    0    0 -0.35527136788E-14  0.00000000000E+00  0.15882077103E+03  0.46269815496E+03  0.43458663727E+03 0.  0.
      99925    2    3    3    0    0 -0.26574010039E+02  0.83200587383E+02  0.69161217214E+02  0.28573810455E+03  0.26312444713E+03 0.  0.
         25    1    4    4    0    0  0.56533505618E+01  0.69508135619E+02  0.11685126398E+02  0.14369200245E+03  0.12509000000E+03 0.  0.
         25    1    4    4    0    0 -0.32227360601E+02  0.13692451765E+02  0.57476090816E+02  0.14204610210E+03  0.12509000000E+03 0.  0.
         25    1    3    3    0    0  0.26574010039E+02 -0.83200587383E+02  0.89659553814E+02  0.17696005041E+03  0.12509000000E+03 0.  0.
<mgrwt>
<rscale>  2 0.43458664E+03</rscale>
<asrwt>0</asrwt>
<pdfrwt beam="1">  1       21 0.45699921E-01 0.43458664E+03</pdfrwt>
<pdfrwt beam="2">  1       21 0.22343925E-01 0.43458664E+03</pdfrwt>
<totfact> 0.80209371E+04</totfact>
</mgrwt>
</event>
<event>
 7    0  0.4737014E-002  0.4594587E+03  0.7546771E-02  0.1024938E+00
         21   -1    0    0  502  501  0.00000000000E+00  0.00000000000E+00  0.89030259970E+03  0.89030259970E+03  0.00000000000E+00 0. -1.
         21   -1    0    0  501  502 -0.00000000000E+00 -0.00000000000E+00 -0.59278236554E+02  0.59278236554E+02  0.00000000000E+00 0. -1.
      99926    2    1    2    0    0 -0.14210854715E-13  0.00000000000E+00  0.83102436315E+03  0.94958083626E+03  0.45945867327E+03 0.  0.
      99925    2    3    3    0    0 -0.77823167326E+02 -0.51945989250E+01  0.70215937377E+03  0.75378215695E+03  0.26282375222E+03 0.  0.
         25    1    3    3    0    0  0.77823167326E+02  0.51945989250E+01  0.12886498938E+03  0.19579867931E+03  0.12509000000E+03 0.  0.
         25    1    4    4    0    0 -0.76601791544E+02  0.72983949823E+01  0.33781878626E+03  0.36836142779E+03  0.12509000000E+03 0.  0.
         25    1    4    4    0    0 -0.12213757816E+01 -0.12492993907E+02  0.36434058751E+03  0.38542072916E+03  0.12509000000E+03 0.  0.
<mgrwt>
<rscale>  2 0.45945867E+03</rscale>
<asrwt>0</asrwt>
<pdfrwt beam="1">  1       21 0.13092684E+00 0.45945867E+03</pdfrwt>
<pdfrwt beam="2">  1       21 0.87173883E-02 0.45945867E+03</pdfrwt>
<totfact> 0.39753519E+04</totfact>
</mgrwt>
</event>
<event>
 7    0  0.4737014E-002  0.4579460E+03  0.7546771E-02  0.1025379E+00
         21   -1    0    0  502  501  0.00000000000E+00  0.00000000000E+00  0.20443954165E+03  0.20443954165E+03  0.00000000000E+00 0. -1.
         21   -1    0    0  501  502 -0.00000000000E+00 -0.00000000000E+00 -0.25645060408E+03  0.25645060408E+03  0.00000000000E+00 0. -1.
      99926    2    1    2    0    0 -0.14210854715E-13  0.00000000000E+00 -0.52011062435E+02  0.46089014573E+03  0.45794604029E+03 0.  0.
      99925    2    3    3    0    0  0.11119871421E+03 -0.30796736820E+02 -0.20303220325E+02  0.28778183168E+03  0.26285465347E+03 0.  0.
         25    1    4    4    0    0  0.74318055981E+02  0.13668391237E+02  0.10761874984E+02  0.14653779177E+03  0.12509000000E+03 0.  0.
         25    1    3    3    0    0 -0.11119871421E+03  0.30796736820E+02 -0.31707842110E+02  0.17310831405E+03  0.12509000000E+03 0.  0.
         25    1    4    4    0    0  0.36880658228E+02 -0.44465128056E+02 -0.31065095309E+02  0.14124403991E+03  0.12509000000E+03 0.  0.
<mgrwt>
<rscale>  2 0.45794604E+03</rscale>
<asrwt>0</asrwt>
<pdfrwt beam="1">  1       21 0.30064639E-01 0.45794604E+03</pdfrwt>
<pdfrwt beam="2">  1       21 0.37713324E-01 0.45794604E+03</pdfrwt>
<totfact> 0.66538560E+04</totfact>
</mgrwt>
</event>
<event>
 7    0  0.4737014E-002  0.4451928E+03  0.7546771E-02  0.1029165E+00
         21   -1    0    0  502  501  0.00000000000E+00  0.00000000000E+00  0.83818966141E+02  0.83818966141E+02  0.00000000000E+00 0. -1.
         21   -1    0    0  501  502 -0.00000000000E+00 -0.00000000000E+00 -0.59114499905E+03  0.59114499905E+03  0.00000000000E+00 0. -1.
      99926    2    1    2    0    0 -0.88817841970E-15  0.00000000000E+00 -0.50732603291E+03  0.67496396519E+03  0.44519282411E+03 0.  0.
      99925    2    3    3    0    0 -0.20325401647E+01  0.58571823436E+01 -0.16519937316E+03  0.31063362441E+03  0.26299045214E+03 0.  0.
         25    1    4    4    0    0  0.35081347847E+02  0.19122743261E+02 -0.72208489747E+02  0.14985978236E+03  0.12509000000E+03 0.  0.
         25    1    4    4    0    0 -0.37113888012E+02 -0.13265560917E+02 -0.92990883413E+02  0.16077384205E+03  0.12509000000E+03 0.  0.
         25    1    3    3    0    0  0.20325401647E+01 -0.58571823436E+01 -0.34212665975E+03  0.36433034078E+03  0.12509000000E+03 0.  0.
<mgrwt>
<rscale>  2 0.44519282E+03</rscale>
<asrwt>0</asrwt>
<pdfrwt beam="1">  1       21 0.12326319E-01 0.44519282E+03</pdfrwt>
<pdfrwt beam="2">  1       21 0.86933088E-01 0.44519282E+03</pdfrwt>
<totfact> 0.58687013E+04</totfact>
</mgrwt>
</event>
<event>
 7    0  0.4737014E-002  0.4320622E+03  0.7546771E-02  0.1033211E+00
         21   -1    0    0  502  501  0.00000000000E+00  0.00000000000E+00  0.17663913165E+03  0.17663913165E+03  0.00000000000E+00 0.  1.
         21   -1    0    0  501  502 -0.00000000000E+00 -0.00000000000E+00 -0.26420781935E+03  0.26420781935E+03  0.00000000000E+00 0.  1.
      99926    2    1    2    0    0  0.00000000000E+00  0.00000000000E+00 -0.87568687700E+02  0.44084695100E+03  0.43206221675E+03 0.  0.
      99925    2    3    3    0    0  0.80205936805E+02 -0.24616190716E+02 -0.89836660782E+02  0.29020963509E+03  0.26289172207E+03 0.  0.
         25    1    4    4    0    0  0.63917179797E+02  0.16470280980E+02 -0.29570121435E+02  0.14449420822E+03  0.12509000000E+03 0.  0.
         25    1    4    4    0    0  0.16288757008E+02 -0.41086471697E+02 -0.60266539347E+02  0.14571542686E+03  0.12509000000E+03 0.  0.
         25    1    3    3    0    0 -0.80205936805E+02  0.24616190716E+02  0.22679730820E+01  0.15063731591E+03  0.12509000000E+03 0.  0.
<mgrwt>
<rscale>  2 0.43206222E+03</rscale>
<asrwt>0</asrwt>
<pdfrwt beam="1">  1       21 0.25976343E-01 0.43206222E+03</pdfrwt>
<pdfrwt beam="2">  1       21 0.38854091E-01 0.43206222E+03</pdfrwt>
<totfact> 0.83925073E+04</totfact>
</mgrwt>
</event>
<event>
 7    0  0.4737014E-002  0.4508333E+03  0.7546771E-02  0.1027474E+00
         21   -1    0    0  502  501  0.00000000000E+00  0.00000000000E+00  0.63585057917E+03  0.63585057917E+03  0.00000000000E+00 0. -1.
         21   -1    0    0  501  502 -0.00000000000E+00 -0.00000000000E+00 -0.79912887756E+02  0.79912887756E+02  0.00000000000E+00 0. -1.
      99926    2    1    2    0    0  0.00000000000E+00  0.14210854715E-13  0.55593769141E+03  0.71576346692E+03  0.45083325504E+03 0.  0.
      99925    2    3    3    0    0 -0.55489136613E+02 -0.93846978131E+02  0.36279470865E+03  0.46113035934E+03  0.26293517851E+03 0.  0.
         25    1    3    3    0    0  0.55489136613E+02  0.93846978131E+02  0.19314298276E+03  0.25463310758E+03  0.12509000000E+03 0.  0.
         25    1    4    4    0    0 -0.57178164002E+02 -0.55593185580E+02  0.14744018773E+03  0.20915559227E+03  0.12509000000E+03 0.  0.
         25    1    4    4    0    0  0.16890273896E+01 -0.38253792551E+02  0.21535452092E+03  0.25197476707E+03  0.12509000000E+03 0.  0.
<mgrwt>
<rscale>  2 0.45083326E+03</rscale>
<asrwt>0</asrwt>
<pdfrwt beam="1">  1       21 0.93507435E-01 0.45083326E+03</pdfrwt>
<pdfrwt beam="2">  1       21 0.11751896E-01 0.45083326E+03</pdfrwt>
<totfact> 0.53797237E+04</totfact>
</mgrwt>
</event>
<event>
 7    0  0.4737014E-002  0.4593661E+03  0.7546771E-02  0.1024965E+00
         21   -1    0    0  502  501  0.00000000000E+00  0.00000000000E+00  0.28071040563E+03  0.28071040563E+03  0.00000000000E+00 0.  1.
         21   -1    0    0  501  502 -0.00000000000E+00 -0.00000000000E+00 -0.18793140532E+03  0.18793140532E+03  0.00000000000E+00 0.  1.
      99926    2    1    2    0    0  0.00000000000E+00  0.00000000000E+00  0.92779000306E+02  0.46864181095E+03  0.45936608938E+03 0.  0.
      99925    2    3    3    0    0 -0.85892790032E+02 -0.71803520547E+02  0.93713437906E+02  0.30076775632E+03  0.26295573364E+03 0.  0.
         25    1    4    4    0    0 -0.23267918529E+02 -0.39947956345E+02  0.82596383762E+02  0.15686588526E+03  0.12509000000E+03 0.  0.
         25    1    3    3    0    0  0.85892790032E+02  0.71803520547E+02 -0.93443759962E+00  0.16787405462E+03  0.12509000000E+03 0.  0.
         25    1    4    4    0    0 -0.62624871503E+02 -0.31855564201E+02  0.11117054144E+02  0.14390187106E+03  0.12509000000E+03 0.  0.
<mgrwt>
<rscale>  2 0.45936609E+03</rscale>
<asrwt>0</asrwt>
<pdfrwt beam="1">  1       21 0.41280942E-01 0.45936609E+03</pdfrwt>
<pdfrwt beam="2">  1       21 0.27636972E-01 0.45936609E+03</pdfrwt>
<totfact> 0.65246689E+04</totfact>
</mgrwt>
</event>
<event>
 7    0  0.4737014E-002  0.4488903E+03  0.7546771E-02  0.1028053E+00
         21   -1    0    0  502  501  0.00000000000E+00  0.00000000000E+00  0.21208712691E+03  0.21208712691E+03  0.00000000000E+00 0. -1.
         21   -1    0    0  501  502 -0.00000000000E+00 -0.00000000000E+00 -0.23752328638E+03  0.23752328638E+03  0.00000000000E+00 0. -1.
      99926    2    1    2    0    0  0.00000000000E+00  0.71054273576E-14 -0.25436159470E+02  0.44961041329E+03  0.44889032684E+03 0.  0.
      99925    2    3    3    0    0 -0.86472268015E+02  0.62947554752E+02 -0.24704325468E+02  0.28502641812E+03  0.26303974518E+03 0.  0.
         25    1    4    4    0    0 -0.52436591413E+02  0.68959877224E+02 -0.30222504470E+02  0.15513210068E+03  0.12509000000E+03 0.  0.
         25    1    3    3    0    0  0.86472268015E+02 -0.62947554752E+02 -0.73183400167E+00  0.16458399517E+03  0.12509000000E+03 0.  0.
         25    1    4    4    0    0 -0.34035676601E+02 -0.60123224711E+01  0.55181790018E+01  0.12989431744E+03  0.12509000000E+03 0.  0.
<mgrwt>
<rscale>  2 0.44889033E+03</rscale>
<asrwt>0</asrwt>
<pdfrwt beam="1">  1       21 0.31189283E-01 0.44889033E+03</pdfrwt>
<pdfrwt beam="2">  1       21 0.34929895E-01 0.44889033E+03</pdfrwt>
<totfact> 0.72408390E+04</totfact>
</mgrwt>
</event>
<event>
 7    0  0.4737014E-002  0.4619870E+03  0.7546771E-02  0.1024206E+00
         21   -1    0    0  502  501  0.00000000000E+00  0.00000000000E+00  0.12119694512E+04  0.12119694512E+04  0.00000000000E+00 0. -1.
         21   -1    0    0  501  502 -0.00000000000E+00 -0.00000000000E+00 -0.44025868073E+02  0.44025868073E+02  0.00000000000E+00 0. -1.
      99926    2    1    2    0    0  0.00000000000E+00  0.00000000000E+00  0.11679435832E+04  0.12559953193E+04  0.46198704384E+03 0.  0.
      99925    2    3    3    0    0  0.51208789290E+02 -0.10719048025E+03  0.76729649883E+03  0.81978695918E+03  0.26304866883E+03 0.  0.
         25    1    3    3    0    0 -0.51208789290E+02  0.10719048025E+03  0.40064708433E+03  0.43620836012E+03  0.12509000000E+03 0.  0.
         25    1    4    4    0    0  0.41603230207E+02 -0.93984938901E+02  0.45679920734E+03  0.48464112643E+03  0.12509000000E+03 0.  0.
         25    1    4    4    0    0  0.96055590827E+01 -0.13205541352E+02  0.31049729149E+03  0.33514583275E+03  0.12509000000E+03 0.  0.
<mgrwt>
<rscale>  2 0.46198704E+03</rscale>
<asrwt>0</asrwt>
<pdfrwt beam="1">  1       21 0.17823078E+00 0.46198704E+03</pdfrwt>
<pdfrwt beam="2">  1       21 0.64743931E-02 0.46198704E+03</pdfrwt>
<totfact> 0.28820283E+04</totfact>
</mgrwt>
</event>
<event>
 7    0  0.4737014E-002  0.4532407E+03  0.7546771E-02  0.1026760E+00
         21   -1    0    0  502  501  0.00000000000E+00  0.00000000000E+00  0.13939938133E+04  0.13939938133E+04  0.00000000000E+00 0. -1.
         21   -1    0    0  501  502 -0.00000000000E+00 -0.00000000000E+00 -0.36841472701E+02  0.36841472701E+02  0.00000000000E+00 0. -1.
      99926    2    1    2    0    0 -0.71054273576E-14 -0.14210854715E-13  0.13571523406E+04  0.14308352860E+04  0.45324070875E+03 0.  0.
      99925    2    3    3    0    0 -0.41351264310E+02 -0.98248620722E+02  0.95894686211E+03  0.10000478329E+04  0.26297122511E+03 0.  0.
         25    1    4    4    0    0 -0.57176891588E+02 -0.38444831731E+02  0.53444445594E+03  0.55319579410E+03  0.12509000000E+03 0.  0.
         25    1    4    4    0    0  0.15825627278E+02 -0.59803788990E+02  0.42450240617E+03  0.44685203882E+03  0.12509000000E+03 0.  0.
         25    1    3    3    0    0  0.41351264310E+02  0.98248620722E+02  0.39820547847E+03  0.43078745306E+03  0.12509000000E+03 0.  0.
<mgrwt>
<rscale>  2 0.45324071E+03</rscale>
<asrwt>0</asrwt>
<pdfrwt beam="1">  1       21 0.20499905E+00 0.45324071E+03</pdfrwt>
<pdfrwt beam="2">  1       21 0.54178646E-02 0.45324071E+03</pdfrwt>
<totfact> 0.25873675E+04</totfact>
</mgrwt>
</event>
<event>
 7    0  0.4737014E-002  0.4649104E+03  0.7546771E-02  0.1023367E+00
         21   -1    0    0  502  501  0.00000000000E+00  0.00000000000E+00  0.16274793766E+04  0.16274793766E+04  0.00000000000E+00 0. -1.
         21   -1    0    0  501  502 -0.00000000000E+00 -0.00000000000E+00 -0.33201908311E+02  0.33201908311E+02  0.00000000000E+00 0. -1.
      99926    2    1    2    0    0  0.00000000000E+00  0.71054273576E-14  0.15942774683E+04  0.16606812849E+04  0.46491040444E+03 0.  0.
      99925    2    3    3    0    0  0.78016986302E+02  0.50712546736E+02  0.12775849209E+04  0.13076939052E+04  0.26302415685E+03 0.  0.
         25    1    4    4    0    0  0.74115900975E+02  0.31905751833E+02  0.58505817645E+03  0.60369836981E+03  0.12509000000E+03 0.  0.
         25    1    3    3    0    0 -0.78016986302E+02 -0.50712546736E+02  0.31669254737E+03  0.35298737967E+03  0.12509000000E+03 0.  0.
         25    1    4    4    0    0  0.39010853266E+01  0.18806794903E+02  0.69252674444E+03  0.70399553541E+03  0.12509000000E+03 0.  0.
<mgrwt>
<rscale>  2 0.46491040E+03</rscale>
<asrwt>0</asrwt>
<pdfrwt beam="1">  1       21 0.23933515E+00 0.46491040E+03</pdfrwt>
<pdfrwt beam="2">  1       21 0.48826347E-02 0.46491040E+03</pdfrwt>
<totfact> 0.18618306E+04</totfact>
</mgrwt>
</event>
<event>
 7    0  0.4737014E-002  0.4537861E+03  0.7546771E-02  0.1026599E+00
         21   -1    0    0  502  501  0.00000000000E+00  0.00000000000E+00  0.42122715417E+03  0.42122715417E+03  0.00000000000E+00 0.  1.
         21   -1    0    0  501  502 -0.00000000000E+00 -0.00000000000E+00 -0.12221540423E+03  0.12221540423E+03  0.00000000000E+00 0.  1.
      99926    2    1    2    0    0  0.00000000000E+00  0.00000000000E+00  0.29901174993E+03  0.54344255840E+03  0.45378605938E+03 0.  0.
      99925    2    3    3    0    0 -0.94277611480E+02 -0.58839626863E+02  0.20516409834E+03  0.35159558937E+03  0.26301479332E+03 0.  0.
         25    1    3    3    0    0  0.94277611480E+02  0.58839626863E+02  0.93847651597E+02  0.19184696903E+03  0.12509000000E+03 0.  0.
         25    1    4    4    0    0 -0.69254827920E+02 -0.53286857556E+02  0.77927577452E+02  0.17133574001E+03  0.12509000000E+03 0.  0.
         25    1    4    4    0    0 -0.25022783560E+02 -0.55527693072E+01  0.12723652088E+03  0.18025984936E+03  0.12509000000E+03 0.  0.
<mgrwt>
<rscale>  2 0.45378606E+03</rscale>
<asrwt>0</asrwt>
<pdfrwt beam="1">  1       21 0.61945169E-01 0.45378606E+03</pdfrwt>
<pdfrwt beam="2">  1       21 0.17972854E-01 0.45378606E+03</pdfrwt>
<totfact> 0.62904016E+04</totfact>
</mgrwt>
</event>
<event>
 7    0  0.4737014E-002  0.4527452E+03  0.7546771E-02  0.1026907E+00
         21   -1    0    0  502  501  0.00000000000E+00  0.00000000000E+00  0.29255554690E+03  0.29255554690E+03  0.00000000000E+00 0.  1.
         21   -1    0    0  501  502 -0.00000000000E+00 -0.00000000000E+00 -0.17516180234E+03  0.17516180234E+03  0.00000000000E+00 0.  1.
      99926    2    1    2    0    0  0.00000000000E+00  0.00000000000E+00  0.11739374456E+03  0.46771734924E+03  0.45274521258E+03 0.  0.
      99925    2    3    3    0    0 -0.10686055870E+03  0.27361847614E+02  0.61208978790E+02  0.29172846972E+03  0.26304203324E+03 0.  0.
         25    1    3    3    0    0  0.10686055870E+03 -0.27361847614E+02  0.56184765767E+02  0.17598887952E+03  0.12509000000E+03 0.  0.
         25    1    4    4    0    0 -0.33223200304E+02  0.40692220193E+02  0.58323729794E+01  0.13579824188E+03  0.12509000000E+03 0.  0.
         25    1    4    4    0    0 -0.73637358392E+02 -0.13330372578E+02  0.55376605811E+02  0.15593022784E+03  0.12509000000E+03 0.  0.
<mgrwt>
<rscale>  2 0.45274521E+03</rscale>
<asrwt>0</asrwt>
<pdfrwt beam="1">  1       21 0.43022875E-01 0.45274521E+03</pdfrwt>
<pdfrwt beam="2">  1       21 0.25759089E-01 0.45274521E+03</pdfrwt>
<totfact> 0.68828793E+04</totfact>
</mgrwt>
</event>
<event>
 7    0  0.4737014E-002  0.4468137E+03  0.7546771E-02  0.1028676E+00
         21   -1    0    0  502  501  0.00000000000E+00  0.00000000000E+00  0.31731823481E+03  0.31731823481E+03  0.00000000000E+00 0.  1.
         21   -1    0    0  501  502 -0.00000000000E+00 -0.00000000000E+00 -0.15728888273E+03  0.15728888273E+03  0.00000000000E+00 0.  1.
      99926    2    1    2    0    0  0.44408920985E-15  0.14210854715E-13  0.16002935208E+03  0.47460711754E+03  0.44681374475E+03 0.  0.
      99925    2    3    3    0    0  0.31974457425E+01  0.72657033652E+02  0.20488605598E+02  0.27358871981E+03  0.26294816304E+03 0.  0.
         25    1    4    4    0    0 -0.10909986002E+02  0.68929704694E+02  0.33117073299E+02  0.14701898050E+03  0.12509000000E+03 0.  0.
         25    1    4    4    0    0  0.14107431745E+02  0.37273289579E+01 -0.12628467701E+02  0.12656973931E+03  0.12509000000E+03 0.  0.
         25    1    3    3    0    0 -0.31974457425E+01 -0.72657033652E+02  0.13954074649E+03  0.20101839774E+03  0.12509000000E+03 0.  0.
<mgrwt>
<rscale>  2 0.44681374E+03</rscale>
<asrwt>0</asrwt>
<pdfrwt beam="1">  1       21 0.46664446E-01 0.44681374E+03</pdfrwt>
<pdfrwt beam="2">  1       21 0.23130718E-01 0.44681374E+03</pdfrwt>
<totfact> 0.71637599E+04</totfact>
</mgrwt>
</event>
<event>
 7    0  0.4737014E-002  0.4438278E+03  0.7546771E-02  0.1029579E+00
         21   -1    0    0  502  501  0.00000000000E+00  0.00000000000E+00  0.41287740432E+02  0.41287740432E+02  0.00000000000E+00 0. -1.
         21   -1    0    0  501  502 -0.00000000000E+00 -0.00000000000E+00 -0.11927457075E+04  0.11927457075E+04  0.00000000000E+00 0. -1.
      99926    2    1    2    0    0  0.00000000000E+00  0.00000000000E+00 -0.11514579670E+04  0.12340334479E+04  0.44382778268E+03 0.  0.
      99925    2    3    3    0    0 -0.97560115680E+02 -0.15613780298E+02 -0.80697552898E+03  0.85445812660E+03  0.26292093762E+03 0.  0.
         25    1    3    3    0    0  0.97560115680E+02  0.15613780298E+02 -0.34448243805E+03  0.37957532129E+03  0.12509000000E+03 0.  0.
         25    1    4    4    0    0 -0.45248926135E+02  0.91389366760E+01 -0.28592007077E+03  0.31548182269E+03  0.12509000000E+03 0.  0.
         25    1    4    4    0    0 -0.52311189545E+02 -0.24752716974E+02 -0.52105545820E+03  0.53897630391E+03  0.12509000000E+03 0.  0.
<mgrwt>
<rscale>  2 0.44382778E+03</rscale>
<asrwt>0</asrwt>
<pdfrwt beam="1">  1       21 0.60717265E-02 0.44382778E+03</pdfrwt>
<pdfrwt beam="2">  1       21 0.17540378E+00 0.44382778E+03</pdfrwt>
<totfact> 0.33950299E+04</totfact>
</mgrwt>
</event>
<event>
 6    0  0.4737014E-002  0.4648982E+03  0.7546771E-02  0.1023370E+00
         21   -1    0    0  502  501  0.00000000000E+00  0.00000000000E+00  0.19543792944E+03  0.19543792944E+03  0.00000000000E+00 0. -1.
         21   -1    0    0  501  502 -0.00000000000E+00 -0.00000000000E+00 -0.27646933193E+03  0.27646933193E+03  0.00000000000E+00 0. -1.
      99926    2    1    2    0    0  0.14210854715E-13 -0.71054273576E-14 -0.81031402489E+02  0.47190726137E+03  0.46489824171E+03 0.  0.
         25    1    3    3    0    0 -0.88932703660E+02  0.40942416945E+02  0.11297634536E+02  0.15924965285E+03  0.12509000000E+03 0.  0.
         25    1    3    3    0    0  0.12178469988E+02  0.20734638043E+02  0.24148779644E+01  0.12740321849E+03  0.12509000000E+03 0.  0.
         25    1    3    3    0    0  0.76754233672E+02 -0.61677054988E+02 -0.94743914989E+02  0.18525439003E+03  0.12509000000E+03 0.  0.
<mgrwt>
<rscale>  2 0.46489824E+03</rscale>
<asrwt>0</asrwt>
<pdfrwt beam="1">  1       21 0.28740872E-01 0.46489824E+03</pdfrwt>
<pdfrwt beam="2">  1       21 0.40657255E-01 0.46489824E+03</pdfrwt>
<totfact> 0.62255788E+04</totfact>
</mgrwt>
</event>
<event>
 7    0  0.4737014E-002  0.4538881E+03  0.7546771E-02  0.1026569E+00
         21   -1    0    0  502  501  0.00000000000E+00  0.00000000000E+00  0.13402059581E+03  0.13402059581E+03  0.00000000000E+00 0. -1.
         21   -1    0    0  501  502 -0.00000000000E+00 -0.00000000000E+00 -0.38429610351E+03  0.38429610351E+03  0.00000000000E+00 0. -1.
      99926    2    1    2    0    0 -0.14210854715E-13  0.00000000000E+00 -0.25027550770E+03  0.51831669932E+03  0.45388806003E+03 0.  0.
      99925    2    3    3    0    0  0.74862492077E+02 -0.73775366342E+02 -0.20214922441E+03  0.34799099767E+03  0.26303275106E+03 0.  0.
         25    1    3    3    0    0 -0.74862492077E+02  0.73775366342E+02 -0.48126283295E+02  0.17032570165E+03  0.12509000000E+03 0.  0.
         25    1    4    4    0    0  0.72004190343E+02 -0.19893878627E+02 -0.87629304674E+02  0.17001991934E+03  0.12509000000E+03 0.  0.
         25    1    4    4    0    0  0.28583017336E+01 -0.53881487715E+02 -0.11451991974E+03  0.17797107833E+03  0.12509000000E+03 0.  0.
<mgrwt>
<rscale>  2 0.45388806E+03</rscale>
<asrwt>0</asrwt>
<pdfrwt beam="1">  1       21 0.19708911E-01 0.45388806E+03</pdfrwt>
<pdfrwt beam="2">  1       21 0.56514132E-01 0.45388806E+03</pdfrwt>
<totfact> 0.64569872E+04</totfact>
</mgrwt>
</event>
<event>
 7    0  0.4737014E-002  0.4565491E+03  0.7546771E-02  0.1025787E+00
         21   -1    0    0  502  501  0.00000000000E+00  0.00000000000E+00  0.24194397300E+03  0.24194397300E+03  0.00000000000E+00 0. -1.
         21   -1    0    0  501  502 -0.00000000000E+00 -0.00000000000E+00 -0.21537743692E+03  0.21537743692E+03  0.00000000000E+00 0. -1.
      99926    2    1    2    0    0  0.00000000000E+00  0.00000000000E+00  0.26566536078E+02  0.45732140992E+03  0.45654911142E+03 0.  0.
      99925    2    3    3    0    0 -0.34912583429E+02  0.45615237320E+02  0.11608068612E+03  0.29312661855E+03  0.26296169009E+03 0.  0.
         25    1    4    4    0    0  0.18197395260E+02  0.24868834271E+02  0.77496772791E+02  0.15034248237E+03  0.12509000000E+03 0.  0.
         25    1    3    3    0    0  0.34912583429E+02 -0.45615237320E+02 -0.89514150044E+02  0.16419479138E+03  0.12509000000E+03 0.  0.
         25    1    4    4    0    0 -0.53109978689E+02  0.20746403049E+02  0.38583913331E+02  0.14278413618E+03  0.12509000000E+03 0.  0.
<mgrwt>
<rscale>  2 0.45654911E+03</rscale>
<asrwt>0</asrwt>
<pdfrwt beam="1">  1       21 0.35579996E-01 0.45654911E+03</pdfrwt>
<pdfrwt beam="2">  1       21 0.31673152E-01 0.45654911E+03</pdfrwt>
<totfact> 0.67537458E+04</totfact>
</mgrwt>
</event>
<event>
 7    0  0.4737014E-002  0.4549066E+03  0.7546771E-02  0.1026269E+00
         21   -1    0    0  502  501  0.00000000000E+00  0.00000000000E+00  0.10220043997E+04  0.10220043997E+04  0.00000000000E+00 0.  1.
         21   -1    0    0  501  502 -0.00000000000E+00 -0.00000000000E+00 -0.50621124445E+02  0.50621124445E+02  0.00000000000E+00 0.  1.
      99926    2    1    2    0    0  0.00000000000E+00  0.00000000000E+00  0.97138327523E+03  0.10726255241E+04  0.45490663613E+03 0.  0.
      99925    2    3    3    0    0 -0.85628721108E+02  0.17287838060E+02  0.78064721954E+03  0.82837381325E+03  0.26298658878E+03 0.  0.
         25    1    3    3    0    0  0.85628721108E+02 -0.17287838060E+02  0.19073605569E+03  0.24425171087E+03  0.12509000000E+03 0.  0.
         25    1    4    4    0    0 -0.16627239481E+02  0.32466429623E+02  0.30948838263E+03  0.33579919778E+03  0.12509000000E+03 0.  0.
         25    1    4    4    0    0 -0.69001481628E+02 -0.15178591564E+02  0.47115883691E+03  0.49257461547E+03  0.12509000000E+03 0.  0.
<mgrwt>
<rscale>  2 0.45490664E+03</rscale>
<asrwt>0</asrwt>
<pdfrwt beam="1">  1       21 0.15029475E+00 0.45490664E+03</pdfrwt>
<pdfrwt beam="2">  1       21 0.74442836E-02 0.45490664E+03</pdfrwt>
<totfact> 0.36484570E+04</totfact>
</mgrwt>
</event>
<event>
 7    0  0.4737014E-002  0.4555177E+03  0.7546771E-02  0.1026089E+00
         21   -1    0    0  502  501  0.00000000000E+00  0.00000000000E+00  0.79862772750E+02  0.79862772750E+02  0.00000000000E+00 0.  1.
         21   -1    0    0  501  502 -0.00000000000E+00 -0.00000000000E+00 -0.64954049274E+03  0.64954049274E+03  0.00000000000E+00 0.  1.
      99926    2    1    2    0    0  0.14210854715E-13  0.17763568394E-14 -0.56967771999E+03  0.72940326549E+03  0.45551774834E+03 0.  0.
      99925    2    3    3    0    0 -0.10691575737E+03 -0.13159034567E+02 -0.29978567351E+03  0.41302791213E+03  0.26290010800E+03 0.  0.
         25    1    4    4    0    0 -0.64850073599E+02  0.14147192709E+02 -0.20125115273E+03  0.24607968157E+03  0.12509000000E+03 0.  0.
         25    1    4    4    0    0 -0.42065683771E+02 -0.27306227276E+02 -0.98534520782E+02  0.16694823055E+03  0.12509000000E+03 0.  0.
         25    1    3    3    0    0  0.10691575737E+03  0.13159034567E+02 -0.26989204648E+03  0.31637535337E+03  0.12509000000E+03 0.  0.
<mgrwt>
<rscale>  2 0.45551775E+03</rscale>
<asrwt>0</asrwt>
<pdfrwt beam="1">  1       21 0.11744526E-01 0.45551775E+03</pdfrwt>
<pdfrwt beam="2">  1       21 0.95520658E-01 0.45551775E+03</pdfrwt>
<totfact> 0.51127017E+04</totfact>
</mgrwt>
</event>
<event>
 7    0  0.4737014E-002  0.4567622E+03  0.7546771E-02  0.1025724E+00
         21   -1    0    0  502  501  0.00000000000E+00  0.00000000000E+00  0.51972753834E+03  0.51972753834E+03  0.00000000000E+00 0. -1.
         21   -1    0    0  501  502 -0.00000000000E+00 -0.00000000000E+00 -0.10035627226E+03  0.10035627226E+03  0.00000000000E+00 0. -1.
      99926    2    1    2    0    0  0.00000000000E+00  0.88817841970E-15  0.41937126608E+03  0.62008381060E+03  0.45676216279E+03 0.  0.
      99925    2    3    3    0    0  0.11427941597E+02 -0.71176188691E+01  0.10879031288E+03  0.28498786175E+03  0.26306176237E+03 0.  0.
         25    1    3    3    0    0 -0.11427941597E+02  0.71176188691E+01  0.31058095320E+03  0.33509594885E+03  0.12509000000E+03 0.  0.
         25    1    4    4    0    0  0.62248613903E+01 -0.16199522538E+01  0.10449702036E+02  0.12569040344E+03  0.12509000000E+03 0.  0.
         25    1    4    4    0    0  0.52030802069E+01 -0.54976666153E+01  0.98340610848E+02  0.15929745831E+03  0.12509000000E+03 0.  0.
<mgrwt>
<rscale>  2 0.45676216E+03</rscale>
<asrwt>0</asrwt>
<pdfrwt beam="1">  1       21 0.76430519E-01 0.45676216E+03</pdfrwt>
<pdfrwt beam="2">  1       21 0.14758276E-01 0.45676216E+03</pdfrwt>
<totfact> 0.56666140E+04</totfact>
</mgrwt>
</event>
<event>
 7    0  0.4737014E-002  0.4619602E+03  0.7546771E-02  0.1024214E+00
         21   -1    0    0  502  501  0.00000000000E+00  0.00000000000E+00  0.26559488253E+03  0.26559488253E+03  0.00000000000E+00 0. -1.
         21   -1    0    0  501  502 -0.00000000000E+00 -0.00000000000E+00 -0.20087663044E+03  0.20087663044E+03  0.00000000000E+00 0. -1.
      99926    2    1    2    0    0  0.00000000000E+00  0.00000000000E+00  0.64718252086E+02  0.46647151297E+03  0.46196019337E+03 0.  0.
      99925    2    3    3    0    0  0.19502202562E+02 -0.58535294885E+02 -0.62829204634E+02  0.27746733717E+03  0.26312335052E+03 0.  0.
         25    1    4    4    0    0  0.10482472757E+02 -0.12126756179E+02 -0.68702995058E+02  0.14361249974E+03  0.12509000000E+03 0.  0.
         25    1    3    3    0    0 -0.19502202562E+02  0.58535294885E+02  0.12754745672E+03  0.18900417579E+03  0.12509000000E+03 0.  0.
         25    1    4    4    0    0  0.90197298046E+01 -0.46408538706E+02  0.58737904242E+01  0.13385483743E+03  0.12509000000E+03 0.  0.
<mgrwt>
<rscale>  2 0.46196019E+03</rscale>
<asrwt>0</asrwt>
<pdfrwt beam="1">  1       21 0.39058071E-01 0.46196019E+03</pdfrwt>
<pdfrwt beam="2">  1       21 0.29540681E-01 0.46196019E+03</pdfrwt>
<totfact> 0.64080119E+04</totfact>
</mgrwt>
</event>
<event>
 7    0  0.4737014E-002  0.4472217E+03  0.7546771E-02  0.1028554E+00
         21   -1    0    0  502  501  0.00000000000E+00  0.00000000000E+00  0.16081124763E+03  0.16081124763E+03  0.00000000000E+00 0. -1.
         21   -1    0    0  501  502 -0.00000000000E+00 -0.00000000000E+00 -0.31093472656E+03  0.31093472656E+03  0.00000000000E+00 0. -1.
      99926    2    1    2    0    0  0.00000000000E+00  0.00000000000E+00 -0.15012347893E+03  0.47174597419E+03  0.44722165114E+03 0.  0.
      99925    2    3    3    0    0  0.85893604489E+02 -0.60271688479E+02 -0.98250883522E+02  0.30043146232E+03  0.26380947617E+03 0.  0.
         25    1    4    4    0    0  0.46476954562E+02 -0.68052043423E+02 -0.73026845360E+02  0.16664818080E+03  0.12509000000E+03 0.  0.
         25    1    3    3    0    0 -0.85893604489E+02  0.60271688479E+02 -0.51872595403E+02  0.17131451187E+03  0.12509000000E+03 0.  0.
         25    1    4    4    0    0  0.39416649927E+02  0.77803549441E+01 -0.25224038162E+02  0.13378328153E+03  0.12509000000E+03 0.  0.
<mgrwt>
<rscale>  2 0.44722165E+03</rscale>
<asrwt>0</asrwt>
<pdfrwt beam="1">  1       21 0.23648713E-01 0.44722165E+03</pdfrwt>
<pdfrwt beam="2">  1       21 0.45725695E-01 0.44722165E+03</pdfrwt>
<totfact> 0.71626530E+04</totfact>
</mgrwt>
</event>
<event>
 7    0  0.4737014E-002  0.4506205E+03  0.7546771E-02  0.1027537E+00
         21   -1    0    0  502  501  0.00000000000E+00  0.00000000000E+00  0.14367011412E+03  0.14367011412E+03  0.00000000000E+00 0. -1.
         21   -1    0    0  501  502 -0.00000000000E+00 -0.00000000000E+00 -0.35334218082E+03  0.35334218082E+03  0.00000000000E+00 0. -1.
      99926    2    1    2    0    0  0.00000000000E+00  0.00000000000E+00 -0.20967206670E+03  0.49701229494E+03  0.45062051193E+03 0.  0.
      99925    2    3    3    0    0  0.97911728425E+02  0.36853158074E+02 -0.16588673515E+03  0.32816465599E+03  0.26311360800E+03 0.  0.
         25    1    4    4    0    0  0.85077115710E+02  0.12882868456E+02 -0.11476904855E+03  0.19032479219E+03  0.12509000000E+03 0.  0.
         25    1    4    4    0    0  0.12834612715E+02  0.23970289618E+02 -0.51117686598E+02  0.13783986379E+03  0.12509000000E+03 0.  0.
         25    1    3    3    0    0 -0.97911728425E+02 -0.36853158074E+02 -0.43785331548E+02  0.16884763896E+03  0.12509000000E+03 0.  0.
<mgrwt>
<rscale>  2 0.45062051E+03</rscale>
<asrwt>0</asrwt>
<pdfrwt beam="1">  1       21 0.21127958E-01 0.45062051E+03</pdfrwt>
<pdfrwt beam="2">  1       21 0.51962085E-01 0.45062051E+03</pdfrwt>
<totfact> 0.67807915E+04</totfact>
</mgrwt>
</event>
<event>
 7    0  0.4737014E-002  0.4408739E+03  0.7546771E-02  0.1030479E+00
         21   -1    0    0  502  501  0.00000000000E+00  0.00000000000E+00  0.27614489668E+03  0.27614489668E+03  0.00000000000E+00 0. -1.
         21   -1    0    0  501  502 -0.00000000000E+00 -0.00000000000E+00 -0.17596725124E+03  0.17596725124E+03  0.00000000000E+00 0. -1.
      99926    2    1    2    0    0  0.00000000000E+00  0.00000000000E+00  0.10017764544E+03  0.45211214792E+03  0.44087394303E+03 0.  0.
      99925    2    3    3    0    0 -0.52881947271E+02 -0.70864634492E+02  0.17475256150E+02  0.27802742698E+03  0.26301248793E+03 0.  0.
         25    1    4    4    0    0 -0.26141935336E+02 -0.59982340988E+02 -0.23832926894E+02  0.14316703014E+03  0.12509000000E+03 0.  0.
         25    1    4    4    0    0 -0.26740011935E+02 -0.10882293504E+02  0.41308183044E+02  0.13486039684E+03  0.12509000000E+03 0.  0.
         25    1    3    3    0    0  0.52881947271E+02  0.70864634492E+02  0.82702389293E+02  0.17408472094E+03  0.12509000000E+03 0.  0.
<mgrwt>
<rscale>  2 0.44087394E+03</rscale>
<asrwt>0</asrwt>
<pdfrwt beam="1">  1       21 0.40609544E-01 0.44087394E+03</pdfrwt>
<pdfrwt beam="2">  1       21 0.25877537E-01 0.44087394E+03</pdfrwt>
<totfact> 0.77069718E+04</totfact>
</mgrwt>
</event>
<event>
 7    0  0.4737014E-002  0.4675325E+03  0.7546771E-02  0.1022619E+00
         21   -1    0    0  502  501  0.00000000000E+00  0.00000000000E+00  0.60652295818E+02  0.60652295818E+02  0.00000000000E+00 0. -1.
         21   -1    0    0  501  502 -0.00000000000E+00 -0.00000000000E+00 -0.90098255487E+03  0.90098255487E+03  0.00000000000E+00 0. -1.
      99926    2    1    2    0    0  0.00000000000E+00  0.00000000000E+00 -0.84033025905E+03  0.96163485068E+03  0.46753250344E+03 0.  0.
      99925    2    3    3    0    0  0.67699485256E+02  0.10107074913E+03 -0.57863385131E+03  0.64710180861E+03  0.26291652704E+03 0.  0.
         25    1    3    3    0    0 -0.67699485256E+02 -0.10107074913E+03 -0.26169640774E+03  0.31453304208E+03  0.12509000000E+03 0.  0.
         25    1    4    4    0    0  0.59590382320E+02  0.86585397975E+02 -0.31717061666E+03  0.35678109953E+03  0.12509000000E+03 0.  0.
         25    1    4    4    0    0  0.81091029359E+01  0.14485351154E+02 -0.26146323464E+03  0.29032070908E+03  0.12509000000E+03 0.  0.
<mgrwt>
<rscale>  2 0.46753250E+03</rscale>
<asrwt>0</asrwt>
<pdfrwt beam="1">  1       21 0.89194554E-02 0.46753250E+03</pdfrwt>
<pdfrwt beam="2">  1       21 0.13249743E+00 0.46753250E+03</pdfrwt>
<totfact> 0.36920314E+04</totfact>
</mgrwt>
</event>
<event>
 7    0  0.4737014E-002  0.4635226E+03  0.7546771E-02  0.1023764E+00
         21   -1    0    0  502  501  0.00000000000E+00  0.00000000000E+00  0.17866973821E+04  0.17866973821E+04  0.00000000000E+00 0. -1.
         21   -1    0    0  501  502 -0.00000000000E+00 -0.00000000000E+00 -0.30062899112E+02  0.30062899112E+02  0.00000000000E+00 0. -1.
      99926    2    1    2    0    0  0.00000000000E+00 -0.19984014443E-14  0.17566344829E+04  0.18167602812E+04  0.46352261278E+03 0.  0.
      99925    2    3    3    0    0 -0.45118950739E+02 -0.14148252780E+01  0.15369765804E+04  0.15599825102E+04  0.26307926897E+03 0.  0.
         25    1    4    4    0    0 -0.18486809596E+02  0.22073685304E+02  0.95943898162E+03  0.96798743652E+03  0.12509000000E+03 0.  0.
         25    1    4    4    0    0 -0.26632141143E+02 -0.23488510582E+02  0.57753759883E+03  0.59199507366E+03  0.12509000000E+03 0.  0.
         25    1    3    3    0    0  0.45118950739E+02  0.14148252780E+01  0.21965790250E+03  0.25677777099E+03  0.12509000000E+03 0.  0.
<mgrwt>
<rscale>  2 0.46352261E+03</rscale>
<asrwt>0</asrwt>
<pdfrwt beam="1">  1       21 0.26274954E+00 0.46352261E+03</pdfrwt>
<pdfrwt beam="2">  1       21 0.44210158E-02 0.46352261E+03</pdfrwt>
<totfact> 0.15863772E+04</totfact>
</mgrwt>
</event>
<event>
 7    0  0.4737014E-002  0.4597269E+03  0.7546771E-02  0.1024860E+00
         21   -1    0    0  502  501  0.00000000000E+00  0.00000000000E+00  0.12149542214E+04  0.12149542214E+04  0.00000000000E+00 0. -1.
         21   -1    0    0  501  502 -0.00000000000E+00 -0.00000000000E+00 -0.43489052735E+02  0.43489052735E+02  0.00000000000E+00 0. -1.
      99926    2    1    2    0    0  0.00000000000E+00  0.00000000000E+00  0.11714651687E+04  0.12584432741E+04  0.45972691113E+03 0.  0.
      99925    2    3    3    0    0 -0.87082597735E+02  0.45050793084E+02  0.55618269558E+03  0.62296472802E+03  0.26293137643E+03 0.  0.
         25    1    4    4    0    0 -0.41118653257E+02 -0.11986059784E+02  0.21706352061E+03  0.25416232875E+03  0.12509000000E+03 0.  0.
         25    1    3    3    0    0  0.87082597735E+02 -0.45050793084E+02  0.61528247309E+03  0.63547854612E+03  0.12509000000E+03 0.  0.
         25    1    4    4    0    0 -0.45963944478E+02  0.57036852868E+02  0.33911917497E+03  0.36880239927E+03  0.12509000000E+03 0.  0.
<mgrwt>
<rscale>  2 0.45972691E+03</rscale>
<asrwt>0</asrwt>
<pdfrwt beam="1">  1       21 0.17866972E+00 0.45972691E+03</pdfrwt>
<pdfrwt beam="2">  1       21 0.63954497E-02 0.45972691E+03</pdfrwt>
<totfact> 0.29254577E+04</totfact>
</mgrwt>
</event>
<event>
 7    0  0.4737014E-002  0.4434857E+03  0.7546771E-02  0.1029683E+00
         21   -1    0    0  502  501  0.00000000000E+00  0.00000000000E+00  0.64618377201E+02  0.64618377201E+02  0.00000000000E+00 0. -1.
         21   -1    0    0  501  502 -0.00000000000E+00 -0.00000000000E+00 -0.76092751283E+03  0.76092751283E+03  0.00000000000E+00 0. -1.
      99926    2    1    2    0    0  0.00000000000E+00  0.00000000000E+00 -0.69630913563E+03  0.82554589003E+03  0.44348574294E+03 0.  0.
      99925    2    3    3    0    0 -0.57560118514E+02  0.66111344483E+02 -0.54035570388E+03  0.60725054402E+03  0.26284036866E+03 0.  0.
         25    1    3    3    0    0  0.57560118514E+02 -0.66111344483E+02 -0.15595343175E+03  0.21829534601E+03  0.12509000000E+03 0.  0.
         25    1    4    4    0    0 -0.55490482754E+02  0.63614191021E+02 -0.26916154491E+03  0.30857965639E+03  0.12509000000E+03 0.  0.
         25    1    4    4    0    0 -0.20696357604E+01  0.24971534620E+01 -0.27119415896E+03  0.29867088764E+03  0.12509000000E+03 0.  0.
<mgrwt>
<rscale>  2 0.44348574E+03</rscale>
<asrwt>0</asrwt>
<pdfrwt beam="1">  1       21 0.95027030E-02 0.44348574E+03</pdfrwt>
<pdfrwt beam="2">  1       21 0.11190110E+00 0.44348574E+03</pdfrwt>
<totfact> 0.51008410E+04</totfact>
</mgrwt>
</event>
<event>
 7    0  0.4737014E-002  0.4572910E+03  0.7546771E-02  0.1025570E+00
         21   -1    0    0  502  501  0.00000000000E+00  0.00000000000E+00  0.49760344103E+02  0.49760344103E+02  0.00000000000E+00 0.  1.
         21   -1    0    0  501  502 -0.00000000000E+00 -0.00000000000E+00 -0.10506109149E+04  0.10506109149E+04  0.00000000000E+00 0.  1.
      99926    2    1    2    0    0  0.00000000000E+00  0.00000000000E+00 -0.10008505708E+04  0.11003712590E+04  0.45729098240E+03 0.  0.
      99925    2    3    3    0    0 -0.19905935022E+02  0.64943706084E+02 -0.85271533743E+03  0.89493151925E+03  0.26299248325E+03 0.  0.
         25    1    4    4    0    0  0.19848634779E+02  0.35185087980E+01 -0.39611381740E+03  0.41588461458E+03  0.12509000000E+03 0.  0.
         25    1    3    3    0    0  0.19905935022E+02 -0.64943706084E+02 -0.14813523339E+03  0.20543973978E+03  0.12509000000E+03 0.  0.
         25    1    4    4    0    0 -0.39754569801E+02  0.61425197286E+02 -0.45660152003E+03  0.47904690467E+03  0.12509000000E+03 0.  0.
<mgrwt>
<rscale>  2 0.45729098E+03</rscale>
<asrwt>0</asrwt>
<pdfrwt beam="1">  1       21 0.73176988E-02 0.45729098E+03</pdfrwt>
<pdfrwt beam="2">  1       21 0.15450158E+00 0.45729098E+03</pdfrwt>
<totfact> 0.34854273E+04</totfact>
</mgrwt>
</event>
<event>
 7    0  0.4737014E-002  0.4565911E+03  0.7546771E-02  0.1025775E+00
         21   -1    0    0  502  501  0.00000000000E+00  0.00000000000E+00  0.22873772709E+03  0.22873772709E+03  0.00000000000E+00 0. -1.
         21   -1    0    0  501  502 -0.00000000000E+00 -0.00000000000E+00 -0.22785419027E+03  0.22785419027E+03  0.00000000000E+00 0. -1.
      99926    2    1    2    0    0  0.00000000000E+00  0.00000000000E+00  0.88353682338E+00  0.45659191736E+03  0.45659106251E+03 0.  0.
      99925    2    3    3    0    0  0.48988087171E+02  0.77685031154E+02 -0.68075526068E+02  0.28677537751E+03  0.26300388429E+03 0.  0.
         25    1    4    4    0    0 -0.13236661074E+02  0.23686348343E+02 -0.42175769704E+02  0.13476852728E+03  0.12509000000E+03 0.  0.
         25    1    3    3    0    0 -0.48988087171E+02 -0.77685031154E+02  0.68959062892E+02  0.16981653985E+03  0.12509000000E+03 0.  0.
         25    1    4    4    0    0  0.62224748245E+02  0.53998682811E+02 -0.25899756364E+02  0.15200685024E+03  0.12509000000E+03 0.  0.
<mgrwt>
<rscale>  2 0.45659106E+03</rscale>
<asrwt>0</asrwt>
<pdfrwt beam="1">  1       21 0.33637901E-01 0.45659106E+03</pdfrwt>
<pdfrwt beam="2">  1       21 0.33507969E-01 0.45659106E+03</pdfrwt>
<totfact> 0.67567470E+04</totfact>
</mgrwt>
</event>
<event>
 7    0  0.4737014E-002  0.4540454E+03  0.7546771E-02  0.1026522E+00
         21   -1    0    0  502  501  0.00000000000E+00  0.00000000000E+00  0.10385331112E+03  0.10385331112E+03  0.00000000000E+00 0.  1.
         21   -1    0    0  501  502 -0.00000000000E+00 -0.00000000000E+00 -0.49627016628E+03  0.49627016628E+03  0.00000000000E+00 0.  1.
      99926    2    1    2    0    0  0.00000000000E+00  0.00000000000E+00 -0.39241685516E+03  0.60012347741E+03  0.45404537210E+03 0.  0.
      99925    2    3    3    0    0 -0.48144741555E+02 -0.27684528228E+02 -0.37606977761E+03  0.46228631156E+03  0.26305095892E+03 0.  0.
         25    1    4    4    0    0 -0.96046757647E+01 -0.15341129965E+02 -0.11924466363E+03  0.17376535319E+03  0.12509000000E+03 0.  0.
         25    1    3    3    0    0  0.48144741555E+02  0.27684528228E+02 -0.16347077548E+02  0.13783716584E+03  0.12509000000E+03 0.  0.
         25    1    4    4    0    0 -0.38540065790E+02 -0.12343398263E+02 -0.25682511398E+03  0.28852095837E+03  0.12509000000E+03 0.  0.
<mgrwt>
<rscale>  2 0.45404537E+03</rscale>
<asrwt>0</asrwt>
<pdfrwt beam="1">  1       21 0.15272545E-01 0.45404537E+03</pdfrwt>
<pdfrwt beam="2">  1       21 0.72980909E-01 0.45404537E+03</pdfrwt>
<totfact> 0.59115295E+04</totfact>
</mgrwt>
</event>
<event>
 7    0  0.4737014E-002  0.4725322E+03  0.7546771E-02  0.1021208E+00
         21   -1    0    0  502  501  0.00000000000E+00  0.00000000000E+00  0.91751494149E+03  0.91751494149E+03  0.00000000000E+00 0.  1.
         21   -1    0    0  501  502 -0.00000000000E+00 -0.00000000000E+00 -0.60840060770E+02  0.60840060770E+02  0.00000000000E+00 0.  1.
      99926    2    1    2    0    0  0.00000000000E+00 -0.17763568394E-14  0.85667488072E+03  0.97835500226E+03  0.47253217794E+03 0.  0.
      99925    2    3    3    0    0 -0.64219927451E+02  0.84260527718E+01  0.76176745875E+03  0.80850175886E+03  0.26304036843E+03 0.  0.
         25    1    4    4    0    0 -0.13250275613E+02 -0.11854900927E+02  0.26969579121E+03  0.29782450600E+03  0.12509000000E+03 0.  0.
         25    1    3    3    0    0  0.64219927451E+02 -0.84260527718E+01  0.94907421965E+02  0.16985324339E+03  0.12509000000E+03 0.  0.
         25    1    4    4    0    0 -0.50969651838E+02  0.20280953698E+02  0.49207166754E+03  0.51067725286E+03  0.12509000000E+03 0.  0.
<mgrwt>
<rscale>  2 0.47253218E+03</rscale>
<asrwt>0</asrwt>
<pdfrwt beam="1">  1       21 0.13492866E+00 0.47253218E+03</pdfrwt>
<pdfrwt beam="2">  1       21 0.89470683E-02 0.47253218E+03</pdfrwt>
<totfact> 0.34968677E+04</totfact>
</mgrwt>
</event>
<event>
 7    0  0.4737014E-002  0.4490161E+03  0.7546771E-02  0.1028016E+00
         21   -1    0    0  502  501  0.00000000000E+00  0.00000000000E+00  0.64058340754E+03  0.64058340754E+03  0.00000000000E+00 0.  1.
         21   -1    0    0  501  502 -0.00000000000E+00 -0.00000000000E+00 -0.78684325361E+02  0.78684325361E+02  0.00000000000E+00 0.  1.
      99926    2    1    2    0    0  0.00000000000E+00 -0.35527136788E-14  0.56189908218E+03  0.71926773291E+03  0.44901613895E+03 0.  0.
      99925    2    3    3    0    0 -0.90668772616E+02 -0.22929652890E+02  0.44048775199E+03  0.52144252089E+03  0.26291870917E+03 0.  0.
         25    1    4    4    0    0 -0.20394865850E+02 -0.43138019760E+02  0.19987108012E+03  0.24056765383E+03  0.12509000000E+03 0.  0.
         25    1    3    3    0    0  0.90668772616E+02  0.22929652890E+02  0.12141133020E+03  0.19782521202E+03  0.12509000000E+03 0.  0.
         25    1    4    4    0    0 -0.70273906766E+02  0.20208366871E+02  0.24061667187E+03  0.28087486706E+03  0.12509000000E+03 0.  0.
<mgrwt>
<rscale>  2 0.44901614E+03</rscale>
<asrwt>0</asrwt>
<pdfrwt beam="1">  1       21 0.94203440E-01 0.44901614E+03</pdfrwt>
<pdfrwt beam="2">  1       21 0.11571225E-01 0.44901614E+03</pdfrwt>
<totfact> 0.54384191E+04</totfact>
</mgrwt>
</event>
<event>
 7    0  0.4737014E-002  0.4575186E+03  0.7546771E-02  0.1025503E+00
         21   -1    0    0  502  501  0.00000000000E+00  0.00000000000E+00  0.80261937184E+02  0.80261937184E+02  0.00000000000E+00 0. -1.
         21   -1    0    0  501  502 -0.00000000000E+00 -0.00000000000E+00 -0.65200028993E+03  0.65200028993E+03  0.00000000000E+00 0. -1.
      99926    2    1    2    0    0 -0.71054273576E-14  0.00000000000E+00 -0.57173835274E+03  0.73226222711E+03  0.45751855182E+03 0.  0.
      99925    2    3    3    0    0 -0.47512580279E+02 -0.10217650187E+03 -0.31837482376E+03  0.42806152241E+03  0.26301455425E+03 0.  0.
         25    1    4    4    0    0 -0.64039200046E+02 -0.50786138369E+02 -0.15424981904E+03  0.21475745800E+03  0.12509000000E+03 0.  0.
         25    1    3    3    0    0  0.47512580279E+02  0.10217650187E+03 -0.25336352899E+03  0.30420070470E+03  0.12509000000E+03 0.  0.
         25    1    4    4    0    0  0.16526619767E+02 -0.51390363497E+02 -0.16412500472E+03  0.21330406441E+03  0.12509000000E+03 0.  0.
<mgrwt>
<rscale>  2 0.45751855E+03</rscale>
<asrwt>0</asrwt>
<pdfrwt beam="1">  1       21 0.11803226E-01 0.45751855E+03</pdfrwt>
<pdfrwt beam="2">  1       21 0.95882399E-01 0.45751855E+03</pdfrwt>
<totfact> 0.50184863E+04</totfact>
</mgrwt>
</event>
<event>
 7    0  0.4737014E-002  0.4680466E+03  0.7546771E-02  0.1022473E+00
         21   -1    0    0  502  501  0.00000000000E+00  0.00000000000E+00  0.77604881848E+03  0.77604881848E+03  0.00000000000E+00 0.  1.
         21   -1    0    0  501  502 -0.00000000000E+00 -0.00000000000E+00 -0.70571471060E+02  0.70571471060E+02  0.00000000000E+00 0.  1.
      99926    2    1    2    0    0 -0.14210854715E-13  0.00000000000E+00  0.70547734742E+03  0.84662028954E+03  0.46804660766E+03 0.  0.
      99925    2    3    3    0    0 -0.71448642387E+02  0.10083858263E+03  0.40550017419E+03  0.49890324825E+03  0.26306031932E+03 0.  0.
         25    1    4    4    0    0 -0.54281442776E+02  0.15759102319E+02  0.21423125174E+03  0.25443537816E+03  0.12509000000E+03 0.  0.
         25    1    4    4    0    0 -0.17167199610E+02  0.85079480308E+02  0.19126892244E+03  0.24446787009E+03  0.12509000000E+03 0.  0.
         25    1    3    3    0    0  0.71448642387E+02 -0.10083858263E+03  0.29997717323E+03  0.34771704129E+03  0.12509000000E+03 0.  0.
<mgrwt>
<rscale>  2 0.46804661E+03</rscale>
<asrwt>0</asrwt>
<pdfrwt beam="1">  1       21 0.11412482E+00 0.46804661E+03</pdfrwt>
<pdfrwt beam="2">  1       21 0.10378158E-01 0.46804661E+03</pdfrwt>
<totfact> 0.41208469E+04</totfact>
</mgrwt>
</event>
<event>
 7    0  0.4737014E-002  0.4319925E+03  0.7546771E-02  0.1033232E+00
         21   -1    0    0  502  501  0.00000000000E+00  0.00000000000E+00  0.11917233691E+03  0.11917233691E+03  0.00000000000E+00 0.  1.
         21   -1    0    0  501  502 -0.00000000000E+00 -0.00000000000E+00 -0.39148657968E+03  0.39148657968E+03  0.00000000000E+00 0.  1.
      99926    2    1    2    0    0  0.17763568394E-14  0.71054273576E-14 -0.27231424277E+03  0.51065891659E+03  0.43199245627E+03 0.  0.
      99925    2    3    3    0    0  0.50452600306E+01  0.63991962389E+02 -0.10063788711E+03  0.28875644906E+03  0.26292941383E+03 0.  0.
         25    1    4    4    0    0  0.24974516022E+02  0.32153129616E+02 -0.86377208189E+02  0.15737242576E+03  0.12509000000E+03 0.  0.
         25    1    4    4    0    0 -0.19929255991E+02  0.31838832773E+02 -0.14260678918E+02  0.13138402331E+03  0.12509000000E+03 0.  0.
         25    1    3    3    0    0 -0.50452600306E+01 -0.63991962389E+02 -0.17167635567E+03  0.22190246753E+03  0.12509000000E+03 0.  0.
<mgrwt>
<rscale>  2 0.43199246E+03</rscale>
<asrwt>0</asrwt>
<pdfrwt beam="1">  1       21 0.17525344E-01 0.43199246E+03</pdfrwt>
<pdfrwt beam="2">  1       21 0.57571554E-01 0.43199246E+03</pdfrwt>
<totfact> 0.77775673E+04</totfact>
</mgrwt>
</event>
<event>
 7    0  0.4737014E-002  0.4526496E+03  0.7546771E-02  0.1026935E+00
         21   -1    0    0  502  501  0.00000000000E+00  0.00000000000E+00  0.43279951160E+02  0.43279951160E+02  0.00000000000E+00 0. -1.
         21   -1    0    0  501  502 -0.00000000000E+00 -0.00000000000E+00 -0.11835254187E+04  0.11835254187E+04  0.00000000000E+00 0. -1.
      99926    2    1    2    0    0  0.14210854715E-13  0.00000000000E+00 -0.11402454676E+04  0.12268053699E+04  0.45264963192E+03 0.  0.
      99925    2    3    3    0    0  0.88459216812E+02  0.11530288244E+02 -0.54004160576E+03  0.60724894436E+03  0.26296076492E+03 0.  0.
         25    1    4    4    0    0  0.72711079648E+02 -0.87660780567E+01 -0.34389448002E+03  0.37319521261E+03  0.12509000000E+03 0.  0.
         25    1    3    3    0    0 -0.88459216812E+02 -0.11530288244E+02 -0.60020386182E+03  0.61955642554E+03  0.12509000000E+03 0.  0.
         25    1    4    4    0    0  0.15748137164E+02  0.20296366300E+02 -0.19614712575E+03  0.23405373175E+03  0.12509000000E+03 0.  0.
<mgrwt>
<rscale>  2 0.45264963E+03</rscale>
<asrwt>0</asrwt>
<pdfrwt beam="1">  1       21 0.63646984E-02 0.45264963E+03</pdfrwt>
<pdfrwt beam="2">  1       21 0.17404786E+00 0.45264963E+03</pdfrwt>
<totfact> 0.31896415E+04</totfact>
</mgrwt>
</event>
<event>
 7    0  0.4737014E-002  0.4887316E+03  0.7546771E-02  0.1016763E+00
         21   -1    0    0  502  501  0.00000000000E+00  0.00000000000E+00  0.40833779741E+02  0.40833779741E+02  0.00000000000E+00 0. -1.
         21   -1    0    0  501  502 -0.00000000000E+00 -0.00000000000E+00 -0.14623836064E+04  0.14623836064E+04  0.00000000000E+00 0. -1.
      99926    2    1    2    0    0  0.00000000000E+00  0.00000000000E+00 -0.14215498267E+04  0.15032173862E+04  0.48873162403E+03 0.  0.
      99925    2    3    3    0    0  0.10916552663E+03  0.75902233508E+02 -0.10273701115E+04  0.10688173203E+04  0.26306435892E+03 0.  0.
         25    1    4    4    0    0  0.50597537016E+02  0.37212400631E+02 -0.36105130677E+03  0.38723433181E+03  0.12509000000E+03 0.  0.
         25    1    4    4    0    0  0.58567989612E+02  0.38689832877E+02 -0.66631880469E+03  0.68158298846E+03  0.12509000000E+03 0.  0.
         25    1    3    3    0    0 -0.10916552663E+03 -0.75902233508E+02 -0.39417971523E+03  0.43440006590E+03  0.12509000000E+03 0.  0.
<mgrwt>
<rscale>  2 0.48873162E+03</rscale>
<asrwt>0</asrwt>
<pdfrwt beam="1">  1       21 0.60049676E-02 0.48873162E+03</pdfrwt>
<pdfrwt beam="2">  1       21 0.21505641E+00 0.48873162E+03</pdfrwt>
<totfact> 0.18389583E+04</totfact>
</mgrwt>
</event>
<event>
 7    0  0.4737014E-002  0.4570373E+03  0.7546771E-02  0.1025644E+00
         21   -1    0    0  502  501  0.00000000000E+00  0.00000000000E+00  0.56495226632E+02  0.56495226632E+02  0.00000000000E+00 0. -1.
         21   -1    0    0  501  502 -0.00000000000E+00 -0.00000000000E+00 -0.92433969363E+03  0.92433969363E+03  0.00000000000E+00 0. -1.
      99926    2    1    2    0    0 -0.14210854715E-13  0.17763568394E-14 -0.86784446700E+03  0.98083492027E+03  0.45703733098E+03 0.  0.
      99925    2    3    3    0    0  0.11404794640E+03 -0.14612891423E+02 -0.52858835404E+03  0.60141076585E+03  0.26280941874E+03 0.  0.
         25    1    3    3    0    0 -0.11404794640E+03  0.14612891423E+02 -0.33925611296E+03  0.37942415441E+03  0.12509000000E+03 0.  0.
         25    1    4    4    0    0  0.31332666932E+02 -0.18557318949E+02 -0.18273084787E+03  0.22441965370E+03  0.12509000000E+03 0.  0.
         25    1    4    4    0    0  0.82715279464E+02  0.39444275261E+01 -0.34585750617E+03  0.37699111215E+03  0.12509000000E+03 0.  0.
<mgrwt>
<rscale>  2 0.45703733E+03</rscale>
<asrwt>0</asrwt>
<pdfrwt beam="1">  1       21 0.83081219E-02 0.45703733E+03</pdfrwt>
<pdfrwt beam="2">  1       21 0.13593230E+00 0.45703733E+03</pdfrwt>
<totfact> 0.39287226E+04</totfact>
</mgrwt>
</event>
<event>
 7    0  0.4737014E-002  0.4525849E+03  0.7546771E-02  0.1026954E+00
         21   -1    0    0  502  501  0.00000000000E+00  0.00000000000E+00  0.67108535384E+02  0.67108535384E+02  0.00000000000E+00 0. -1.
         21   -1    0    0  501  502 -0.00000000000E+00 -0.00000000000E+00 -0.76306637919E+03  0.76306637919E+03  0.00000000000E+00 0. -1.
      99926    2    1    2    0    0 -0.71054273576E-14  0.17763568394E-14 -0.69595784381E+03  0.83017491458E+03  0.45258487429E+03 0.  0.
      99925    2    3    3    0    0  0.45152589890E+02 -0.13250684538E+02 -0.62306653294E+03  0.67794157948E+03  0.26301814329E+03 0.  0.
         25    1    4    4    0    0 -0.55111076036E+01  0.10050399436E+02 -0.23580901876E+03  0.26717931107E+03  0.12509000000E+03 0.  0.
         25    1    3    3    0    0 -0.45152589890E+02  0.13250684538E+02 -0.72891310864E+02  0.15223333509E+03  0.12509000000E+03 0.  0.
         25    1    4    4    0    0  0.50663697494E+02 -0.23301083974E+02 -0.38725751419E+03  0.41076226841E+03  0.12509000000E+03 0.  0.
<mgrwt>
<rscale>  2 0.45258487E+03</rscale>
<asrwt>0</asrwt>
<pdfrwt beam="1">  1       21 0.98689022E-02 0.45258487E+03</pdfrwt>
<pdfrwt beam="2">  1       21 0.11221565E+00 0.45258487E+03</pdfrwt>
<totfact> 0.47228258E+04</totfact>
</mgrwt>
</event>
<event>
 7    0  0.4737014E-002  0.4389934E+03  0.7546771E-02  0.1031056E+00
         21   -1    0    0  502  501  0.00000000000E+00  0.00000000000E+00  0.36339971743E+04  0.36339971743E+04  0.00000000000E+00 0.  1.
         21   -1    0    0  501  502 -0.00000000000E+00 -0.00000000000E+00 -0.13257795657E+02  0.13257795657E+02  0.00000000000E+00 0.  1.
      99926    2    1    2    0    0  0.00000000000E+00  0.00000000000E+00  0.36207393787E+04  0.36472549700E+04  0.43899335737E+03 0.  0.
      99925    2    3    3    0    0 -0.50960529755E+02 -0.82245222579E+02  0.22221349983E+04  0.22397383722E+04  0.26302618286E+03 0.  0.
         25    1    3    3    0    0  0.50960529755E+02  0.82245222579E+02  0.13986043803E+04  0.14075165978E+04  0.12509000000E+03 0.  0.
         25    1    4    4    0    0 -0.23835143962E+02 -0.83427529707E+02  0.12199330039E+04  0.12293950988E+04  0.12509000000E+03 0.  0.
         25    1    4    4    0    0 -0.27125385793E+02  0.11823071287E+01  0.10022019944E+04  0.10103432734E+04  0.12509000000E+03 0.  0.
<mgrwt>
<rscale>  2 0.43899336E+03</rscale>
<asrwt>0</asrwt>
<pdfrwt beam="1">  1       21 0.53441066E+00 0.43899336E+03</pdfrwt>
<pdfrwt beam="2">  1       21 0.19496783E-02 0.43899336E+03</pdfrwt>
<totfact> 0.10861411E+03</totfact>
</mgrwt>
</event>
<event>
 7    0  0.4737014E-002  0.4568350E+03  0.7546771E-02  0.1025703E+00
         21   -1    0    0  502  501  0.00000000000E+00  0.00000000000E+00  0.14004140540E+03  0.14004140540E+03  0.00000000000E+00 0. -1.
         21   -1    0    0  501  502 -0.00000000000E+00 -0.00000000000E+00 -0.37256519346E+03  0.37256519346E+03  0.00000000000E+00 0. -1.
      99926    2    1    2    0    0  0.00000000000E+00  0.00000000000E+00 -0.23252378806E+03  0.51260659886E+03  0.45683499558E+03 0.  0.
      99925    2    3    3    0    0 -0.85343428855E+02 -0.51151918345E+02 -0.21042830786E+03  0.35125066329E+03  0.26305310512E+03 0.  0.
         25    1    4    4    0    0 -0.68444702493E+02 -0.27986726628E+02 -0.15186152412E+03  0.21018412113E+03  0.12509000000E+03 0.  0.
         25    1    3    3    0    0  0.85343428855E+02  0.51151918345E+02 -0.22095480204E+02  0.16135593557E+03  0.12509000000E+03 0.  0.
         25    1    4    4    0    0 -0.16898726362E+02 -0.23165191717E+02 -0.58566783739E+02  0.14106654216E+03  0.12509000000E+03 0.  0.
<mgrwt>
<rscale>  2 0.45683500E+03</rscale>
<asrwt>0</asrwt>
<pdfrwt beam="1">  1       21 0.20594325E-01 0.45683500E+03</pdfrwt>
<pdfrwt beam="2">  1       21 0.54788998E-01 0.45683500E+03</pdfrwt>
<totfact> 0.63464533E+04</totfact>
</mgrwt>
</event>
<event>
 6    0  0.4737014E-002  0.4464529E+03  0.7546771E-02  0.1028785E+00
         21   -1    0    0  502  501  0.00000000000E+00  0.00000000000E+00  0.20065520725E+03  0.20065520725E+03  0.00000000000E+00 0.  1.
         21   -1    0    0  501  502 -0.00000000000E+00 -0.00000000000E+00 -0.24833672585E+03  0.24833672585E+03  0.00000000000E+00 0.  1.
      99926    2    1    2    0    0 -0.35527136788E-14  0.00000000000E+00 -0.47681518602E+02  0.44899193311E+03  0.44645294128E+03 0.  0.
         25    1    3    3    0    0 -0.21035631330E+02  0.17416893762E+02 -0.11665961608E+03  0.17321322149E+03  0.12509000000E+03 0.  0.
         25    1    3    3    0    0 -0.25026125629E+02 -0.24216928158E+02  0.56873878945E+02  0.14175652641E+03  0.12509000000E+03 0.  0.
         25    1    3    3    0    0  0.46061756960E+02  0.68000343957E+01  0.12104218533E+02  0.13402218521E+03  0.12509000000E+03 0.  0.
<mgrwt>
<rscale>  2 0.44645294E+03</rscale>
<asrwt>0</asrwt>
<pdfrwt beam="1">  1       21 0.29508119E-01 0.44645294E+03</pdfrwt>
<pdfrwt beam="2">  1       21 0.36520107E-01 0.44645294E+03</pdfrwt>
<totfact> 0.73900515E+04</totfact>
</mgrwt>
</event>
<event>
 7    0  0.4737014E-002  0.4561394E+03  0.7546771E-02  0.1025907E+00
         21   -1    0    0  502  501  0.00000000000E+00  0.00000000000E+00  0.95963818082E+02  0.95963818082E+02  0.00000000000E+00 0.  1.
         21   -1    0    0  501  502 -0.00000000000E+00 -0.00000000000E+00 -0.54203539626E+03  0.54203539626E+03  0.00000000000E+00 0.  1.
      99926    2    1    2    0    0  0.00000000000E+00  0.00000000000E+00 -0.44607157817E+03  0.63799921434E+03  0.45613939168E+03 0.  0.
      99925    2    3    3    0    0  0.86778796550E+02  0.72893841662E+02 -0.27435359963E+03  0.39721166495E+03  0.26393775301E+03 0.  0.
         25    1    3    3    0    0 -0.86778796550E+02 -0.72893841662E+02 -0.17171797855E+03  0.24078754939E+03  0.12509000000E+03 0.  0.
         25    1    4    4    0    0  0.45519808597E+02  0.46145974625E+01 -0.16932820988E+03  0.21543652950E+03  0.12509000000E+03 0.  0.
         25    1    4    4    0    0  0.41258987952E+02  0.68279244200E+02 -0.10502538975E+03  0.18177513545E+03  0.12509000000E+03 0.  0.
<mgrwt>
<rscale>  2 0.45613939E+03</rscale>
<asrwt>0</asrwt>
<pdfrwt beam="1">  1       21 0.14112326E-01 0.45613939E+03</pdfrwt>
<pdfrwt beam="2">  1       21 0.79711088E-01 0.45613939E+03</pdfrwt>
<totfact> 0.55893895E+04</totfact>
</mgrwt>
</event>
<event>
 6    0  0.4737014E-002  0.4585264E+03  0.7546771E-02  0.1025209E+00
         21   -1    0    0  502  501  0.00000000000E+00  0.00000000000E+00  0.69382992963E+02  0.69382992963E+02  0.00000000000E+00 0.  1.
         21   -1    0    0  501  502 -0.00000000000E+00 -0.00000000000E+00 -0.75755769949E+03  0.75755769949E+03  0.00000000000E+00 0.  1.
      99926    2    1    2    0    0  0.14210854715E-13  0.00000000000E+00 -0.68817470653E+03  0.82694069246E+03  0.45852642468E+03 0.  0.
         25    1    3    3    0    0 -0.17132118714E+02  0.31472759339E+01 -0.19198684718E+03  0.22980398697E+03  0.12509000000E+03 0.  0.
         25    1    3    3    0    0 -0.71510522989E+02 -0.12972901918E+02 -0.11070320924E+03  0.18216684583E+03  0.12509000000E+03 0.  0.
         25    1    3    3    0    0  0.88642641703E+02  0.98256259846E+01 -0.38548465011E+03  0.41496985966E+03  0.12509000000E+03 0.  0.
<mgrwt>
<rscale>  2 0.45852642E+03</rscale>
<asrwt>0</asrwt>
<pdfrwt beam="1">  1       21 0.10203381E-01 0.45852642E+03</pdfrwt>
<pdfrwt beam="2">  1       21 0.11140555E+00 0.45852642E+03</pdfrwt>
<totfact> 0.45224786E+04</totfact>
</mgrwt>
</event>
<event>
 7    0  0.4737014E-002  0.4632362E+03  0.7546771E-02  0.1023847E+00
         21   -1    0    0  502  501  0.00000000000E+00  0.00000000000E+00  0.87219560689E+02  0.87219560689E+02  0.00000000000E+00 0.  1.
         21   -1    0    0  501  502 -0.00000000000E+00 -0.00000000000E+00 -0.61507914743E+03  0.61507914743E+03  0.00000000000E+00 0.  1.
      99926    2    1    2    0    0  0.00000000000E+00  0.13322676296E-14 -0.52785958674E+03  0.70229870812E+03  0.46323615156E+03 0.  0.
      99925    2    3    3    0    0  0.32970411816E+02 -0.20215570257E+01 -0.50582079204E+03  0.57105713193E+03  0.26298372483E+03 0.  0.
         25    1    4    4    0    0  0.41763653981E+02  0.27799226296E+02 -0.22941467026E+03  0.26607442344E+03  0.12509000000E+03 0.  0.
         25    1    4    4    0    0 -0.87932421647E+01 -0.29820783321E+02 -0.27640612178E+03  0.30498270850E+03  0.12509000000E+03 0.  0.
         25    1    3    3    0    0 -0.32970411816E+02  0.20215570257E+01 -0.22038794705E+02  0.13124157619E+03  0.12509000000E+03 0.  0.
<mgrwt>
<rscale>  2 0.46323615E+03</rscale>
<asrwt>0</asrwt>
<pdfrwt beam="1">  1       21 0.12826405E-01 0.46323615E+03</pdfrwt>
<pdfrwt beam="2">  1       21 0.90452820E-01 0.46323615E+03</pdfrwt>
<totfact> 0.49491677E+04</totfact>
</mgrwt>
</event>
<event>
 7    0  0.4737014E-002  0.4186370E+03  0.7546771E-02  0.1037511E+00
         21   -1    0    0  502  501  0.00000000000E+00  0.00000000000E+00  0.58287871294E+02  0.58287871294E+02  0.00000000000E+00 0. -1.
         21   -1    0    0  501  502 -0.00000000000E+00 -0.00000000000E+00 -0.75168696011E+03  0.75168696011E+03  0.00000000000E+00 0. -1.
      99926    2    1    2    0    0 -0.71054273576E-14  0.00000000000E+00 -0.69339908881E+03  0.80997483140E+03  0.41863699208E+03 0.  0.
      99925    2    3    3    0    0  0.41884543922E+02 -0.38201536379E+02 -0.54498138014E+03  0.60776455286E+03  0.26298170014E+03 0.  0.
         25    1    3    3    0    0 -0.41884543922E+02  0.38201536379E+02 -0.14841770867E+03  0.20221027854E+03  0.12509000000E+03 0.  0.
         25    1    4    4    0    0  0.45215866380E+01  0.64567490129E+01 -0.32214910910E+03  0.34567280910E+03  0.12509000000E+03 0.  0.
         25    1    4    4    0    0  0.37362957284E+02 -0.44658285392E+02 -0.22283227104E+03  0.26209174376E+03  0.12509000000E+03 0.  0.
<mgrwt>
<rscale>  2 0.41863699E+03</rscale>
<asrwt>0</asrwt>
<pdfrwt beam="1">  1       21 0.85717465E-02 0.41863699E+03</pdfrwt>
<pdfrwt beam="2">  1       21 0.11054219E+00 0.41863699E+03</pdfrwt>
<totfact> 0.63575898E+04</totfact>
</mgrwt>
</event>
<event>
 7    0  0.4737014E-002  0.4494014E+03  0.7546771E-02  0.1027901E+00
         21   -1    0    0  502  501  0.00000000000E+00  0.00000000000E+00  0.66381883871E+02  0.66381883871E+02  0.00000000000E+00 0. -1.
         21   -1    0    0  501  502 -0.00000000000E+00 -0.00000000000E+00 -0.76060511005E+03  0.76060511005E+03  0.00000000000E+00 0. -1.
      99926    2    1    2    0    0 -0.35527136788E-14 -0.14210854715E-13 -0.69422322618E+03  0.82698699392E+03  0.44940138000E+03 0.  0.
      99925    2    3    3    0    0  0.30702674584E+02  0.75247726711E+02 -0.30891402582E+03  0.41380959548E+03  0.26306963215E+03 0.  0.
         25    1    4    4    0    0  0.32378414345E+02  0.16228733045E+02 -0.19565785878E+03  0.23503454915E+03  0.12509000000E+03 0.  0.
         25    1    4    4    0    0 -0.16757397611E+01  0.59018993666E+02 -0.11325616704E+03  0.17877504633E+03  0.12509000000E+03 0.  0.
         25    1    3    3    0    0 -0.30702674584E+02 -0.75247726711E+02 -0.38530920036E+03  0.41317739844E+03  0.12509000000E+03 0.  0.
<mgrwt>
<rscale>  2 0.44940138E+03</rscale>
<asrwt>0</asrwt>
<pdfrwt beam="1">  1       21 0.97620415E-02 0.44940138E+03</pdfrwt>
<pdfrwt beam="2">  1       21 0.11185370E+00 0.44940138E+03</pdfrwt>
<totfact> 0.48586425E+04</totfact>
</mgrwt>
</event>
<event>
 7    0  0.4737014E-002  0.4597705E+03  0.7546771E-02  0.1024848E+00
         21   -1    0    0  502  501  0.00000000000E+00  0.00000000000E+00  0.92314580084E+02  0.92314580084E+02  0.00000000000E+00 0. -1.
         21   -1    0    0  501  502 -0.00000000000E+00 -0.00000000000E+00 -0.57246884213E+03  0.57246884213E+03  0.00000000000E+00 0. -1.
      99926    2    1    2    0    0 -0.26645352591E-14 -0.14210854715E-13 -0.48015426205E+03  0.66478342222E+03  0.45977046783E+03 0.  0.
      99925    2    3    3    0    0 -0.47259513760E+01 -0.10948449599E+03 -0.36240563669E+03  0.46101532768E+03  0.26303630428E+03 0.  0.
         25    1    4    4    0    0 -0.30730913659E+02 -0.25278658830E+02 -0.15168456826E+03  0.20059689927E+03  0.12509000000E+03 0.  0.
         25    1    4    4    0    0  0.26004962283E+02 -0.84205837162E+02 -0.21072106843E+03  0.26041842841E+03  0.12509000000E+03 0.  0.
         25    1    3    3    0    0  0.47259513760E+01  0.10948449599E+03 -0.11774862536E+03  0.20376809454E+03  0.12509000000E+03 0.  0.
<mgrwt>
<rscale>  2 0.45977047E+03</rscale>
<asrwt>0</asrwt>
<pdfrwt beam="1">  1       21 0.13575673E-01 0.45977047E+03</pdfrwt>
<pdfrwt beam="2">  1       21 0.84186595E-01 0.45977047E+03</pdfrwt>
<totfact> 0.52841057E+04</totfact>
</mgrwt>
</event>
<event>
 7    0  0.4737014E-002  0.4227346E+03  0.7546771E-02  0.1036180E+00
         21   -1    0    0  502  501  0.00000000000E+00  0.00000000000E+00  0.51556797102E+02  0.51556797102E+02  0.00000000000E+00 0.  1.
         21   -1    0    0  501  502 -0.00000000000E+00 -0.00000000000E+00 -0.86654216424E+03  0.86654216424E+03  0.00000000000E+00 0.  1.
      99926    2    1    2    0    0  0.17763568394E-14  0.00000000000E+00 -0.81498536714E+03  0.91809896134E+03  0.42273461435E+03 0.  0.
      99925    2    3    3    0    0 -0.13586866573E+02 -0.63029044700E+01 -0.36030867259E+03  0.44629101926E+03  0.26292395247E+03 0.  0.
         25    1    4    4    0    0  0.16376879524E+02  0.16190820349E+02 -0.22356313197E+03  0.25721261035E+03  0.12509000000E+03 0.  0.
         25    1    4    4    0    0 -0.29963746097E+02 -0.22493724819E+02 -0.13674554062E+03  0.18907840891E+03  0.12509000000E+03 0.  0.
         25    1    3    3    0    0  0.13586866573E+02  0.63029044700E+01 -0.45467669454E+03  0.47180794208E+03  0.12509000000E+03 0.  0.
<mgrwt>
<rscale>  2 0.42273461E+03</rscale>
<asrwt>0</asrwt>
<pdfrwt beam="1">  1       21 0.75818824E-02 0.42273461E+03</pdfrwt>
<pdfrwt beam="2">  1       21 0.12743266E+00 0.42273461E+03</pdfrwt>
<totfact> 0.55109750E+04</totfact>
</mgrwt>
</event>
<event>
 7    0  0.4737014E-002  0.4527855E+03  0.7546771E-02  0.1026895E+00
         21   -1    0    0  502  501  0.00000000000E+00  0.00000000000E+00  0.72249204089E+02  0.72249204089E+02  0.00000000000E+00 0.  1.
         21   -1    0    0  501  502 -0.00000000000E+00 -0.00000000000E+00 -0.70940135715E+03  0.70940135715E+03  0.00000000000E+00 0.  1.
      99926    2    1    2    0    0 -0.17763568394E-14  0.00000000000E+00 -0.63715215307E+03  0.78165056124E+03  0.45278552731E+03 0.  0.
      99925    2    3    3    0    0  0.86032210446E+01 -0.97873801986E+02 -0.49096756128E+03  0.56561644472E+03  0.26309602768E+03 0.  0.
         25    1    3    3    0    0 -0.86032210446E+01  0.97873801986E+02 -0.14618459179E+03  0.21603411653E+03  0.12509000000E+03 0.  0.
         25    1    4    4    0    0 -0.34458462312E+02 -0.49463434494E+02 -0.26886419486E+03  0.30260449493E+03  0.12509000000E+03 0.  0.
         25    1    4    4    0    0  0.43061683356E+02 -0.48410367493E+02 -0.22210336642E+03  0.26301194978E+03  0.12509000000E+03 0.  0.
<mgrwt>
<rscale>  2 0.45278553E+03</rscale>
<asrwt>0</asrwt>
<pdfrwt beam="1">  1       21 0.10624882E-01 0.45278553E+03</pdfrwt>
<pdfrwt beam="2">  1       21 0.10432374E+00 0.45278553E+03</pdfrwt>
<totfact> 0.49520341E+04</totfact>
</mgrwt>
</event>
<event>
 7    0  0.4737014E-002  0.4541011E+03  0.7546771E-02  0.1026506E+00
         21   -1    0    0  502  501  0.00000000000E+00  0.00000000000E+00  0.36644579738E+02  0.36644579738E+02  0.00000000000E+00 0.  1.
         21   -1    0    0  501  502 -0.00000000000E+00 -0.00000000000E+00 -0.14068100249E+04  0.14068100249E+04  0.00000000000E+00 0.  1.
      99926    2    1    2    0    0  0.00000000000E+00  0.00000000000E+00 -0.13701654452E+04  0.14434546047E+04  0.45410114351E+03 0.  0.
      99925    2    3    3    0    0 -0.62437526613E+02  0.82632120400E+02 -0.10018886998E+04  0.10409601558E+04  0.26285084588E+03 0.  0.
         25    1    3    3    0    0  0.62437526613E+02 -0.82632120400E+02 -0.36827674540E+03  0.40249444884E+03  0.12509000000E+03 0.  0.
         25    1    4    4    0    0 -0.58454175358E+02  0.16503304227E+02 -0.55701008816E+03  0.57410538760E+03  0.12509000000E+03 0.  0.
         25    1    4    4    0    0 -0.39833512544E+01  0.66128816173E+02 -0.44487861163E+03  0.46685476821E+03  0.12509000000E+03 0.  0.
<mgrwt>
<rscale>  2 0.45410114E+03</rscale>
<asrwt>0</asrwt>
<pdfrwt beam="1">  1       21 0.53889071E-02 0.45410114E+03</pdfrwt>
<pdfrwt beam="2">  1       21 0.20688389E+00 0.45410114E+03</pdfrwt>
<totfact> 0.25373411E+04</totfact>
</mgrwt>
</event>
<event>
 7    0  0.4737014E-002  0.4083534E+03  0.7546771E-02  0.1040925E+00
         21   -1    0    0  502  501  0.00000000000E+00  0.00000000000E+00  0.93986935131E+02  0.93986935131E+02  0.00000000000E+00 0. -1.
         21   -1    0    0  501  502 -0.00000000000E+00 -0.00000000000E+00 -0.44355231753E+03  0.44355231753E+03  0.00000000000E+00 0. -1.
      99926    2    1    2    0    0  0.00000000000E+00  0.00000000000E+00 -0.34956538240E+03  0.53753925266E+03  0.40835339056E+03 0.  0.
      99925    2    3    3    0    0 -0.57099478019E+02 -0.14278363580E+02 -0.21597090938E+03  0.34529146106E+03  0.26290404585E+03 0.  0.
         25    1    3    3    0    0  0.57099478019E+02  0.14278363580E+02 -0.13359447302E+03  0.19224779160E+03  0.12509000000E+03 0.  0.
         25    1    4    4    0    0 -0.39771166161E+02 -0.44216560757E+02 -0.12718184264E+03  0.18804142921E+03  0.12509000000E+03 0.  0.
         25    1    4    4    0    0 -0.17328311858E+02  0.29938197176E+02 -0.88789066743E+02  0.15725003184E+03  0.12509000000E+03 0.  0.
<mgrwt>
<rscale>  2 0.40835339E+03</rscale>
<asrwt>0</asrwt>
<pdfrwt beam="1">  1       21 0.13821608E-01 0.40835339E+03</pdfrwt>
<pdfrwt beam="2">  1       21 0.65228281E-01 0.40835339E+03</pdfrwt>
<totfact> 0.92356934E+04</totfact>
</mgrwt>
</event>
<event>
 6    0  0.4737014E-002  0.4848200E+03  0.7546771E-02  0.1017819E+00
         21   -1    0    0  502  501  0.00000000000E+00  0.00000000000E+00  0.10931119837E+03  0.10931119837E+03  0.00000000000E+00 0. -1.
         21   -1    0    0  501  502 -0.00000000000E+00 -0.00000000000E+00 -0.53757178400E+03  0.53757178400E+03  0.00000000000E+00 0. -1.
      99926    2    1    2    0    0  0.00000000000E+00  0.14210854715E-13 -0.42826058563E+03  0.64688298236E+03  0.48482003224E+03 0.  0.
         25    1    3    3    0    0  0.75242758586E+02 -0.40720656119E+02 -0.16688434807E+03  0.22542745682E+03  0.12509000000E+03 0.  0.
         25    1    3    3    0    0  0.29702167014E+02 -0.54800600602E+02 -0.90237197402E+02  0.16635980418E+03  0.12509000000E+03 0.  0.
         25    1    3    3    0    0 -0.10494492560E+03  0.95521256721E+02 -0.17113904015E+03  0.25509572137E+03  0.12509000000E+03 0.  0.
<mgrwt>
<rscale>  2 0.48482003E+03</rscale>
<asrwt>0</asrwt>
<pdfrwt beam="1">  1       21 0.16075176E-01 0.48482003E+03</pdfrwt>
<pdfrwt beam="2">  1       21 0.79054674E-01 0.48482003E+03</pdfrwt>
<totfact> 0.44458234E+04</totfact>
</mgrwt>
</event>
<event>
 7    0  0.4737014E-002  0.4546009E+03  0.7546771E-02  0.1026359E+00
         21   -1    0    0  502  501  0.00000000000E+00  0.00000000000E+00  0.45159033308E+03  0.45159033308E+03  0.00000000000E+00 0. -1.
         21   -1    0    0  501  502 -0.00000000000E+00 -0.00000000000E+00 -0.11440787835E+03  0.11440787835E+03  0.00000000000E+00 0. -1.
      99926    2    1    2    0    0  0.00000000000E+00  0.00000000000E+00  0.33718245472E+03  0.56599821143E+03  0.45460088822E+03 0.  0.
      99925    2    3    3    0    0  0.68051315374E+02  0.84349562436E+02  0.25122767401E+03  0.37950005424E+03  0.26298120992E+03 0.  0.
         25    1    4    4    0    0  0.22661361872E+02  0.63854835775E+00  0.11731774400E+03  0.17298816787E+03  0.12509000000E+03 0.  0.
         25    1    3    3    0    0 -0.68051315374E+02 -0.84349562436E+02  0.85954780716E+02  0.18649815719E+03  0.12509000000E+03 0.  0.
         25    1    4    4    0    0  0.45389953502E+02  0.83711014078E+02  0.13390993000E+03  0.20651188637E+03  0.12509000000E+03 0.  0.
<mgrwt>
<rscale>  2 0.45460089E+03</rscale>
<asrwt>0</asrwt>
<pdfrwt beam="1">  1       21 0.66410342E-01 0.45460089E+03</pdfrwt>
<pdfrwt beam="2">  1       21 0.16824688E-01 0.45460089E+03</pdfrwt>
<totfact> 0.61013912E+04</totfact>
</mgrwt>
</event>
<event>
 7    0  0.4737014E-002  0.4490970E+03  0.7546771E-02  0.1027992E+00
         21   -1    0    0  502  501  0.00000000000E+00  0.00000000000E+00  0.29336902127E+03  0.29336902127E+03  0.00000000000E+00 0. -1.
         21   -1    0    0  501  502 -0.00000000000E+00 -0.00000000000E+00 -0.17187235497E+03  0.17187235497E+03  0.00000000000E+00 0. -1.
      99926    2    1    2    0    0  0.00000000000E+00  0.00000000000E+00  0.12149666629E+03  0.46524137624E+03  0.44909698089E+03 0.  0.
      99925    2    3    3    0    0  0.68724226327E+02  0.79502890150E+02  0.10019372912E+03  0.30048382085E+03  0.26307416143E+03 0.  0.
         25    1    4    4    0    0  0.25967085962E+02 -0.23114424599E+01  0.47866708466E+02  0.13644911945E+03  0.12509000000E+03 0.  0.
         25    1    3    3    0    0 -0.68724226327E+02 -0.79502890150E+02  0.21302937174E+02  0.16475755539E+03  0.12509000000E+03 0.  0.
         25    1    4    4    0    0  0.42757140365E+02  0.81814332610E+02  0.52327020653E+02  0.16403470140E+03  0.12509000000E+03 0.  0.
<mgrwt>
<rscale>  2 0.44909698E+03</rscale>
<asrwt>0</asrwt>
<pdfrwt beam="1">  1       21 0.43142503E-01 0.44909698E+03</pdfrwt>
<pdfrwt beam="2">  1       21 0.25275346E-01 0.44909698E+03</pdfrwt>
<totfact> 0.71061104E+04</totfact>
</mgrwt>
</event>
<event>
 7    0  0.4737014E-002  0.4475270E+03  0.7546771E-02  0.1028462E+00
         21   -1    0    0  502  501  0.00000000000E+00  0.00000000000E+00  0.24014779817E+03  0.24014779817E+03  0.00000000000E+00 0.  1.
         21   -1    0    0  501  502 -0.00000000000E+00 -0.00000000000E+00 -0.20849704258E+03  0.20849704258E+03  0.00000000000E+00 0.  1.
      99926    2    1    2    0    0  0.00000000000E+00  0.00000000000E+00  0.31650755596E+02  0.44864484075E+03  0.44752700790E+03 0.  0.
      99925    2    3    3    0    0  0.90001240080E+02  0.55128451700E+02  0.29449655958E+02  0.28496306918E+03  0.26305379518E+03 0.  0.
         25    1    4    4    0    0  0.13509460552E+02 -0.22819866572E+01  0.86872880470E+01  0.12613758386E+03  0.12509000000E+03 0.  0.
         25    1    3    3    0    0 -0.90001240080E+02 -0.55128451700E+02  0.22010996378E+01  0.16368177156E+03  0.12509000000E+03 0.  0.
         25    1    4    4    0    0  0.76491779528E+02  0.57410438357E+02  0.20762367911E+02  0.15882548533E+03  0.12509000000E+03 0.  0.
<mgrwt>
<rscale>  2 0.44752701E+03</rscale>
<asrwt>0</asrwt>
<pdfrwt beam="1">  1       21 0.35315853E-01 0.44752701E+03</pdfrwt>
<pdfrwt beam="2">  1       21 0.30661330E-01 0.44752701E+03</pdfrwt>
<totfact> 0.73287179E+04</totfact>
</mgrwt>
</event>
<event>
 7    0  0.4737014E-002  0.4376545E+03  0.7546771E-02  0.1031469E+00
         21   -1    0    0  502  501  0.00000000000E+00  0.00000000000E+00  0.34043893600E+02  0.34043893600E+02  0.00000000000E+00 0.  1.
         21   -1    0    0  501  502 -0.00000000000E+00 -0.00000000000E+00 -0.14065774476E+04  0.14065774476E+04  0.00000000000E+00 0.  1.
      99926    2    1    2    0    0  0.00000000000E+00 -0.35527136788E-14 -0.13725335540E+04  0.14406213412E+04  0.43765453484E+03 0.  0.
      99925    2    3    3    0    0 -0.45751690805E+02 -0.23310176845E+02 -0.61103197366E+03  0.66720764432E+03  0.26300073432E+03 0.  0.
         25    1    4    4    0    0 -0.42532126063E+02 -0.72744523046E+01 -0.22433456647E+03  0.26045230891E+03  0.12509000000E+03 0.  0.
         25    1    3    3    0    0  0.45751690805E+02  0.23310176845E+02 -0.76150158031E+03  0.77341369685E+03  0.12509000000E+03 0.  0.
         25    1    4    4    0    0 -0.32195647415E+01 -0.16035724541E+02 -0.38669740719E+03  0.40675533541E+03  0.12509000000E+03 0.  0.
<mgrwt>
<rscale>  2 0.43765453E+03</rscale>
<asrwt>0</asrwt>
<pdfrwt beam="1">  1       21 0.50064543E-02 0.43765453E+03</pdfrwt>
<pdfrwt beam="2">  1       21 0.20684965E+00 0.43765453E+03</pdfrwt>
<totfact> 0.28983186E+04</totfact>
</mgrwt>
</event>
<event>
 7    0  0.4737014E-002  0.4560278E+03  0.7546771E-02  0.1025940E+00
         21   -1    0    0  502  501  0.00000000000E+00  0.00000000000E+00  0.14448606861E+04  0.14448606861E+04  0.00000000000E+00 0.  1.
         21   -1    0    0  501  502 -0.00000000000E+00 -0.00000000000E+00 -0.35982944502E+02  0.35982944502E+02  0.00000000000E+00 0.  1.
      99926    2    1    2    0    0  0.00000000000E+00  0.00000000000E+00  0.14088777416E+04  0.14808436306E+04  0.45602781442E+03 0.  0.
      99925    2    3    3    0    0  0.88361756546E+02  0.69891247612E+02  0.94342853731E+03  0.98588599971E+03  0.26309924533E+03 0.  0.
         25    1    4    4    0    0  0.77912496785E+02  0.31211494801E+02  0.41891888613E+03  0.44517980167E+03  0.12509000000E+03 0.  0.
         25    1    3    3    0    0 -0.88361756546E+02 -0.69891247612E+02  0.46544920431E+03  0.49495763092E+03  0.12509000000E+03 0.  0.
         25    1    4    4    0    0  0.10449259761E+02  0.38679752810E+02  0.52450965119E+03  0.54070619804E+03  0.12509000000E+03 0.  0.
<mgrwt>
<rscale>  2 0.45602781E+03</rscale>
<asrwt>0</asrwt>
<pdfrwt beam="1">  1       21 0.21247947E+00 0.45602781E+03</pdfrwt>
<pdfrwt beam="2">  1       21 0.52916104E-02 0.45602781E+03</pdfrwt>
<totfact> 0.24059886E+04</totfact>
</mgrwt>
</event>
<event>
 7    0  0.4737014E-002  0.4513070E+03  0.7546771E-02  0.1027333E+00
         21   -1    0    0  502  501  0.00000000000E+00  0.00000000000E+00  0.32244047100E+03  0.32244047100E+03  0.00000000000E+00 0.  1.
         21   -1    0    0  501  502 -0.00000000000E+00 -0.00000000000E+00 -0.15791904629E+03  0.15791904629E+03  0.00000000000E+00 0.  1.
      99926    2    1    2    0    0  0.00000000000E+00  0.00000000000E+00  0.16452142472E+03  0.48035951729E+03  0.45130695393E+03 0.  0.
      99925    2    3    3    0    0 -0.18545623067E+02 -0.42370866957E+02 -0.20966737926E+01  0.26693897153E+03  0.26289311132E+03 0.  0.
         25    1    4    4    0    0 -0.48352469323E+02 -0.26859654713E+02  0.81075930074E+01  0.13701329682E+03  0.12509000000E+03 0.  0.
         25    1    4    4    0    0  0.29806846257E+02 -0.15511212244E+02 -0.10204266800E+02  0.12992567471E+03  0.12509000000E+03 0.  0.
         25    1    3    3    0    0  0.18545623067E+02  0.42370866957E+02  0.16661809851E+03  0.21342054576E+03  0.12509000000E+03 0.  0.
<mgrwt>
<rscale>  2 0.45130695E+03</rscale>
<asrwt>0</asrwt>
<pdfrwt beam="1">  1       21 0.47417716E-01 0.45130695E+03</pdfrwt>
<pdfrwt beam="2">  1       21 0.23223389E-01 0.45130695E+03</pdfrwt>
<totfact> 0.68664902E+04</totfact>
</mgrwt>
</event>
<event>
 7    0  0.4737014E-002  0.4533898E+03  0.7546771E-02  0.1026716E+00
         21   -1    0    0  502  501  0.00000000000E+00  0.00000000000E+00  0.84797189191E+03  0.84797189191E+03  0.00000000000E+00 0.  1.
         21   -1    0    0  501  502 -0.00000000000E+00 -0.00000000000E+00 -0.60604105863E+02  0.60604105863E+02  0.00000000000E+00 0.  1.
      99926    2    1    2    0    0  0.00000000000E+00  0.00000000000E+00  0.78736778605E+03  0.90857599778E+03  0.45338980274E+03 0.  0.
      99925    2    3    3    0    0  0.86192972428E+02 -0.43760112595E+02  0.60798436773E+03  0.66947331101E+03  0.26306909131E+03 0.  0.
         25    1    4    4    0    0  0.26160417234E+02 -0.15517200798E+02  0.37879011082E+03  0.40006825305E+03  0.12509000000E+03 0.  0.
         25    1    3    3    0    0 -0.86192972428E+02  0.43760112595E+02  0.17938341832E+03  0.23910268676E+03  0.12509000000E+03 0.  0.
         25    1    4    4    0    0  0.60032555194E+02 -0.28242911797E+02  0.22919425692E+03  0.26940505796E+03  0.12509000000E+03 0.  0.
<mgrwt>
<rscale>  2 0.45338980E+03</rscale>
<asrwt>0</asrwt>
<pdfrwt beam="1">  1       21 0.12470174E+00 0.45338980E+03</pdfrwt>
<pdfrwt beam="2">  1       21 0.89123690E-02 0.45338980E+03</pdfrwt>
<totfact> 0.43409629E+04</totfact>
</mgrwt>
</event>
<event>
 7    0  0.4737014E-002  0.4383901E+03  0.7546771E-02  0.1031242E+00
         21   -1    0    0  502  501  0.00000000000E+00  0.00000000000E+00  0.47789236596E+03  0.47789236596E+03  0.00000000000E+00 0.  1.
         21   -1    0    0  501  502 -0.00000000000E+00 -0.00000000000E+00 -0.10053827281E+03  0.10053827281E+03  0.00000000000E+00 0.  1.
      99926    2    1    2    0    0  0.00000000000E+00  0.71054273576E-14  0.37735409315E+03  0.57843063877E+03  0.43839011422E+03 0.  0.
      99925    2    3    3    0    0 -0.16204991526E+02  0.46796417115E+02  0.35087455110E+03  0.44131324143E+03  0.26304357062E+03 0.  0.
         25    1    4    4    0    0 -0.17073938629E+02  0.52762193316E+02  0.22772900278E+03  0.26567531920E+03  0.12509000000E+03 0.  0.
         25    1    3    3    0    0  0.16204991526E+02 -0.46796417115E+02  0.26479542054E+02  0.13711739734E+03  0.12509000000E+03 0.  0.
         25    1    4    4    0    0  0.86894710278E+00 -0.59657762010E+01  0.12314554832E+03  0.17563792223E+03  0.12509000000E+03 0.  0.
<mgrwt>
<rscale>  2 0.43839011E+03</rscale>
<asrwt>0</asrwt>
<pdfrwt beam="1">  1       21 0.70278288E-01 0.43839011E+03</pdfrwt>
<pdfrwt beam="2">  1       21 0.14785040E-01 0.43839011E+03</pdfrwt>
<totfact> 0.68599838E+04</totfact>
</mgrwt>
</event>
<event>
 7    0  0.4737014E-002  0.4598651E+03  0.7546771E-02  0.1024820E+00
         21   -1    0    0  502  501  0.00000000000E+00  0.00000000000E+00  0.37853850553E+03  0.37853850553E+03  0.00000000000E+00 0. -1.
         21   -1    0    0  501  502 -0.00000000000E+00 -0.00000000000E+00 -0.13966607577E+03  0.13966607577E+03  0.00000000000E+00 0. -1.
      99926    2    1    2    0    0 -0.35527136788E-14  0.17763568394E-14  0.23887242976E+03  0.51820458131E+03  0.45986514370E+03 0.  0.
      99925    2    3    3    0    0 -0.29214080412E+02 -0.59230763806E+01  0.21333359306E+02  0.26550060310E+03  0.26295800558E+03 0.  0.
         25    1    4    4    0    0  0.12358303361E+02 -0.32991795383E+02  0.65202860266E+01  0.13011997715E+03  0.12509000000E+03 0.  0.
         25    1    4    4    0    0 -0.41572383773E+02  0.27068719002E+02  0.14813073279E+02  0.13538062594E+03  0.12509000000E+03 0.  0.
         25    1    3    3    0    0  0.29214080412E+02  0.59230763806E+01  0.21753907045E+03  0.25270397821E+03  0.12509000000E+03 0.  0.
<mgrwt>
<rscale>  2 0.45986514E+03</rscale>
<asrwt>0</asrwt>
<pdfrwt beam="1">  1       21 0.55667427E-01 0.45986514E+03</pdfrwt>
<pdfrwt beam="2">  1       21 0.20539129E-01 0.45986514E+03</pdfrwt>
<totfact> 0.61597239E+04</totfact>
</mgrwt>
</event>
<event>
 7    0  0.4737014E-002  0.4546010E+03  0.7546771E-02  0.1026359E+00
         21   -1    0    0  502  501  0.00000000000E+00  0.00000000000E+00  0.84811297789E+02  0.84811297789E+02  0.00000000000E+00 0.  1.
         21   -1    0    0  501  502 -0.00000000000E+00 -0.00000000000E+00 -0.60918195654E+03  0.60918195654E+03  0.00000000000E+00 0.  1.
      99926    2    1    2    0    0  0.00000000000E+00  0.00000000000E+00 -0.52437065875E+03  0.69399325433E+03  0.45460097810E+03 0.  0.
      99925    2    3    3    0    0 -0.89287729409E+02 -0.68597205168E+02 -0.32046936654E+03  0.42960505443E+03  0.26302473785E+03 0.  0.
         25    1    4    4    0    0 -0.83651430518E+02 -0.28774842262E+02 -0.15044186231E+03  0.21472264764E+03  0.12509000000E+03 0.  0.
         25    1    4    4    0    0 -0.56362988910E+01 -0.39822362906E+02 -0.17002750423E+03  0.21488240679E+03  0.12509000000E+03 0.  0.
         25    1    3    3    0    0  0.89287729409E+02  0.68597205168E+02 -0.20390129221E+03  0.26438819990E+03  0.12509000000E+03 0.  0.
<mgrwt>
<rscale>  2 0.45460098E+03</rscale>
<asrwt>0</asrwt>
<pdfrwt beam="1">  1       21 0.12472249E-01 0.45460098E+03</pdfrwt>
<pdfrwt beam="2">  1       21 0.89585585E-01 0.45460098E+03</pdfrwt>
<totfact> 0.53397851E+04</totfact>
</mgrwt>
</event>
<event>
 7    0  0.4737014E-002  0.4512080E+03  0.7546771E-02  0.1027362E+00
         21   -1    0    0  502  501  0.00000000000E+00  0.00000000000E+00  0.87594010199E+02  0.87594010199E+02  0.00000000000E+00 0.  1.
         21   -1    0    0  501  502 -0.00000000000E+00 -0.00000000000E+00 -0.58105754609E+03  0.58105754609E+03  0.00000000000E+00 0.  1.
      99926    2    1    2    0    0  0.00000000000E+00  0.14210854715E-13 -0.49346353589E+03  0.66865155629E+03  0.45120798139E+03 0.  0.
      99925    2    3    3    0    0  0.76800937767E+02  0.73963461196E+02 -0.27419724581E+03  0.39461836177E+03  0.26300293573E+03 0.  0.
         25    1    3    3    0    0 -0.76800937767E+02 -0.73963461196E+02 -0.21926629008E+03  0.27403319452E+03  0.12509000000E+03 0.  0.
         25    1    4    4    0    0  0.26656130405E+02  0.95340678564E+01 -0.86325139829E+02  0.15459943598E+03  0.12509000000E+03 0.  0.
         25    1    4    4    0    0  0.50144807362E+02  0.64429393340E+02 -0.18787210599E+03  0.24001892579E+03  0.12509000000E+03 0.  0.
<mgrwt>
<rscale>  2 0.45120798E+03</rscale>
<asrwt>0</asrwt>
<pdfrwt beam="1">  1       21 0.12881472E-01 0.45120798E+03</pdfrwt>
<pdfrwt beam="2">  1       21 0.85449640E-01 0.45120798E+03</pdfrwt>
<totfact> 0.56302316E+04</totfact>
</mgrwt>
</event>
<event>
 7    0  0.4737014E-002  0.4537553E+03  0.7546771E-02  0.1026608E+00
         21   -1    0    0  502  501  0.00000000000E+00  0.00000000000E+00  0.13176404445E+03  0.13176404445E+03  0.00000000000E+00 0.  1.
         21   -1    0    0  501  502 -0.00000000000E+00 -0.00000000000E+00 -0.39064874732E+03  0.39064874732E+03  0.00000000000E+00 0.  1.
      99926    2    1    2    0    0  0.00000000000E+00  0.00000000000E+00 -0.25888470288E+03  0.52241279177E+03  0.45375525961E+03 0.  0.
      99925    2    3    3    0    0 -0.45000468500E+02  0.80721512665E+02 -0.89826232308E+02  0.29269714288E+03  0.26279623412E+03 0.  0.
         25    1    3    3    0    0  0.45000468500E+02 -0.80721512665E+02 -0.16905847057E+03  0.22971564889E+03  0.12509000000E+03 0.  0.
         25    1    4    4    0    0 -0.52425171512E+02  0.16592880120E+02 -0.30887800976E+02  0.14009028028E+03  0.12509000000E+03 0.  0.
         25    1    4    4    0    0  0.74247030117E+01  0.64128632544E+02 -0.58938431332E+02  0.15260686261E+03  0.12509000000E+03 0.  0.
<mgrwt>
<rscale>  2 0.45375526E+03</rscale>
<asrwt>0</asrwt>
<pdfrwt beam="1">  1       21 0.19377065E-01 0.45375526E+03</pdfrwt>
<pdfrwt beam="2">  1       21 0.57448346E-01 0.45375526E+03</pdfrwt>
<totfact> 0.64355730E+04</totfact>
</mgrwt>
</event>
<event>
 7    0  0.4737014E-002  0.4527767E+03  0.7546771E-02  0.1026897E+00
         21   -1    0    0  502  501  0.00000000000E+00  0.00000000000E+00  0.68355854398E+02  0.68355854398E+02  0.00000000000E+00 0.  1.
         21   -1    0    0  501  502 -0.00000000000E+00 -0.00000000000E+00 -0.74977755280E+03  0.74977755280E+03  0.00000000000E+00 0.  1.
      99926    2    1    2    0    0  0.00000000000E+00  0.00000000000E+00 -0.68142169840E+03  0.81813340719E+03  0.45277670095E+03 0.  0.
      99925    2    3    3    0    0  0.35501089852E+02  0.99931111341E+02 -0.37016355929E+03  0.46631571057E+03  0.26302609549E+03 0.  0.
         25    1    4    4    0    0  0.48090960926E+02  0.26535079222E+02 -0.20243024568E+03  0.24421786056E+03  0.12509000000E+03 0.  0.
         25    1    4    4    0    0 -0.12589871075E+02  0.73396032119E+02 -0.16773331361E+03  0.22209785001E+03  0.12509000000E+03 0.  0.
         25    1    3    3    0    0 -0.35501089852E+02 -0.99931111341E+02 -0.31125813911E+03  0.35181769662E+03  0.12509000000E+03 0.  0.
<mgrwt>
<rscale>  2 0.45277670E+03</rscale>
<asrwt>0</asrwt>
<pdfrwt beam="1">  1       21 0.10052332E-01 0.45277670E+03</pdfrwt>
<pdfrwt beam="2">  1       21 0.11026140E+00 0.45277670E+03</pdfrwt>
<totfact> 0.47727407E+04</totfact>
</mgrwt>
</event>
<event>
 7    0  0.4737014E-002  0.4618226E+03  0.7546771E-02  0.1024254E+00
         21   -1    0    0  502  501  0.00000000000E+00  0.00000000000E+00  0.37705744207E+03  0.37705744207E+03  0.00000000000E+00 0.  1.
         21   -1    0    0  501  502 -0.00000000000E+00 -0.00000000000E+00 -0.14141087012E+03  0.14141087012E+03  0.00000000000E+00 0.  1.
      99926    2    1    2    0    0  0.00000000000E+00 -0.14210854715E-13  0.23564657195E+03  0.51846831218E+03  0.46182256751E+03 0.  0.
      99925    2    3    3    0    0 -0.31454378573E+02 -0.11511656500E+03  0.14258754275E+03  0.32213010275E+03  0.26305017445E+03 0.  0.
         25    1    3    3    0    0  0.31454378573E+02  0.11511656500E+03  0.93059029203E+02  0.19633820944E+03  0.12509000000E+03 0.  0.
         25    1    4    4    0    0  0.35998817368E+01 -0.93765232178E+02  0.65224356491E+02  0.16943022957E+03  0.12509000000E+03 0.  0.
         25    1    4    4    0    0 -0.35054260310E+02 -0.21351332821E+02  0.77363186260E+02  0.15269987317E+03  0.12509000000E+03 0.  0.
<mgrwt>
<rscale>  2 0.46182257E+03</rscale>
<asrwt>0</asrwt>
<pdfrwt beam="1">  1       21 0.55449624E-01 0.46182257E+03</pdfrwt>
<pdfrwt beam="2">  1       21 0.20795716E-01 0.46182257E+03</pdfrwt>
<totfact> 0.60641599E+04</totfact>
</mgrwt>
</event>
<event>
 7    0  0.4737014E-002  0.4633738E+03  0.7546771E-02  0.1023807E+00
         21   -1    0    0  502  501  0.00000000000E+00  0.00000000000E+00  0.56868741043E+02  0.56868741043E+02  0.00000000000E+00 0.  1.
         21   -1    0    0  501  502 -0.00000000000E+00 -0.00000000000E+00 -0.94390718634E+03  0.94390718634E+03  0.00000000000E+00 0.  1.
      99926    2    1    2    0    0 -0.14210854715E-13  0.00000000000E+00 -0.88703844529E+03  0.10007759274E+04  0.46337377288E+03 0.  0.
      99925    2    3    3    0    0  0.10346685640E+03  0.41178149600E+02 -0.65536982532E+03  0.71491077043E+03  0.26303378369E+03 0.  0.
         25    1    3    3    0    0 -0.10346685640E+03 -0.41178149600E+02 -0.23166861997E+03  0.28586515695E+03  0.12509000000E+03 0.  0.
         25    1    4    4    0    0  0.58882859934E+02  0.22988562361E+02 -0.43456475226E+03  0.45660672049E+03  0.12509000000E+03 0.  0.
         25    1    4    4    0    0  0.44583996464E+02  0.18189587239E+02 -0.22080507306E+03  0.25830404994E+03  0.12509000000E+03 0.  0.
<mgrwt>
<rscale>  2 0.46337377E+03</rscale>
<asrwt>0</asrwt>
<pdfrwt beam="1">  1       21 0.83630497E-02 0.46337377E+03</pdfrwt>
<pdfrwt beam="2">  1       21 0.13880989E+00 0.46337377E+03</pdfrwt>
<totfact> 0.36678578E+04</totfact>
</mgrwt>
</event>
<event>
 7    0  0.4737014E-002  0.4556671E+03  0.7546771E-02  0.1026045E+00
         21   -1    0    0  502  501  0.00000000000E+00  0.00000000000E+00  0.28420397580E+02  0.28420397580E+02  0.00000000000E+00 0. -1.
         21   -1    0    0  501  502 -0.00000000000E+00 -0.00000000000E+00 -0.18264390750E+04  0.18264390750E+04  0.00000000000E+00 0. -1.
      99926    2    1    2    0    0  0.00000000000E+00  0.00000000000E+00 -0.17980186774E+04  0.18548594726E+04  0.45566709193E+03 0.  0.
      99925    2    3    3    0    0  0.46678072880E+02  0.10377269362E+03 -0.11363455886E+04  0.11719199445E+04  0.26299704406E+03 0.  0.
         25    1    4    4    0    0  0.49397133213E+02  0.20542220092E+02 -0.51636789068E+03  0.53399004317E+03  0.12509000000E+03 0.  0.
         25    1    3    3    0    0 -0.46678072880E+02 -0.10377269362E+03 -0.66167308889E+03  0.68293952814E+03  0.12509000000E+03 0.  0.
         25    1    4    4    0    0 -0.27190603337E+01  0.83230473527E+02 -0.61997769787E+03  0.63792990130E+03  0.12509000000E+03 0.  0.
<mgrwt>
<rscale>  2 0.45566709E+03</rscale>
<asrwt>0</asrwt>
<pdfrwt beam="1">  1       21 0.41794685E-02 0.45566709E+03</pdfrwt>
<pdfrwt beam="2">  1       21 0.26859409E+00 0.45566709E+03</pdfrwt>
<totfact> 0.16143976E+04</totfact>
</mgrwt>
</event>
<event>
 7    0  0.4737014E-002  0.4741714E+03  0.7546771E-02  0.1020749E+00
         21   -1    0    0  502  501  0.00000000000E+00  0.00000000000E+00  0.24983952485E+03  0.24983952485E+03  0.00000000000E+00 0. -1.
         21   -1    0    0  501  502 -0.00000000000E+00 -0.00000000000E+00 -0.22498290567E+03  0.22498290567E+03  0.00000000000E+00 0. -1.
      99926    2    1    2    0    0  0.00000000000E+00  0.14210854715E-13  0.24856619174E+02  0.47482243052E+03  0.47417137093E+03 0.  0.
      99925    2    3    3    0    0 -0.43236629744E+02  0.10715414648E+03 -0.44764790769E+02  0.29084942685E+03  0.26313130818E+03 0.  0.
         25    1    4    4    0    0 -0.12942578676E+02  0.82869897249E+02  0.51210598291E+01  0.15069394005E+03  0.12509000000E+03 0.  0.
         25    1    3    3    0    0  0.43236629744E+02 -0.10715414648E+03  0.69621409943E+02  0.18397300368E+03  0.12509000000E+03 0.  0.
         25    1    4    4    0    0 -0.30294051068E+02  0.24284249230E+02 -0.49885850598E+02  0.14015548680E+03  0.12509000000E+03 0.  0.
<mgrwt>
<rscale>  2 0.47417137E+03</rscale>
<asrwt>0</asrwt>
<pdfrwt beam="1">  1       21 0.36741107E-01 0.47417137E+03</pdfrwt>
<pdfrwt beam="2">  1       21 0.33085721E-01 0.47417137E+03</pdfrwt>
<totfact> 0.57762944E+04</totfact>
</mgrwt>
</event>
<event>
 7    0  0.4737014E-002  0.4583167E+03  0.7546771E-02  0.1025271E+00
         21   -1    0    0  502  501  0.00000000000E+00  0.00000000000E+00  0.34905985288E+02  0.34905985288E+02  0.00000000000E+00 0.  1.
         21   -1    0    0  501  502 -0.00000000000E+00 -0.00000000000E+00 -0.15044279335E+04  0.15044279335E+04  0.00000000000E+00 0.  1.
      99926    2    1    2    0    0  0.00000000000E+00  0.00000000000E+00 -0.14695219482E+04  0.15393339188E+04  0.45831665609E+03 0.  0.
      99925    2    3    3    0    0  0.45702719779E+02  0.35273527732E+02 -0.12608453801E+04  0.12892811673E+04  0.26302451486E+03 0.  0.
         25    1    3    3    0    0 -0.45702719779E+02 -0.35273527732E+02 -0.20867656803E+03  0.25005275143E+03  0.12509000000E+03 0.  0.
         25    1    4    4    0    0  0.13152739680E+02  0.57205791059E+02 -0.65100554716E+03  0.66550824760E+03  0.12509000000E+03 0.  0.
         25    1    4    4    0    0  0.32549980099E+02 -0.21932263326E+02 -0.60983983299E+03  0.62377291972E+03  0.12509000000E+03 0.  0.
<mgrwt>
<rscale>  2 0.45831666E+03</rscale>
<asrwt>0</asrwt>
<pdfrwt beam="1">  1       21 0.51332336E-02 0.45831666E+03</pdfrwt>
<pdfrwt beam="2">  1       21 0.22123938E+00 0.45831666E+03</pdfrwt>
<totfact> 0.22252640E+04</totfact>
</mgrwt>
</event>
<event>
 7    0  0.4737014E-002  0.4488533E+03  0.7546771E-02  0.1028065E+00
         21   -1    0    0  502  501  0.00000000000E+00  0.00000000000E+00  0.26746180357E+03  0.26746180357E+03  0.00000000000E+00 0. -1.
         21   -1    0    0  501  502 -0.00000000000E+00 -0.00000000000E+00 -0.18831590960E+03  0.18831590960E+03  0.00000000000E+00 0. -1.
      99926    2    1    2    0    0 -0.14210854715E-13  0.14210854715E-13  0.79145893974E+02  0.45577771317E+03  0.44885326254E+03 0.  0.
      99925    2    3    3    0    0  0.64462152153E+02 -0.64002223033E+02 -0.79117113917E+01  0.27835677764E+03  0.26299856819E+03 0.  0.
         25    1    4    4    0    0  0.18175018259E+02 -0.66254314413E+02 -0.21271748866E+02  0.14429123628E+03  0.12509000000E+03 0.  0.
         25    1    3    3    0    0 -0.64462152153E+02  0.64002223033E+02  0.87057605365E+02  0.17742093553E+03  0.12509000000E+03 0.  0.
         25    1    4    4    0    0  0.46287133894E+02  0.22520913800E+01  0.13360037474E+02  0.13406554136E+03  0.12509000000E+03 0.  0.
<mgrwt>
<rscale>  2 0.44885326E+03</rscale>
<asrwt>0</asrwt>
<pdfrwt beam="1">  1       21 0.39332618E-01 0.44885326E+03</pdfrwt>
<pdfrwt beam="2">  1       21 0.27693516E-01 0.44885326E+03</pdfrwt>
<totfact> 0.71951849E+04</totfact>
</mgrwt>
</event>
<event>
 7    0  0.4737014E-002  0.4451622E+03  0.7546771E-02  0.1029175E+00
         21   -1    0    0  502  501  0.00000000000E+00  0.00000000000E+00  0.14747957829E+04  0.14747957829E+04  0.00000000000E+00 0.  1.
         21   -1    0    0  501  502 -0.00000000000E+00 -0.00000000000E+00 -0.33592674753E+02  0.33592674753E+02  0.00000000000E+00 0.  1.
      99926    2    1    2    0    0  0.00000000000E+00  0.00000000000E+00  0.14412031082E+04  0.15083884577E+04  0.44516215052E+03 0.  0.
      99925    2    3    3    0    0  0.96484959917E+02 -0.29847325852E+02  0.83526644832E+03  0.88148579043E+03  0.26295807401E+03 0.  0.
         25    1    4    4    0    0  0.48467082515E+02  0.11644609355E+02  0.31352968216E+03  0.34122283732E+03  0.12509000000E+03 0.  0.
         25    1    3    3    0    0 -0.96484959917E+02  0.29847325852E+02  0.60593665985E+03  0.62690266724E+03  0.12509000000E+03 0.  0.
         25    1    4    4    0    0  0.48017877402E+02 -0.41491935207E+02  0.52173676616E+03  0.54026295311E+03  0.12509000000E+03 0.  0.
<mgrwt>
<rscale>  2 0.44516215E+03</rscale>
<asrwt>0</asrwt>
<pdfrwt beam="1">  1       21 0.21688169E+00 0.44516215E+03</pdfrwt>
<pdfrwt beam="2">  1       21 0.49401002E-02 0.44516215E+03</pdfrwt>
<totfact> 0.25465305E+04</totfact>
</mgrwt>
</event>
<event>
 7    0  0.4737014E-002  0.4367149E+03  0.7546771E-02  0.1031760E+00
         21   -1    0    0  502  501  0.00000000000E+00  0.00000000000E+00  0.16088621821E+04  0.16088621821E+04  0.00000000000E+00 0. -1.
         21   -1    0    0  501  502 -0.00000000000E+00 -0.00000000000E+00 -0.29635837624E+02  0.29635837624E+02  0.00000000000E+00 0. -1.
      99926    2    1    2    0    0  0.00000000000E+00  0.17763568394E-14  0.15792263445E+04  0.16384980197E+04  0.43671491107E+03 0.  0.
      99925    2    3    3    0    0 -0.94337875452E+02 -0.81853897229E+01  0.98584627527E+03  0.10247276637E+04  0.26307274823E+03 0.  0.
         25    1    3    3    0    0  0.94337875452E+02  0.81853897229E+01  0.59338006918E+03  0.61377035604E+03  0.12509000000E+03 0.  0.
         25    1    4    4    0    0 -0.26862842909E+02  0.30518791953E+02  0.50290321039E+03  0.51981934950E+03  0.12509000000E+03 0.  0.
         25    1    4    4    0    0 -0.67475032543E+02 -0.38704181676E+02  0.48294306488E+03  0.50490831416E+03  0.12509000000E+03 0.  0.
<mgrwt>
<rscale>  2 0.43671491E+03</rscale>
<asrwt>0</asrwt>
<pdfrwt beam="1">  1       21 0.23659732E+00 0.43671491E+03</pdfrwt>
<pdfrwt beam="2">  1       21 0.43582125E-02 0.43671491E+03</pdfrwt>
<totfact> 0.23774176E+04</totfact>
</mgrwt>
</event>
<event>
 7    0  0.4737014E-002  0.4529964E+03  0.7546771E-02  0.1026832E+00
         21   -1    0    0  502  501  0.00000000000E+00  0.00000000000E+00  0.39369710873E+03  0.39369710873E+03  0.00000000000E+00 0. -1.
         21   -1    0    0  501  502 -0.00000000000E+00 -0.00000000000E+00 -0.13030687637E+03  0.13030687637E+03  0.00000000000E+00 0. -1.
      99926    2    1    2    0    0  0.00000000000E+00 -0.14210854715E-13  0.26339023236E+03  0.52400398510E+03  0.45299642592E+03 0.  0.
      99925    2    3    3    0    0 -0.11222159469E+02  0.10093277809E+03  0.11362485282E+03  0.30402548714E+03  0.26307323523E+03 0.  0.
         25    1    4    4    0    0  0.37616958108E+01  0.76785553759E+02  0.27128623728E+02  0.14931055538E+03  0.12509000000E+03 0.  0.
         25    1    3    3    0    0  0.11222159469E+02 -0.10093277809E+03  0.14976537954E+03  0.21997849796E+03  0.12509000000E+03 0.  0.
         25    1    4    4    0    0 -0.14983855280E+02  0.24147224334E+02  0.86496229095E+02  0.15471493176E+03  0.12509000000E+03 0.  0.
<mgrwt>
<rscale>  2 0.45299643E+03</rscale>
<asrwt>0</asrwt>
<pdfrwt beam="1">  1       21 0.57896633E-01 0.45299643E+03</pdfrwt>
<pdfrwt beam="2">  1       21 0.19162776E-01 0.45299643E+03</pdfrwt>
<totfact> 0.64634729E+04</totfact>
</mgrwt>
</event>
<event>
 7    0  0.4737014E-002  0.4557766E+03  0.7546771E-02  0.1026013E+00
         21   -1    0    0  502  501  0.00000000000E+00  0.00000000000E+00  0.13508195279E+03  0.13508195279E+03  0.00000000000E+00 0.  1.
         21   -1    0    0  501  502 -0.00000000000E+00 -0.00000000000E+00 -0.38445607060E+03  0.38445607060E+03  0.00000000000E+00 0.  1.
      99926    2    1    2    0    0  0.00000000000E+00 -0.14210854715E-13 -0.24937411780E+03  0.51953802339E+03  0.45577659781E+03 0.  0.
      99925    2    3    3    0    0  0.49206302327E+02  0.66609896501E+02 -0.24575146821E+03  0.36947546913E+03  0.26317332627E+03 0.  0.
         25    1    4    4    0    0  0.13133185978E+02  0.73180587278E+02 -0.13209650713E+03  0.19653212009E+03  0.12509000000E+03 0.  0.
         25    1    4    4    0    0  0.36073116349E+02 -0.65706907766E+01 -0.11365496108E+03  0.17294334904E+03  0.12509000000E+03 0.  0.
         25    1    3    3    0    0 -0.49206302327E+02 -0.66609896501E+02 -0.36226495901E+01  0.15006255426E+03  0.12509000000E+03 0.  0.
<mgrwt>
<rscale>  2 0.45577660E+03</rscale>
<asrwt>0</asrwt>
<pdfrwt beam="1">  1       21 0.19864993E-01 0.45577660E+03</pdfrwt>
<pdfrwt beam="2">  1       21 0.56537658E-01 0.45577660E+03</pdfrwt>
<totfact> 0.63526432E+04</totfact>
</mgrwt>
</event>
<event>
 7    0  0.4737014E-002  0.4313540E+03  0.7546771E-02  0.1033433E+00
         21   -1    0    0  502  501  0.00000000000E+00  0.00000000000E+00  0.29363471544E+02  0.29363471544E+02  0.00000000000E+00 0. -1.
         21   -1    0    0  501  502 -0.00000000000E+00 -0.00000000000E+00 -0.15841646600E+04  0.15841646600E+04  0.00000000000E+00 0. -1.
      99926    2    1    2    0    0  0.00000000000E+00  0.00000000000E+00 -0.15548011885E+04  0.16135281316E+04  0.43135402590E+03 0.  0.
      99925    2    3    3    0    0 -0.41065040990E+02 -0.27236199257E+02 -0.72266052204E+03  0.77059649437E+03  0.26296877929E+03 0.  0.
         25    1    3    3    0    0  0.41065040990E+02  0.27236199257E+02 -0.83214066644E+03  0.84293163719E+03  0.12509000000E+03 0.  0.
         25    1    4    4    0    0 -0.54432014383E+02  0.86167515097E+01 -0.37615532479E+03  0.40022172488E+03  0.12509000000E+03 0.  0.
         25    1    4    4    0    0  0.13366973393E+02 -0.35852950767E+02 -0.34650519725E+03  0.37037476949E+03  0.12509000000E+03 0.  0.
<mgrwt>
<rscale>  2 0.43135403E+03</rscale>
<asrwt>0</asrwt>
<pdfrwt beam="1">  1       21 0.43181559E-02 0.43135403E+03</pdfrwt>
<pdfrwt beam="2">  1       21 0.23296548E+00 0.43135403E+03</pdfrwt>
<totfact> 0.25495628E+04</totfact>
</mgrwt>
</event>
<event>
 7    0  0.4737014E-002  0.4470384E+03  0.7546771E-02  0.1028609E+00
         21   -1    0    0  502  501  0.00000000000E+00  0.00000000000E+00  0.16111014216E+03  0.16111014216E+03  0.00000000000E+00 0.  1.
         21   -1    0    0  501  502 -0.00000000000E+00 -0.00000000000E+00 -0.31010362363E+03  0.31010362363E+03  0.00000000000E+00 0.  1.
      99926    2    1    2    0    0  0.00000000000E+00 -0.71054273576E-14 -0.14899348147E+03  0.47121376579E+03  0.44703842737E+03 0.  0.
      99925    2    3    3    0    0 -0.88773206498E+02  0.52293933961E+02 -0.70520874039E+02  0.29115600856E+03  0.26302716575E+03 0.  0.
         25    1    4    4    0    0 -0.39075092798E+02 -0.13404054824E+02 -0.45064626016E+02  0.13922952338E+03  0.12509000000E+03 0.  0.
         25    1    4    4    0    0 -0.49698113700E+02  0.65697988786E+02 -0.25456248023E+02  0.15192648518E+03  0.12509000000E+03 0.  0.
         25    1    3    3    0    0  0.88773206498E+02 -0.52293933961E+02 -0.78472607433E+02  0.18005775723E+03  0.12509000000E+03 0.  0.
<mgrwt>
<rscale>  2 0.44703843E+03</rscale>
<asrwt>0</asrwt>
<pdfrwt beam="1">  1       21 0.23692668E-01 0.44703843E+03</pdfrwt>
<pdfrwt beam="2">  1       21 0.45603474E-01 0.44703843E+03</pdfrwt>
<totfact> 0.71774363E+04</totfact>
</mgrwt>
</event>
<event>
 7    0  0.4737014E-002  0.4552636E+03  0.7546771E-02  0.1026164E+00
         21   -1    0    0  502  501  0.00000000000E+00  0.00000000000E+00  0.46365377896E+03  0.46365377896E+03  0.00000000000E+00 0. -1.
         21   -1    0    0  501  502 -0.00000000000E+00 -0.00000000000E+00 -0.11175630039E+03  0.11175630039E+03  0.00000000000E+00 0. -1.
      99926    2    1    2    0    0  0.00000000000E+00  0.00000000000E+00  0.35189747857E+03  0.57541007935E+03  0.45526357640E+03 0.  0.
      99925    2    3    3    0    0  0.67564917067E+02 -0.68977826617E+02  0.14611583236E+03  0.31595574310E+03  0.26297383244E+03 0.  0.
         25    1    3    3    0    0 -0.67564917067E+02  0.68977826617E+02  0.20578164621E+03  0.25945433625E+03  0.12509000000E+03 0.  0.
         25    1    4    4    0    0  0.10692750717E+02 -0.57280043954E+02  0.10044627907E+03  0.17068187201E+03  0.12509000000E+03 0.  0.
         25    1    4    4    0    0  0.56872166350E+02 -0.11697782663E+02  0.45669553295E+02  0.14527387109E+03  0.12509000000E+03 0.  0.
<mgrwt>
<rscale>  2 0.45526358E+03</rscale>
<asrwt>0</asrwt>
<pdfrwt beam="1">  1       21 0.68184378E-01 0.45526358E+03</pdfrwt>
<pdfrwt beam="2">  1       21 0.16434750E-01 0.45526358E+03</pdfrwt>
<totfact> 0.60092627E+04</totfact>
</mgrwt>
</event>
<event>
 7    0  0.4737014E-002  0.4555828E+03  0.7546771E-02  0.1026070E+00
         21   -1    0    0  502  501  0.00000000000E+00  0.00000000000E+00  0.25863498905E+03  0.25863498905E+03  0.00000000000E+00 0. -1.
         21   -1    0    0  501  502 -0.00000000000E+00 -0.00000000000E+00 -0.20062605163E+03  0.20062605163E+03  0.00000000000E+00 0. -1.
      99926    2    1    2    0    0  0.00000000000E+00  0.35527136788E-14  0.58008937426E+02  0.45926104068E+03  0.45558277696E+03 0.  0.
      99925    2    3    3    0    0  0.10302313504E+03 -0.15669482147E+02  0.81587501252E+02  0.29475342445E+03  0.26337000938E+03 0.  0.
         25    1    4    4    0    0  0.23082100473E+02 -0.35311613281E+02  0.53262400885E+02  0.14235197520E+03  0.12509000000E+03 0.  0.
         25    1    3    3    0    0 -0.10302313504E+03  0.15669482147E+02 -0.23578563826E+02  0.16450761623E+03  0.12509000000E+03 0.  0.
         25    1    4    4    0    0  0.79941034569E+02  0.19642131134E+02  0.28325100366E+02  0.15240144925E+03  0.12509000000E+03 0.  0.
<mgrwt>
<rscale>  2 0.45558278E+03</rscale>
<asrwt>0</asrwt>
<pdfrwt beam="1">  1       21 0.38034557E-01 0.45558278E+03</pdfrwt>
<pdfrwt beam="2">  1       21 0.29503831E-01 0.45558278E+03</pdfrwt>
<totfact> 0.67918228E+04</totfact>
</mgrwt>
</event>
<event>
 7    0  0.4737014E-002  0.4547057E+03  0.7546771E-02  0.1026328E+00
         21   -1    0    0  502  501  0.00000000000E+00  0.00000000000E+00  0.34513786248E+03  0.34513786248E+03  0.00000000000E+00 0.  1.
         21   -1    0    0  501  502 -0.00000000000E+00 -0.00000000000E+00 -0.14976429466E+03  0.14976429466E+03  0.00000000000E+00 0.  1.
      99926    2    1    2    0    0 -0.35527136788E-14 -0.14210854715E-13  0.19537356782E+03  0.49490215714E+03  0.45470574457E+03 0.  0.
      99925    2    3    3    0    0  0.29524947621E+02 -0.86273188136E+02  0.19753734065E+03  0.34008944599E+03  0.26139059814E+03 0.  0.
         25    1    3    3    0    0 -0.29524947621E+02  0.86273188136E+02 -0.21637728270E+01  0.15481271116E+03  0.12509000000E+03 0.  0.
         25    1    4    4    0    0  0.44479086350E+02 -0.66910814542E+02  0.11843825284E+03  0.19008044103E+03  0.12509000000E+03 0.  0.
         25    1    4    4    0    0 -0.14954138730E+02 -0.19362373594E+02  0.79099087808E+02  0.15000900496E+03  0.12509000000E+03 0.  0.
<mgrwt>
<rscale>  2 0.45470574E+03</rscale>
<asrwt>0</asrwt>
<pdfrwt beam="1">  1       21 0.50755568E-01 0.45470574E+03</pdfrwt>
<pdfrwt beam="2">  1       21 0.22024161E-01 0.45470574E+03</pdfrwt>
<totfact> 0.65783833E+04</totfact>
</mgrwt>
</event>
<event>
 7    0  0.4737014E-002  0.4504309E+03  0.7546771E-02  0.1027594E+00
         21   -1    0    0  502  501  0.00000000000E+00  0.00000000000E+00  0.27231866368E+03  0.27231866368E+03  0.00000000000E+00 0.  1.
         21   -1    0    0  501  502 -0.00000000000E+00 -0.00000000000E+00 -0.18625970291E+03  0.18625970291E+03  0.00000000000E+00 0.  1.
      99926    2    1    2    0    0  0.00000000000E+00  0.00000000000E+00  0.86058960762E+02  0.45857836659E+03  0.45043087547E+03 0.  0.
      99925    2    3    3    0    0  0.70218300809E+02 -0.51653906109E+02  0.12060234712E+03  0.30224702160E+03  0.26307717528E+03 0.  0.
         25    1    4    4    0    0  0.44270341533E+02  0.14132852140E+02  0.57330359049E+02  0.14523731896E+03  0.12509000000E+03 0.  0.
         25    1    4    4    0    0  0.25947959276E+02 -0.65786758249E+02  0.63271988066E+02  0.15700970265E+03  0.12509000000E+03 0.  0.
         25    1    3    3    0    0 -0.70218300809E+02  0.51653906109E+02 -0.34543386353E+02  0.15633134499E+03  0.12509000000E+03 0.  0.
<mgrwt>
<rscale>  2 0.45043088E+03</rscale>
<asrwt>0</asrwt>
<pdfrwt beam="1">  1       21 0.40046862E-01 0.45043088E+03</pdfrwt>
<pdfrwt beam="2">  1       21 0.27391133E-01 0.45043088E+03</pdfrwt>
<totfact> 0.70827338E+04</totfact>
</mgrwt>
</event>
<event>
 7    0  0.4737014E-002  0.4122111E+03  0.7546771E-02  0.1039632E+00
         21   -1    0    0  502  501  0.00000000000E+00  0.00000000000E+00  0.52234921389E+03  0.52234921389E+03  0.00000000000E+00 0. -1.
         21   -1    0    0  501  502 -0.00000000000E+00 -0.00000000000E+00 -0.81323941893E+02  0.81323941893E+02  0.00000000000E+00 0. -1.
      99926    2    1    2    0    0 -0.88817841970E-15  0.00000000000E+00  0.44102527199E+03  0.60367315578E+03  0.41221109698E+03 0.  0.
      99925    2    3    3    0    0  0.60915311312E+01  0.24223975891E+02  0.37859646214E+03  0.46165635340E+03  0.26299695763E+03 0.  0.
         25    1    4    4    0    0  0.51276759250E+01  0.24978694052E+02  0.12392174803E+03  0.17791665451E+03  0.12509000000E+03 0.  0.
         25    1    4    4    0    0  0.96385520617E+00 -0.75471816105E+00  0.25467471411E+03  0.28373969889E+03  0.12509000000E+03 0.  0.
         25    1    3    3    0    0 -0.60915311312E+01 -0.24223975891E+02  0.62428809851E+02  0.14201680238E+03  0.12509000000E+03 0.  0.
<mgrwt>
<rscale>  2 0.41221110E+03</rscale>
<asrwt>0</asrwt>
<pdfrwt beam="1">  1       21 0.76816059E-01 0.41221110E+03</pdfrwt>
<pdfrwt beam="2">  1       21 0.11959404E-01 0.41221110E+03</pdfrwt>
<totfact> 0.83198764E+04</totfact>
</mgrwt>
</event>
<event>
 7    0  0.4737014E-002  0.4525184E+03  0.7546771E-02  0.1026974E+00
         21   -1    0    0  502  501  0.00000000000E+00  0.00000000000E+00  0.35483189902E+03  0.35483189902E+03  0.00000000000E+00 0. -1.
         21   -1    0    0  501  502 -0.00000000000E+00 -0.00000000000E+00 -0.14427456155E+03  0.14427456155E+03  0.00000000000E+00 0. -1.
      99926    2    1    2    0    0  0.00000000000E+00  0.00000000000E+00  0.21055733747E+03  0.49910646057E+03  0.45251836054E+03 0.  0.
      99925    2    3    3    0    0 -0.82547411446E+02  0.41615858254E+02  0.20028322717E+03  0.34322503052E+03  0.26295264914E+03 0.  0.
         25    1    4    4    0    0 -0.78580996582E+02  0.11022317901E+02  0.12622046830E+03  0.19461649271E+03  0.12509000000E+03 0.  0.
         25    1    4    4    0    0 -0.39664148636E+01  0.30593540353E+02  0.74062758873E+02  0.14860853781E+03  0.12509000000E+03 0.  0.
         25    1    3    3    0    0  0.82547411446E+02 -0.41615858254E+02  0.10274110303E+02  0.15588143006E+03  0.12509000000E+03 0.  0.
<mgrwt>
<rscale>  2 0.45251836E+03</rscale>
<asrwt>0</asrwt>
<pdfrwt beam="1">  1       21 0.52181162E-01 0.45251836E+03</pdfrwt>
<pdfrwt beam="2">  1       21 0.21216847E-01 0.45251836E+03</pdfrwt>
<totfact> 0.66636524E+04</totfact>
</mgrwt>
</event>
<event>
 7    0  0.4737014E-002  0.4514618E+03  0.7546771E-02  0.1027287E+00
         21   -1    0    0  502  501  0.00000000000E+00  0.00000000000E+00  0.18824723302E+04  0.18824723302E+04  0.00000000000E+00 0. -1.
         21   -1    0    0  501  502 -0.00000000000E+00 -0.00000000000E+00 -0.27067826439E+02  0.27067826439E+02  0.00000000000E+00 0. -1.
      99926    2    1    2    0    0  0.00000000000E+00  0.00000000000E+00  0.18554045037E+04  0.19095401566E+04  0.45146177827E+03 0.  0.
      99925    2    3    3    0    0  0.93563977484E+02 -0.36164178903E+02  0.13589173148E+04  0.13878035348E+04  0.26321154396E+03 0.  0.
         25    1    4    4    0    0  0.55037347800E+02 -0.70171124792E+01  0.87561547248E+03  0.88624393553E+03  0.12509000000E+03 0.  0.
         25    1    4    4    0    0  0.38526629683E+02 -0.29147066424E+02  0.48330184236E+03  0.50155959926E+03  0.12509000000E+03 0.  0.
         25    1    3    3    0    0 -0.93563977484E+02  0.36164178903E+02  0.49648718891E+03  0.52173662184E+03  0.12509000000E+03 0.  0.
<mgrwt>
<rscale>  2 0.45146178E+03</rscale>
<asrwt>0</asrwt>
<pdfrwt beam="1">  1       21 0.27683408E+00 0.45146178E+03</pdfrwt>
<pdfrwt beam="2">  1       21 0.39805640E-02 0.45146178E+03</pdfrwt>
<totfact> 0.15669246E+04</totfact>
</mgrwt>
</event>
<event>
 7    0  0.4737014E-002  0.4568888E+03  0.7546771E-02  0.1025687E+00
         21   -1    0    0  502  501  0.00000000000E+00  0.00000000000E+00  0.63689033866E+03  0.63689033866E+03  0.00000000000E+00 0.  1.
         21   -1    0    0  501  502 -0.00000000000E+00 -0.00000000000E+00 -0.81940087136E+02  0.81940087136E+02  0.00000000000E+00 0.  1.
      99926    2    1    2    0    0  0.71054273576E-14  0.00000000000E+00  0.55495025152E+03  0.71883042580E+03  0.45688882607E+03 0.  0.
      99925    2    3    3    0    0 -0.32408026615E+02  0.37648222418E+02  0.18546323638E+03  0.32559279879E+03  0.26295701118E+03 0.  0.
         25    1    3    3    0    0  0.32408026615E+02 -0.37648222418E+02  0.36948701514E+03  0.39323762701E+03  0.12509000000E+03 0.  0.
         25    1    4    4    0    0 -0.42918427578E+02  0.23806890937E+02  0.58634289182E+02  0.14660916564E+03  0.12509000000E+03 0.  0.
         25    1    4    4    0    0  0.10510400963E+02  0.13841331481E+02  0.12682894720E+03  0.17898363315E+03  0.12509000000E+03 0.  0.
<mgrwt>
<rscale>  2 0.45688883E+03</rscale>
<asrwt>0</asrwt>
<pdfrwt beam="1">  1       21 0.93660342E-01 0.45688883E+03</pdfrwt>
<pdfrwt beam="2">  1       21 0.12050013E-01 0.45688883E+03</pdfrwt>
<totfact> 0.51128647E+04</totfact>
</mgrwt>
</event>
<event>
 7    0  0.4737014E-002  0.4591326E+03  0.7546771E-02  0.1025033E+00
         21   -1    0    0  502  501  0.00000000000E+00  0.00000000000E+00  0.41678827354E+02  0.41678827354E+02  0.00000000000E+00 0. -1.
         21   -1    0    0  501  502 -0.00000000000E+00 -0.00000000000E+00 -0.12644475425E+04  0.12644475425E+04  0.00000000000E+00 0. -1.
      99926    2    1    2    0    0  0.00000000000E+00  0.00000000000E+00 -0.12227687152E+04  0.13061263699E+04  0.45913262060E+03 0.  0.
      99925    2    3    3    0    0  0.34205465887E+02 -0.10097676963E+03 -0.62970797477E+03  0.69071197957E+03  0.26302962442E+03 0.  0.
         25    1    4    4    0    0  0.43474595968E+02 -0.52670387090E+02 -0.39919136723E+03  0.42386963320E+03  0.12509000000E+03 0.  0.
         25    1    3    3    0    0 -0.34205465887E+02  0.10097676963E+03 -0.59306074040E+03  0.61541439031E+03  0.12509000000E+03 0.  0.
         25    1    4    4    0    0 -0.92691300816E+01 -0.48306382540E+02 -0.23051660754E+03  0.26684234637E+03  0.12509000000E+03 0.  0.
<mgrwt>
<rscale>  2 0.45913262E+03</rscale>
<asrwt>0</asrwt>
<pdfrwt beam="1">  1       21 0.61292391E-02 0.45913262E+03</pdfrwt>
<pdfrwt beam="2">  1       21 0.18594817E+00 0.45913262E+03</pdfrwt>
<totfact> 0.28025691E+04</totfact>
</mgrwt>
</event>
<event>
 7    0  0.4737014E-002  0.4555492E+03  0.7546771E-02  0.1026080E+00
         21   -1    0    0  502  501  0.00000000000E+00  0.00000000000E+00  0.36115690771E+03  0.36115690771E+03  0.00000000000E+00 0. -1.
         21   -1    0    0  501  502 -0.00000000000E+00 -0.00000000000E+00 -0.14365299256E+03  0.14365299256E+03  0.00000000000E+00 0. -1.
      99926    2    1    2    0    0  0.53290705182E-14  0.00000000000E+00  0.21750391515E+03  0.50480990027E+03  0.45554920953E+03 0.  0.
      99925    2    3    3    0    0 -0.14214675197E+02 -0.24052998784E+02  0.14647370932E+02  0.26485388476E+03  0.26296849822E+03 0.  0.
         25    1    4    4    0    0  0.32411863518E+02 -0.29312908853E+01  0.93592353521E+01  0.12959253354E+03  0.12509000000E+03 0.  0.
         25    1    3    3    0    0  0.14214675197E+02  0.24052998784E+02  0.20285654422E+03  0.23995601550E+03  0.12509000000E+03 0.  0.
         25    1    4    4    0    0 -0.46626538715E+02 -0.21121707899E+02  0.52881355802E+01  0.13526135122E+03  0.12509000000E+03 0.  0.
<mgrwt>
<rscale>  2 0.45554921E+03</rscale>
<asrwt>0</asrwt>
<pdfrwt beam="1">  1       21 0.53111310E-01 0.45554921E+03</pdfrwt>
<pdfrwt beam="2">  1       21 0.21125440E-01 0.45554921E+03</pdfrwt>
<totfact> 0.64651761E+04</totfact>
</mgrwt>
</event>
<event>
 7    0  0.4737014E-002  0.4559831E+03  0.7546771E-02  0.1025953E+00
         21   -1    0    0  502  501  0.00000000000E+00  0.00000000000E+00  0.30741910051E+02  0.30741910051E+02  0.00000000000E+00 0.  1.
         21   -1    0    0  501  502 -0.00000000000E+00 -0.00000000000E+00 -0.16908560528E+04  0.16908560528E+04  0.00000000000E+00 0.  1.
      99926    2    1    2    0    0 -0.88817841970E-15  0.00000000000E+00 -0.16601141428E+04  0.17215979629E+04  0.45598309041E+03 0.  0.
      99925    2    3    3    0    0 -0.19249151874E+01 -0.47800276663E+02 -0.65236651212E+03  0.70499018849E+03  0.26294586513E+03 0.  0.
         25    1    3    3    0    0  0.19249151874E+01  0.47800276663E+02 -0.10077476307E+04  0.10166077744E+04  0.12509000000E+03 0.  0.
         25    1    4    4    0    0  0.15451099449E+02  0.58166523398E+01 -0.25308008120E+03  0.28278897701E+03  0.12509000000E+03 0.  0.
         25    1    4    4    0    0 -0.17376014636E+02 -0.53616929003E+02 -0.39928643092E+03  0.42220121148E+03  0.12509000000E+03 0.  0.
<mgrwt>
<rscale>  2 0.45598309E+03</rscale>
<asrwt>0</asrwt>
<pdfrwt beam="1">  1       21 0.45208685E-02 0.45598309E+03</pdfrwt>
<pdfrwt beam="2">  1       21 0.24865534E+00 0.45598309E+03</pdfrwt>
<totfact> 0.18672794E+04</totfact>
</mgrwt>
</event>
<event>
 7    0  0.4737014E-002  0.4639881E+03  0.7546771E-02  0.1023631E+00
         21   -1    0    0  502  501  0.00000000000E+00  0.00000000000E+00  0.55501832942E+03  0.55501832942E+03  0.00000000000E+00 0.  1.
         21   -1    0    0  501  502 -0.00000000000E+00 -0.00000000000E+00 -0.96972015953E+02  0.96972015953E+02  0.00000000000E+00 0.  1.
      99926    2    1    2    0    0  0.00000000000E+00  0.17763568394E-14  0.45804631347E+03  0.65199034537E+03  0.46398813043E+03 0.  0.
      99925    2    3    3    0    0 -0.80481496452E+02  0.13248236222E+02  0.41259470166E+03  0.49589375941E+03  0.26272313516E+03 0.  0.
         25    1    4    4    0    0 -0.27046330198E+02  0.21709836679E+02  0.13872422783E+03  0.18998615864E+03  0.12509000000E+03 0.  0.
         25    1    3    3    0    0  0.80481496452E+02 -0.13248236222E+02  0.45451611807E+02  0.15609658597E+03  0.12509000000E+03 0.  0.
         25    1    4    4    0    0 -0.53435166254E+02 -0.84616004570E+01  0.27387047383E+03  0.30590760077E+03  0.12509000000E+03 0.  0.
<mgrwt>
<rscale>  2 0.46398813E+03</rscale>
<asrwt>0</asrwt>
<pdfrwt beam="1">  1       21 0.81620341E-01 0.46398813E+03</pdfrwt>
<pdfrwt beam="2">  1       21 0.14260591E-01 0.46398813E+03</pdfrwt>
<totfact> 0.51814041E+04</totfact>
</mgrwt>
</event>
<event>
 7    0  0.4737014E-002  0.4568888E+03  0.7546771E-02  0.1025687E+00
         21   -1    0    0  502  501  0.00000000000E+00  0.00000000000E+00  0.11488792938E+03  0.11488792938E+03  0.00000000000E+00 0.  1.
         21   -1    0    0  501  502 -0.00000000000E+00 -0.00000000000E+00 -0.45424122905E+03  0.45424122905E+03  0.00000000000E+00 0.  1.
      99926    2    1    2    0    0  0.00000000000E+00 -0.71054273576E-14 -0.33935329967E+03  0.56912915842E+03  0.45688875776E+03 0.  0.
      99925    2    3    3    0    0  0.66133846296E+02 -0.45504207346E+02 -0.11065794327E+03  0.29637763661E+03  0.26296426480E+03 0.  0.
         25    1    3    3    0    0 -0.66133846296E+02  0.45504207346E+02 -0.22869535640E+03  0.27275152181E+03  0.12509000000E+03 0.  0.
         25    1    4    4    0    0  0.32066305603E+02  0.63711093785E+01 -0.22490402175E+02  0.13123324762E+03  0.12509000000E+03 0.  0.
         25    1    4    4    0    0  0.34067540692E+02 -0.51875316724E+02 -0.88167541097E+02  0.16514438900E+03  0.12509000000E+03 0.  0.
<mgrwt>
<rscale>  2 0.45688876E+03</rscale>
<asrwt>0</asrwt>
<pdfrwt beam="1">  1       21 0.16895284E-01 0.45688876E+03</pdfrwt>
<pdfrwt beam="2">  1       21 0.66800181E-01 0.45688876E+03</pdfrwt>
<totfact> 0.59722806E+04</totfact>
</mgrwt>
</event>
<event>
 7    0  0.4737014E-002  0.4172244E+03  0.7546771E-02  0.1037973E+00
         21   -1    0    0  502  501  0.00000000000E+00  0.00000000000E+00  0.11173626605E+04  0.11173626605E+04  0.00000000000E+00 0. -1.
         21   -1    0    0  501  502 -0.00000000000E+00 -0.00000000000E+00 -0.38948009872E+02  0.38948009872E+02  0.00000000000E+00 0. -1.
      99926    2    1    2    0    0  0.35527136788E-14  0.00000000000E+00  0.10784146507E+04  0.11563106704E+04  0.41722440932E+03 0.  0.
      99925    2    3    3    0    0 -0.20588956496E+02 -0.69425999379E+02  0.71048370024E+03  0.76100753748E+03  0.26287165933E+03 0.  0.
         25    1    4    4    0    0 -0.41492043067E+02 -0.46972821337E+02  0.43402713240E+03  0.45602093739E+03  0.12509000000E+03 0.  0.
         25    1    3    3    0    0  0.20588956496E+02  0.69425999379E+02  0.36793095043E+03  0.39530313293E+03  0.12509000000E+03 0.  0.
         25    1    4    4    0    0  0.20903086571E+02 -0.22453178042E+02  0.27645656784E+03  0.30498660009E+03  0.12509000000E+03 0.  0.
<mgrwt>
<rscale>  2 0.41722441E+03</rscale>
<asrwt>0</asrwt>
<pdfrwt beam="1">  1       21 0.16431802E+00 0.41722441E+03</pdfrwt>
<pdfrwt beam="2">  1       21 0.57276493E-02 0.41722441E+03</pdfrwt>
<totfact> 0.45582604E+04</totfact>
</mgrwt>
</event>
<event>
 7    0  0.4737014E-002  0.4588161E+03  0.7546771E-02  0.1025125E+00
         21   -1    0    0  502  501  0.00000000000E+00  0.00000000000E+00  0.95797218017E+02  0.95797218017E+02  0.00000000000E+00 0.  1.
         21   -1    0    0  501  502 -0.00000000000E+00 -0.00000000000E+00 -0.54936927582E+03  0.54936927582E+03  0.00000000000E+00 0.  1.
      99926    2    1    2    0    0  0.00000000000E+00  0.14210854715E-13 -0.45357205781E+03  0.64516649384E+03  0.45881607769E+03 0.  0.
      99925    2    3    3    0    0  0.33524984565E+02  0.99875198116E+02 -0.21338849761E+03  0.35459011752E+03  0.26286977905E+03 0.  0.
         25    1    3    3    0    0 -0.33524984565E+02 -0.99875198116E+02 -0.24018356019E+03  0.29057637632E+03  0.12509000000E+03 0.  0.
         25    1    4    4    0    0  0.30599916226E+02  0.10366125962E+02 -0.91543715090E+02  0.15834004962E+03  0.12509000000E+03 0.  0.
         25    1    4    4    0    0  0.29250683388E+01  0.89509072154E+02 -0.12184478252E+03  0.19625006790E+03  0.12509000000E+03 0.  0.
<mgrwt>
<rscale>  2 0.45881608E+03</rscale>
<asrwt>0</asrwt>
<pdfrwt beam="1">  1       21 0.14087826E-01 0.45881608E+03</pdfrwt>
<pdfrwt beam="2">  1       21 0.80789600E-01 0.45881608E+03</pdfrwt>
<totfact> 0.54326432E+04</totfact>
</mgrwt>
</event>
<event>
 7    0  0.4737014E-002  0.4541683E+03  0.7546771E-02  0.1026486E+00
         21   -1    0    0  502  501  0.00000000000E+00  0.00000000000E+00  0.10447512089E+03  0.10447512089E+03  0.00000000000E+00 0. -1.
         21   -1    0    0  501  502 -0.00000000000E+00 -0.00000000000E+00 -0.49358375431E+03  0.49358375431E+03  0.00000000000E+00 0. -1.
      99926    2    1    2    0    0  0.00000000000E+00  0.00000000000E+00 -0.38910863341E+03  0.59805887520E+03  0.45416834941E+03 0.  0.
      99925    2    3    3    0    0 -0.35089224008E+02  0.99785178218E+02 -0.19466261071E+03  0.34380486977E+03  0.26290667742E+03 0.  0.
         25    1    3    3    0    0  0.35089224008E+02 -0.99785178218E+02 -0.19444602270E+03  0.25425400543E+03  0.12509000000E+03 0.  0.
         25    1    4    4    0    0  0.20082814954E+02  0.63305592396E+02 -0.90021125010E+02  0.16781605565E+03  0.12509000000E+03 0.  0.
         25    1    4    4    0    0 -0.55172038962E+02  0.36479585822E+02 -0.10464148570E+03  0.17598881412E+03  0.12509000000E+03 0.  0.
<mgrwt>
<rscale>  2 0.45416835E+03</rscale>
<asrwt>0</asrwt>
<pdfrwt beam="1">  1       21 0.15363988E-01 0.45416835E+03</pdfrwt>
<pdfrwt beam="2">  1       21 0.72585846E-01 0.45416835E+03</pdfrwt>
<totfact> 0.59185885E+04</totfact>
</mgrwt>
</event>
<event>
 7    0  0.4737014E-002  0.4473071E+03  0.7546771E-02  0.1028528E+00
         21   -1    0    0  502  501  0.00000000000E+00  0.00000000000E+00  0.57866479369E+02  0.57866479369E+02  0.00000000000E+00 0. -1.
         21   -1    0    0  501  502 -0.00000000000E+00 -0.00000000000E+00 -0.86441932956E+03  0.86441932956E+03  0.00000000000E+00 0. -1.
      99926    2    1    2    0    0  0.00000000000E+00  0.00000000000E+00 -0.80655285019E+03  0.92228580893E+03  0.44730706813E+03 0.  0.
      99925    2    3    3    0    0 -0.15997656040E+02 -0.10450513519E+03 -0.51860753558E+03  0.59101966127E+03  0.26300801464E+03 0.  0.
         25    1    4    4    0    0 -0.21080030137E+02 -0.61562536312E+02 -0.34509818601E+03  0.37279294473E+03  0.12509000000E+03 0.  0.
         25    1    3    3    0    0  0.15997656040E+02  0.10450513519E+03 -0.28794531461E+03  0.33126614766E+03  0.12509000000E+03 0.  0.
         25    1    4    4    0    0  0.50823740967E+01 -0.42942598881E+02 -0.17350934957E+03  0.21822671654E+03  0.12509000000E+03 0.  0.
<mgrwt>
<rscale>  2 0.44730707E+03</rscale>
<asrwt>0</asrwt>
<pdfrwt beam="1">  1       21 0.85097772E-02 0.44730707E+03</pdfrwt>
<pdfrwt beam="2">  1       21 0.12712048E+00 0.44730707E+03</pdfrwt>
<totfact> 0.44927119E+04</totfact>
</mgrwt>
</event>
<event>
 7    0  0.4737014E-002  0.4796157E+03  0.7546771E-02  0.1019241E+00
         21   -1    0    0  502  501  0.00000000000E+00  0.00000000000E+00  0.22353508249E+03  0.22353508249E+03  0.00000000000E+00 0. -1.
         21   -1    0    0  501  502 -0.00000000000E+00 -0.00000000000E+00 -0.25726528287E+03  0.25726528287E+03  0.00000000000E+00 0. -1.
      99926    2    1    2    0    0 -0.35527136788E-14  0.00000000000E+00 -0.33730200380E+02  0.48080036536E+03  0.47961574715E+03 0.  0.
      99925    2    3    3    0    0  0.29715438040E+02  0.97313977895E+02 -0.10967212658E+03  0.30256540300E+03  0.26299207249E+03 0.  0.
         25    1    3    3    0    0 -0.29715438040E+02 -0.97313977895E+02  0.75941926198E+02  0.17823496236E+03  0.12509000000E+03 0.  0.
         25    1    4    4    0    0 -0.24668585276E+02  0.48919857766E+02 -0.63867991548E+02  0.15075914575E+03  0.12509000000E+03 0.  0.
         25    1    4    4    0    0  0.54384023316E+02  0.48394120130E+02 -0.45804135031E+02  0.15180625725E+03  0.12509000000E+03 0.  0.
<mgrwt>
<rscale>  2 0.47961575E+03</rscale>
<asrwt>0</asrwt>
<pdfrwt beam="1">  1       21 0.32872806E-01 0.47961575E+03</pdfrwt>
<pdfrwt beam="2">  1       21 0.37833130E-01 0.47961575E+03</pdfrwt>
<totfact> 0.55060515E+04</totfact>
</mgrwt>
</event>
<event>
 7    0  0.4737014E-002  0.4523392E+03  0.7546771E-02  0.1027027E+00
         21   -1    0    0  502  501  0.00000000000E+00  0.00000000000E+00  0.99478143585E+02  0.99478143585E+02  0.00000000000E+00 0.  1.
         21   -1    0    0  501  502 -0.00000000000E+00 -0.00000000000E+00 -0.51421040348E+03  0.51421040348E+03  0.00000000000E+00 0.  1.
      99926    2    1    2    0    0  0.71054273576E-14  0.00000000000E+00 -0.41473225990E+03  0.61368854707E+03  0.45233923708E+03 0.  0.
      99925    2    3    3    0    0  0.42860107445E+02 -0.88216532511E+02 -0.18987224845E+03  0.33831847195E+03  0.26227613753E+03 0.  0.
         25    1    3    3    0    0 -0.42860107445E+02  0.88216532511E+02 -0.22486001145E+03  0.27537007511E+03  0.12509000000E+03 0.  0.
         25    1    4    4    0    0  0.24716802829E+02 -0.53738608652E+02 -0.51189898326E+02  0.14753532524E+03  0.12509000000E+03 0.  0.
         25    1    4    4    0    0  0.18143304616E+02 -0.34477923859E+02 -0.13868235012E+03  0.19078314672E+03  0.12509000000E+03 0.  0.
<mgrwt>
<rscale>  2 0.45233924E+03</rscale>
<asrwt>0</asrwt>
<pdfrwt beam="1">  1       21 0.14629139E-01 0.45233924E+03</pdfrwt>
<pdfrwt beam="2">  1       21 0.75619177E-01 0.45233924E+03</pdfrwt>
<totfact> 0.59075200E+04</totfact>
</mgrwt>
</event>
<event>
 7    0  0.4737014E-002  0.4556555E+03  0.7546771E-02  0.1026049E+00
         21   -1    0    0  502  501  0.00000000000E+00  0.00000000000E+00  0.60650416136E+02  0.60650416136E+02  0.00000000000E+00 0. -1.
         21   -1    0    0  501  502 -0.00000000000E+00 -0.00000000000E+00 -0.85581431642E+03  0.85581431642E+03  0.00000000000E+00 0. -1.
      99926    2    1    2    0    0  0.00000000000E+00 -0.14210854715E-13 -0.79516390028E+03  0.91646473256E+03  0.45565554721E+03 0.  0.
      99925    2    3    3    0    0 -0.98139445123E+01 -0.73998857730E+02 -0.67278419844E+03  0.72621110191E+03  0.26300540376E+03 0.  0.
         25    1    4    4    0    0 -0.12565998210E+02  0.38894838043E+01 -0.32470970463E+03  0.34821966167E+03  0.12509000000E+03 0.  0.
         25    1    3    3    0    0  0.98139445123E+01  0.73998857730E+02 -0.12237970184E+03  0.19025363065E+03  0.12509000000E+03 0.  0.
         25    1    4    4    0    0  0.27520536975E+01 -0.77888341534E+02 -0.34807449381E+03  0.37799144024E+03  0.12509000000E+03 0.  0.
<mgrwt>
<rscale>  2 0.45565555E+03</rscale>
<asrwt>0</asrwt>
<pdfrwt beam="1">  1       21 0.89191797E-02 0.45565555E+03</pdfrwt>
<pdfrwt beam="2">  1       21 0.12585503E+00 0.45565555E+03</pdfrwt>
<totfact> 0.42312045E+04</totfact>
</mgrwt>
</event>
<event>
 7    0  0.4737014E-002  0.4563741E+03  0.7546771E-02  0.1025838E+00
         21   -1    0    0  502  501  0.00000000000E+00  0.00000000000E+00  0.77872832900E+03  0.77872832900E+03  0.00000000000E+00 0. -1.
         21   -1    0    0  501  502 -0.00000000000E+00 -0.00000000000E+00 -0.66864576119E+02  0.66864576119E+02  0.00000000000E+00 0. -1.
      99926    2    1    2    0    0  0.35527136788E-14 -0.14210854715E-13  0.71186375288E+03  0.84559290512E+03  0.45637414314E+03 0.  0.
      99925    2    3    3    0    0 -0.28917932798E+02  0.11018606383E+03  0.42745262366E+03  0.51466328416E+03  0.26303105348E+03 0.  0.
         25    1    4    4    0    0  0.13090196896E+02  0.79192782617E+02  0.25704137753E+03  0.29691855438E+03  0.12509000000E+03 0.  0.
         25    1    3    3    0    0  0.28917932798E+02 -0.11018606383E+03  0.28441112922E+03  0.33092962096E+03  0.12509000000E+03 0.  0.
         25    1    4    4    0    0 -0.42008129693E+02  0.30993281216E+02  0.17041124613E+03  0.21774472978E+03  0.12509000000E+03 0.  0.
<mgrwt>
<rscale>  2 0.45637414E+03</rscale>
<asrwt>0</asrwt>
<pdfrwt beam="1">  1       21 0.11451887E+00 0.45637414E+03</pdfrwt>
<pdfrwt beam="2">  1       21 0.98330264E-02 0.45637414E+03</pdfrwt>
<totfact> 0.45148495E+04</totfact>
</mgrwt>
</event>
<event>
 7    0  0.4737014E-002  0.4527280E+03  0.7546771E-02  0.1026912E+00
         21   -1    0    0  502  501  0.00000000000E+00  0.00000000000E+00  0.49034961346E+03  0.49034961346E+03  0.00000000000E+00 0.  1.
         21   -1    0    0  501  502 -0.00000000000E+00 -0.00000000000E+00 -0.10449823484E+03  0.10449823484E+03  0.00000000000E+00 0.  1.
      99926    2    1    2    0    0  0.00000000000E+00  0.00000000000E+00  0.38585137862E+03  0.59484784831E+03  0.45272803784E+03 0.  0.
      99925    2    3    3    0    0 -0.14780037048E+02 -0.96944008971E+02  0.17502412047E+03  0.33081710909E+03  0.26303978131E+03 0.  0.
         25    1    4    4    0    0 -0.47675149873E+02 -0.53642563001E+02  0.94603391104E+02  0.17247537270E+03  0.12509000000E+03 0.  0.
         25    1    4    4    0    0  0.32895112825E+02 -0.43301445971E+02  0.80420729367E+02  0.15834173639E+03  0.12509000000E+03 0.  0.
         25    1    3    3    0    0  0.14780037048E+02  0.96944008971E+02  0.21082725815E+03  0.26403073921E+03  0.12509000000E+03 0.  0.
<mgrwt>
<rscale>  2 0.45272804E+03</rscale>
<asrwt>0</asrwt>
<pdfrwt beam="1">  1       21 0.72110236E-01 0.45272804E+03</pdfrwt>
<pdfrwt beam="2">  1       21 0.15367388E-01 0.45272804E+03</pdfrwt>
<totfact> 0.60067725E+04</totfact>
</mgrwt>
</event>
<event>
 7    0  0.4737014E-002  0.4526302E+03  0.7546771E-02  0.1026941E+00
         21   -1    0    0  502  501  0.00000000000E+00  0.00000000000E+00  0.96775478157E+02  0.96775478157E+02  0.00000000000E+00 0. -1.
         21   -1    0    0  501  502 -0.00000000000E+00 -0.00000000000E+00 -0.52925112164E+03  0.52925112164E+03  0.00000000000E+00 0. -1.
      99926    2    1    2    0    0  0.00000000000E+00 -0.14210854715E-13 -0.43247564348E+03  0.62602659980E+03  0.45263022595E+03 0.  0.
      99925    2    3    3    0    0  0.41351957421E+02 -0.78252366438E+02 -0.18035361630E+03  0.33099025979E+03  0.26304696905E+03 0.  0.
         25    1    4    4    0    0  0.14766006267E+02 -0.78372335826E+02 -0.80818829173E+02  0.16893622824E+03  0.12509000000E+03 0.  0.
         25    1    4    4    0    0  0.26585951154E+02  0.11996938782E+00 -0.99534787132E+02  0.16205403155E+03  0.12509000000E+03 0.  0.
         25    1    3    3    0    0 -0.41351957421E+02  0.78252366438E+02 -0.25212202718E+03  0.29503634001E+03  0.12509000000E+03 0.  0.
<mgrwt>
<rscale>  2 0.45263023E+03</rscale>
<asrwt>0</asrwt>
<pdfrwt beam="1">  1       21 0.14231688E-01 0.45263023E+03</pdfrwt>
<pdfrwt beam="2">  1       21 0.77831047E-01 0.45263023E+03</pdfrwt>
<totfact> 0.58185171E+04</totfact>
</mgrwt>
</event>
<event>
 7    0  0.4737014E-002  0.4497738E+03  0.7546771E-02  0.1027790E+00
         21   -1    0    0  502  501  0.00000000000E+00  0.00000000000E+00  0.58343655419E+03  0.58343655419E+03  0.00000000000E+00 0.  1.
         21   -1    0    0  501  502 -0.00000000000E+00 -0.00000000000E+00 -0.86683166188E+02  0.86683166188E+02  0.00000000000E+00 0.  1.
      99926    2    1    2    0    0  0.00000000000E+00  0.00000000000E+00  0.49675338800E+03  0.67011972038E+03  0.44977384445E+03 0.  0.
      99925    2    3    3    0    0 -0.17231564641E+02 -0.10184483581E+03  0.26596230130E+03  0.38801808762E+03  0.26296918681E+03 0.  0.
         25    1    4    4    0    0 -0.25747529040E+00 -0.24012864412E+02  0.81018209649E+02  0.15095741898E+03  0.12509000000E+03 0.  0.
         25    1    3    3    0    0  0.17231564641E+02  0.10184483581E+03  0.23079108671E+03  0.28210163276E+03  0.12509000000E+03 0.  0.
         25    1    4    4    0    0 -0.16974089350E+02 -0.77831971400E+02  0.18494409165E+03  0.23706066864E+03  0.12509000000E+03 0.  0.
<mgrwt>
<rscale>  2 0.44977384E+03</rscale>
<asrwt>0</asrwt>
<pdfrwt beam="1">  1       21 0.85799491E-01 0.44977384E+03</pdfrwt>
<pdfrwt beam="2">  1       21 0.12747525E-01 0.44977384E+03</pdfrwt>
<totfact> 0.56861176E+04</totfact>
</mgrwt>
</event>
<event>
 7    0  0.4737014E-002  0.4541490E+03  0.7546771E-02  0.1026492E+00
         21   -1    0    0  502  501  0.00000000000E+00  0.00000000000E+00  0.38439615280E+03  0.38439615280E+03  0.00000000000E+00 0.  1.
         21   -1    0    0  501  502 -0.00000000000E+00 -0.00000000000E+00 -0.13413979580E+03  0.13413979580E+03  0.00000000000E+00 0.  1.
      99926    2    1    2    0    0  0.00000000000E+00  0.00000000000E+00  0.25025635700E+03  0.51853594861E+03  0.45414896871E+03 0.  0.
      99925    2    3    3    0    0  0.99919275338E+02  0.26336894767E+02  0.10697201772E+03  0.30207485835E+03  0.26292339923E+03 0.  0.
         25    1    4    4    0    0  0.28721778796E+02 -0.20418291271E+02  0.35562205127E+02  0.13473687591E+03  0.12509000000E+03 0.  0.
         25    1    3    3    0    0 -0.99919275338E+02 -0.26336894767E+02  0.14328433928E+03  0.21646109025E+03  0.12509000000E+03 0.  0.
         25    1    4    4    0    0  0.71197496542E+02  0.46755186037E+02  0.71409812590E+02  0.16733798245E+03  0.12509000000E+03 0.  0.
<mgrwt>
<rscale>  2 0.45414897E+03</rscale>
<asrwt>0</asrwt>
<pdfrwt beam="1">  1       21 0.56528846E-01 0.45414897E+03</pdfrwt>
<pdfrwt beam="2">  1       21 0.19726441E-01 0.45414897E+03</pdfrwt>
<totfact> 0.64421009E+04</totfact>
</mgrwt>
</event>
<event>
 7    0  0.4737014E-002  0.4496066E+03  0.7546771E-02  0.1027839E+00
         21   -1    0    0  502  501  0.00000000000E+00  0.00000000000E+00  0.11141413722E+04  0.11141413722E+04  0.00000000000E+00 0.  1.
         21   -1    0    0  501  502 -0.00000000000E+00 -0.00000000000E+00 -0.45359162185E+02  0.45359162185E+02  0.00000000000E+00 0.  1.
      99926    2    1    2    0    0  0.00000000000E+00  0.00000000000E+00  0.10687822100E+04  0.11595005343E+04  0.44960658001E+03 0.  0.
      99925    2    3    3    0    0  0.53119182322E+02  0.91389960410E+02  0.61878627958E+03  0.68062934304E+03  0.26303245125E+03 0.  0.
         25    1    3    3    0    0 -0.53119182322E+02 -0.91389960410E+02  0.44999593039E+03  0.47887119131E+03  0.12509000000E+03 0.  0.
         25    1    4    4    0    0  0.22895732205E+02  0.81282836686E+02  0.28003803175E+03  0.31811935091E+03  0.12509000000E+03 0.  0.
         25    1    4    4    0    0  0.30223450116E+02  0.10107123723E+02  0.33874824783E+03  0.36250999213E+03  0.12509000000E+03 0.  0.
<mgrwt>
<rscale>  2 0.44960658E+03</rscale>
<asrwt>0</asrwt>
<pdfrwt beam="1">  1       21 0.16384430E+00 0.44960658E+03</pdfrwt>
<pdfrwt beam="2">  1       21 0.66704658E-02 0.44960658E+03</pdfrwt>
<totfact> 0.34911160E+04</totfact>
</mgrwt>
</event>
<event>
 7    0  0.4737014E-002  0.4569989E+03  0.7546771E-02  0.1025655E+00
         21   -1    0    0  502  501  0.00000000000E+00  0.00000000000E+00  0.67988411660E+02  0.67988411660E+02  0.00000000000E+00 0. -1.
         21   -1    0    0  501  502 -0.00000000000E+00 -0.00000000000E+00 -0.76795440885E+03  0.76795440885E+03  0.00000000000E+00 0. -1.
      99926    2    1    2    0    0  0.00000000000E+00  0.14210854715E-13 -0.69996599719E+03  0.83594282051E+03  0.45699890803E+03 0.  0.
      99925    2    3    3    0    0  0.65278505651E+02  0.77975495092E+02 -0.34028785824E+03  0.44178887486E+03  0.26275487122E+03 0.  0.
         25    1    4    4    0    0  0.44241445561E+02  0.99694611802E+00 -0.17604393083E+03  0.22044789201E+03  0.12509000000E+03 0.  0.
         25    1    4    4    0    0  0.21037060090E+02  0.76978548974E+02 -0.16424392741E+03  0.22134098285E+03  0.12509000000E+03 0.  0.
         25    1    3    3    0    0 -0.65278505651E+02 -0.77975495092E+02 -0.35967813895E+03  0.39415394565E+03  0.12509000000E+03 0.  0.
<mgrwt>
<rscale>  2 0.45699891E+03</rscale>
<asrwt>0</asrwt>
<pdfrwt beam="1">  1       21 0.99982964E-02 0.45699891E+03</pdfrwt>
<pdfrwt beam="2">  1       21 0.11293447E+00 0.45699891E+03</pdfrwt>
<totfact> 0.45359345E+04</totfact>
</mgrwt>
</event>
<event>
 7    0  0.4737014E-002  0.4530800E+03  0.7546771E-02  0.1026808E+00
         21   -1    0    0  502  501  0.00000000000E+00  0.00000000000E+00  0.34636184834E+03  0.34636184834E+03  0.00000000000E+00 0. -1.
         21   -1    0    0  501  502 -0.00000000000E+00 -0.00000000000E+00 -0.14816981469E+03  0.14816981469E+03  0.00000000000E+00 0. -1.
      99926    2    1    2    0    0  0.00000000000E+00  0.00000000000E+00  0.19819203365E+03  0.49453166302E+03  0.45307999683E+03 0.  0.
      99925    2    3    3    0    0  0.10483926415E+03 -0.36799063869E+02  0.11825429685E+03  0.30910514854E+03  0.26309023494E+03 0.  0.
         25    1    4    4    0    0  0.28195642084E+02  0.83534747010E+00  0.85584193715E+02  0.15416826636E+03  0.12509000000E+03 0.  0.
         25    1    4    4    0    0  0.76643622068E+02 -0.37634411340E+02  0.32670103131E+02  0.15493688218E+03  0.12509000000E+03 0.  0.
         25    1    3    3    0    0 -0.10483926415E+03  0.36799063869E+02  0.79937736805E+02  0.18542651449E+03  0.12509000000E+03 0.  0.
<mgrwt>
<rscale>  2 0.45308000E+03</rscale>
<asrwt>0</asrwt>
<pdfrwt beam="1">  1       21 0.50935566E-01 0.45308000E+03</pdfrwt>
<pdfrwt beam="2">  1       21 0.21789679E-01 0.45308000E+03</pdfrwt>
<totfact> 0.66666909E+04</totfact>
</mgrwt>
</event>
<event>
 7    0  0.4737014E-002  0.4528316E+03  0.7546771E-02  0.1026881E+00
         21   -1    0    0  502  501  0.00000000000E+00  0.00000000000E+00  0.61831994701E+02  0.61831994701E+02  0.00000000000E+00 0. -1.
         21   -1    0    0  501  502 -0.00000000000E+00 -0.00000000000E+00 -0.82908714503E+03  0.82908714503E+03  0.00000000000E+00 0. -1.
      99926    2    1    2    0    0  0.00000000000E+00 -0.14210854715E-13 -0.76725515033E+03  0.89091913973E+03  0.45283158882E+03 0.  0.
      99925    2    3    3    0    0  0.64580699895E+02 -0.72052003064E+02 -0.59119825154E+03  0.65426391022E+03  0.26302800924E+03 0.  0.
         25    1    4    4    0    0  0.10681934560E+02 -0.76442169255E+01 -0.21612858647E+03  0.25006321554E+03  0.12509000000E+03 0.  0.
         25    1    4    4    0    0  0.53898765335E+02 -0.64407786138E+02 -0.37506966507E+03  0.40420069468E+03  0.12509000000E+03 0.  0.
         25    1    3    3    0    0 -0.64580699895E+02  0.72052003064E+02 -0.17605689879E+03  0.23665522951E+03  0.12509000000E+03 0.  0.
<mgrwt>
<rscale>  2 0.45283159E+03</rscale>
<asrwt>0</asrwt>
<pdfrwt beam="1">  1       21 0.90929410E-02 0.45283159E+03</pdfrwt>
<pdfrwt beam="2">  1       21 0.12192457E+00 0.45283159E+03</pdfrwt>
<totfact> 0.44377376E+04</totfact>
</mgrwt>
</event>
<event>
 7    0  0.4737014E-002  0.4552697E+03  0.7546771E-02  0.1026162E+00
         21   -1    0    0  502  501  0.00000000000E+00  0.00000000000E+00  0.10063646004E+03  0.10063646004E+03  0.00000000000E+00 0. -1.
         21   -1    0    0  501  502 -0.00000000000E+00 -0.00000000000E+00 -0.51489910063E+03  0.51489910063E+03  0.00000000000E+00 0. -1.
      99926    2    1    2    0    0 -0.35527136788E-14  0.00000000000E+00 -0.41426264059E+03  0.61553556066E+03  0.45526969046E+03 0.  0.
      99925    2    3    3    0    0 -0.21507225623E+02  0.36226026602E+02 -0.11821408396E+03  0.29139494035E+03  0.26298584725E+03 0.  0.
         25    1    4    4    0    0  0.77778201429E+01  0.45472798815E+02 -0.34299905434E+02  0.13766721298E+03  0.12509000000E+03 0.  0.
         25    1    4    4    0    0 -0.29285045766E+02 -0.92467722134E+01 -0.83914178528E+02  0.15372772736E+03  0.12509000000E+03 0.  0.
         25    1    3    3    0    0  0.21507225623E+02 -0.36226026602E+02 -0.29604855663E+03  0.32414062032E+03  0.12509000000E+03 0.  0.
<mgrwt>
<rscale>  2 0.45526969E+03</rscale>
<asrwt>0</asrwt>
<pdfrwt beam="1">  1       21 0.14799480E-01 0.45526969E+03</pdfrwt>
<pdfrwt beam="2">  1       21 0.75720455E-01 0.45526969E+03</pdfrwt>
<totfact> 0.57609262E+04</totfact>
</mgrwt>
</event>
<event>
 7    0  0.4737014E-002  0.4562134E+03  0.7546771E-02  0.1025885E+00
         21   -1    0    0  502  501  0.00000000000E+00  0.00000000000E+00  0.27912970042E+03  0.27912970042E+03  0.00000000000E+00 0.  1.
         21   -1    0    0  501  502 -0.00000000000E+00 -0.00000000000E+00 -0.18641034547E+03  0.18641034547E+03  0.00000000000E+00 0.  1.
      99926    2    1    2    0    0  0.00000000000E+00  0.00000000000E+00  0.92719354950E+02  0.46554004589E+03  0.45621338817E+03 0.  0.
      99925    2    3    3    0    0  0.64649709876E+02 -0.66533707792E+02 -0.97058624112E+01  0.27914060246E+03  0.26309495038E+03 0.  0.
         25    1    4    4    0    0  0.57167097964E+01 -0.21784615639E+02  0.25419759899E+02  0.12961837271E+03  0.12509000000E+03 0.  0.
         25    1    4    4    0    0  0.58933000080E+02 -0.44749092153E+02 -0.35125622310E+02  0.14952222975E+03  0.12509000000E+03 0.  0.
         25    1    3    3    0    0 -0.64649709876E+02  0.66533707792E+02  0.10242521736E+03  0.18639944343E+03  0.12509000000E+03 0.  0.
<mgrwt>
<rscale>  2 0.45621339E+03</rscale>
<asrwt>0</asrwt>
<pdfrwt beam="1">  1       21 0.41048486E-01 0.45621339E+03</pdfrwt>
<pdfrwt beam="2">  1       21 0.27413286E-01 0.45621339E+03</pdfrwt>
<totfact> 0.67120443E+04</totfact>
</mgrwt>
</event>
<event>
 7    0  0.4737014E-002  0.4678304E+03  0.7546771E-02  0.1022534E+00
         21   -1    0    0  502  501  0.00000000000E+00  0.00000000000E+00  0.45610399089E+02  0.45610399089E+02  0.00000000000E+00 0.  1.
         21   -1    0    0  501  502 -0.00000000000E+00 -0.00000000000E+00 -0.11996456624E+04  0.11996456624E+04  0.00000000000E+00 0.  1.
      99926    2    1    2    0    0  0.00000000000E+00  0.00000000000E+00 -0.11540352633E+04  0.12452560615E+04  0.46783038562E+03 0.  0.
      99925    2    3    3    0    0 -0.48588383906E+02  0.74257066620E+02 -0.48449031116E+03  0.55836968512E+03  0.26300361339E+03 0.  0.
         25    1    3    3    0    0  0.48588383906E+02 -0.74257066620E+02 -0.66954495213E+03  0.68688637635E+03  0.12509000000E+03 0.  0.
         25    1    4    4    0    0 -0.20194136111E+02  0.78766600877E+02 -0.26408161902E+03  0.30331269368E+03  0.12509000000E+03 0.  0.
         25    1    4    4    0    0 -0.28394247795E+02 -0.45095342564E+01 -0.22040869214E+03  0.25505699143E+03  0.12509000000E+03 0.  0.
<mgrwt>
<rscale>  2 0.46783039E+03</rscale>
<asrwt>0</asrwt>
<pdfrwt beam="1">  1       21 0.67074130E-02 0.46783039E+03</pdfrwt>
<pdfrwt beam="2">  1       21 0.17641844E+00 0.46783039E+03</pdfrwt>
<totfact> 0.27858610E+04</totfact>
</mgrwt>
</event>
<event>
 7    0  0.4737014E-002  0.4533224E+03  0.7546771E-02  0.1026736E+00
         21   -1    0    0  502  501  0.00000000000E+00  0.00000000000E+00  0.15258647318E+04  0.15258647318E+04  0.00000000000E+00 0. -1.
         21   -1    0    0  501  502 -0.00000000000E+00 -0.00000000000E+00 -0.33669623297E+02  0.33669623297E+02  0.00000000000E+00 0. -1.
      99926    2    1    2    0    0  0.00000000000E+00  0.00000000000E+00  0.14921951085E+04  0.15595343551E+04  0.45332236089E+03 0.  0.
      99925    2    3    3    0    0 -0.45114914638E+02  0.82421809078E+02  0.73366590495E+03  0.78503918347E+03  0.26304400651E+03 0.  0.
         25    1    4    4    0    0 -0.15788128020E+02  0.80071752423E+01  0.40825484655E+03  0.42735571562E+03  0.12509000000E+03 0.  0.
         25    1    4    4    0    0 -0.29326786618E+02  0.74414633835E+02  0.32541105840E+03  0.35768346785E+03  0.12509000000E+03 0.  0.
         25    1    3    3    0    0  0.45114914638E+02 -0.82421809078E+02  0.75852920355E+03  0.77449517163E+03  0.12509000000E+03 0.  0.
<mgrwt>
<rscale>  2 0.45332236E+03</rscale>
<asrwt>0</asrwt>
<pdfrwt beam="1">  1       21 0.22439183E+00 0.45332236E+03</pdfrwt>
<pdfrwt beam="2">  1       21 0.49514162E-02 0.45332236E+03</pdfrwt>
<totfact> 0.22650739E+04</totfact>
</mgrwt>
</event>
<event>
 7    0  0.4737014E-002  0.4540057E+03  0.7546771E-02  0.1026534E+00
         21   -1    0    0  502  501  0.00000000000E+00  0.00000000000E+00  0.28738978965E+03  0.28738978965E+03  0.00000000000E+00 0. -1.
         21   -1    0    0  501  502 -0.00000000000E+00 -0.00000000000E+00 -0.17930455922E+03  0.17930455922E+03  0.00000000000E+00 0. -1.
      99926    2    1    2    0    0 -0.35527136788E-14  0.17763568394E-14  0.10808523043E+03  0.46669434888E+03  0.45400572490E+03 0.  0.
      99925    2    3    3    0    0  0.31538228108E+02  0.12258211804E+02  0.17805796222E+03  0.31942379893E+03  0.26302471713E+03 0.  0.
         25    1    4    4    0    0  0.60831151559E+01  0.45541218477E+02  0.88101251154E+02  0.15975088552E+03  0.12509000000E+03 0.  0.
         25    1    4    4    0    0  0.25455112952E+02 -0.33283006673E+02  0.89956711069E+02  0.15967291340E+03  0.12509000000E+03 0.  0.
         25    1    3    3    0    0 -0.31538228108E+02 -0.12258211804E+02 -0.69972731792E+02  0.14727054995E+03  0.12509000000E+03 0.  0.
<mgrwt>
<rscale>  2 0.45400572E+03</rscale>
<asrwt>0</asrwt>
<pdfrwt beam="1">  1       21 0.42263204E-01 0.45400572E+03</pdfrwt>
<pdfrwt beam="2">  1       21 0.26368317E-01 0.45400572E+03</pdfrwt>
<totfact> 0.68218986E+04</totfact>
</mgrwt>
</event>
<event>
 7    0  0.4737014E-002  0.4518248E+03  0.7546771E-02  0.1027179E+00
         21   -1    0    0  502  501  0.00000000000E+00  0.00000000000E+00  0.11499438936E+03  0.11499438936E+03  0.00000000000E+00 0.  1.
         21   -1    0    0  501  502 -0.00000000000E+00 -0.00000000000E+00 -0.44381645572E+03  0.44381645572E+03  0.00000000000E+00 0.  1.
      99926    2    1    2    0    0 -0.71054273576E-14  0.00000000000E+00 -0.32882206636E+03  0.55881084508E+03  0.45182475503E+03 0.  0.
      99925    2    3    3    0    0 -0.47929615101E+02  0.61549445379E+02 -0.11096252954E+03  0.29575976998E+03  0.26282232848E+03 0.  0.
         25    1    4    4    0    0  0.92613436891E+01  0.72730960576E+01 -0.61112491425E+02  0.13971726852E+03  0.12509000000E+03 0.  0.
         25    1    4    4    0    0 -0.57190958790E+02  0.54276349322E+02 -0.49850038119E+02  0.15604250147E+03  0.12509000000E+03 0.  0.
         25    1    3    3    0    0  0.47929615101E+02 -0.61549445379E+02 -0.21785953682E+03  0.26305107510E+03  0.12509000000E+03 0.  0.
<mgrwt>
<rscale>  2 0.45182476E+03</rscale>
<asrwt>0</asrwt>
<pdfrwt beam="1">  1       21 0.16910940E-01 0.45182476E+03</pdfrwt>
<pdfrwt beam="2">  1       21 0.65267126E-01 0.45182476E+03</pdfrwt>
<totfact> 0.62851812E+04</totfact>
</mgrwt>
</event>
<event>
 7    0  0.4737014E-002  0.4471583E+03  0.7546771E-02  0.1028573E+00
         21   -1    0    0  502  501  0.00000000000E+00  0.00000000000E+00  0.41907015109E+03  0.41907015109E+03  0.00000000000E+00 0. -1.
         21   -1    0    0  501  502 -0.00000000000E+00 -0.00000000000E+00 -0.11928225396E+03  0.11928225396E+03  0.00000000000E+00 0. -1.
      99926    2    1    2    0    0  0.71054273576E-14  0.00000000000E+00  0.29978789713E+03  0.53835240505E+03  0.44715828154E+03 0.  0.
      99925    2    3    3    0    0 -0.55429189153E+02  0.61129081474E+02  0.11059505098E+03  0.29700079277E+03  0.26300008744E+03 0.  0.
         25    1    4    4    0    0 -0.53678387138E+02  0.61990605263E+01  0.76145155298E+02  0.15609417149E+03  0.12509000000E+03 0.  0.
         25    1    3    3    0    0  0.55429189153E+02 -0.61129081474E+02  0.18919284615E+03  0.24135161227E+03  0.12509000000E+03 0.  0.
         25    1    4    4    0    0 -0.17508020152E+01  0.54930020948E+02  0.34449895682E+02  0.14090662128E+03  0.12509000000E+03 0.  0.
<mgrwt>
<rscale>  2 0.44715828E+03</rscale>
<asrwt>0</asrwt>
<pdfrwt beam="1">  1       21 0.61627963E-01 0.44715828E+03</pdfrwt>
<pdfrwt beam="2">  1       21 0.17541508E-01 0.44715828E+03</pdfrwt>
<totfact> 0.66686026E+04</totfact>
</mgrwt>
</event>
<event>
 7    0  0.4737014E-002  0.4549164E+03  0.7546771E-02  0.1026266E+00
         21   -1    0    0  502  501  0.00000000000E+00  0.00000000000E+00  0.10735224790E+04  0.10735224790E+04  0.00000000000E+00 0. -1.
         21   -1    0    0  501  502 -0.00000000000E+00 -0.00000000000E+00 -0.48193895039E+02  0.48193895039E+02  0.00000000000E+00 0. -1.
      99926    2    1    2    0    0  0.00000000000E+00  0.00000000000E+00  0.10253285840E+04  0.11217163741E+04  0.45491638650E+03 0.  0.
      99925    2    3    3    0    0 -0.24357139039E+02 -0.86400313791E+02  0.47573664397E+03  0.55096503322E+03  0.26301868559E+03 0.  0.
         25    1    4    4    0    0  0.98078097230E+01 -0.70913196563E+02  0.20770819979E+03  0.25281431711E+03  0.12509000000E+03 0.  0.
         25    1    3    3    0    0  0.24357139039E+02  0.86400313791E+02  0.54959194003E+03  0.57075134086E+03  0.12509000000E+03 0.  0.
         25    1    4    4    0    0 -0.34164948762E+02 -0.15487117228E+02  0.26802844418E+03  0.29815071611E+03  0.12509000000E+03 0.  0.
<mgrwt>
<rscale>  2 0.45491639E+03</rscale>
<asrwt>0</asrwt>
<pdfrwt beam="1">  1       21 0.15787094E+00 0.45491639E+03</pdfrwt>
<pdfrwt beam="2">  1       21 0.70873382E-02 0.45491639E+03</pdfrwt>
<totfact> 0.34763497E+04</totfact>
</mgrwt>
</event>
<event>
 7    0  0.4737014E-002  0.4513130E+03  0.7546771E-02  0.1027331E+00
         21   -1    0    0  502  501  0.00000000000E+00  0.00000000000E+00  0.53580060255E+03  0.53580060255E+03  0.00000000000E+00 0. -1.
         21   -1    0    0  501  502 -0.00000000000E+00 -0.00000000000E+00 -0.95036951772E+02  0.95036951772E+02  0.00000000000E+00 0. -1.
      99926    2    1    2    0    0  0.17763568394E-14  0.14210854715E-13  0.44076365078E+03  0.63083755432E+03  0.45131300014E+03 0.  0.
      99925    2    3    3    0    0 -0.12936424504E+02 -0.82604626903E+02  0.18060778867E+03  0.33030559902E+03  0.26361285999E+03 0.  0.
         25    1    4    4    0    0 -0.16329150327E+02 -0.74017801169E+02  0.66242714983E+02  0.16056425950E+03  0.12509000000E+03 0.  0.
         25    1    4    4    0    0  0.33927258235E+01 -0.85868257339E+01  0.11436507369E+03  0.16974133953E+03  0.12509000000E+03 0.  0.
         25    1    3    3    0    0  0.12936424504E+02  0.82604626903E+02  0.26015586211E+03  0.30053195530E+03  0.12509000000E+03 0.  0.
<mgrwt>
<rscale>  2 0.45131300E+03</rscale>
<asrwt>0</asrwt>
<pdfrwt beam="1">  1       21 0.78794205E-01 0.45131300E+03</pdfrwt>
<pdfrwt beam="2">  1       21 0.13976023E-01 0.45131300E+03</pdfrwt>
<totfact> 0.58503343E+04</totfact>
</mgrwt>
</event>
<event>
 7    0  0.4737014E-002  0.4545501E+03  0.7546771E-02  0.1026374E+00
         21   -1    0    0  502  501  0.00000000000E+00  0.00000000000E+00  0.44377822336E+02  0.44377822336E+02  0.00000000000E+00 0.  1.
         21   -1    0    0  501  502 -0.00000000000E+00 -0.00000000000E+00 -0.11639588099E+04  0.11639588099E+04  0.00000000000E+00 0.  1.
      99926    2    1    2    0    0  0.71054273576E-14  0.00000000000E+00 -0.11195809875E+04  0.12083366322E+04  0.45455013924E+03 0.  0.
      99925    2    3    3    0    0  0.52074831654E+02 -0.99708864291E+02 -0.72282719854E+03  0.77739032129E+03  0.26306445404E+03 0.  0.
         25    1    4    4    0    0  0.80174939904E+01 -0.34747817186E+02 -0.24675477195E+03  0.27893927043E+03  0.12509000000E+03 0.  0.
         25    1    4    4    0    0  0.44057337663E+02 -0.64961047104E+02 -0.47607242659E+03  0.49845105086E+03  0.12509000000E+03 0.  0.
         25    1    3    3    0    0 -0.52074831654E+02  0.99708864291E+02 -0.39675378899E+03  0.43094631091E+03  0.12509000000E+03 0.  0.
<mgrwt>
<rscale>  2 0.45455014E+03</rscale>
<asrwt>0</asrwt>
<pdfrwt beam="1">  1       21 0.65261501E-02 0.45455014E+03</pdfrwt>
<pdfrwt beam="2">  1       21 0.17117042E+00 0.45455014E+03</pdfrwt>
<totfact> 0.32004837E+04</totfact>
</mgrwt>
</event>
<event>
 7    0  0.4737014E-002  0.4608706E+03  0.7546771E-02  0.1024529E+00
         21   -1    0    0  502  501  0.00000000000E+00  0.00000000000E+00  0.79269445972E+02  0.79269445972E+02  0.00000000000E+00 0.  1.
         21   -1    0    0  501  502 -0.00000000000E+00 -0.00000000000E+00 -0.66987244865E+03  0.66987244865E+03  0.00000000000E+00 0.  1.
      99926    2    1    2    0    0  0.00000000000E+00  0.00000000000E+00 -0.59060300267E+03  0.74914189462E+03  0.46087055830E+03 0.  0.
      99925    2    3    3    0    0 -0.95338523364E+02 -0.32819683273E+02 -0.47115127100E+03  0.54893502674E+03  0.26302010905E+03 0.  0.
         25    1    3    3    0    0  0.95338523364E+02  0.32819683273E+02 -0.11945173167E+03  0.20020686788E+03  0.12509000000E+03 0.  0.
         25    1    4    4    0    0 -0.17930757604E+02 -0.12271649919E+02 -0.16088042864E+03  0.20494420187E+03  0.12509000000E+03 0.  0.
         25    1    4    4    0    0 -0.77407765760E+02 -0.20548033354E+02 -0.31027084236E+03  0.34399082487E+03  0.12509000000E+03 0.  0.
<mgrwt>
<rscale>  2 0.46087056E+03</rscale>
<asrwt>0</asrwt>
<pdfrwt beam="1">  1       21 0.11657271E-01 0.46087056E+03</pdfrwt>
<pdfrwt beam="2">  1       21 0.98510655E-01 0.46087056E+03</pdfrwt>
<totfact> 0.48058593E+04</totfact>
</mgrwt>
</event>
<event>
 6    0  0.4737014E-002  0.4550503E+03  0.7546771E-02  0.1026227E+00
         21   -1    0    0  502  501  0.00000000000E+00  0.00000000000E+00  0.16771379560E+04  0.16771379560E+04  0.00000000000E+00 0. -1.
         21   -1    0    0  501  502 -0.00000000000E+00 -0.00000000000E+00 -0.30866688866E+02  0.30866688866E+02  0.00000000000E+00 0. -1.
      99926    2    1    2    0    0  0.71054273576E-14  0.14210854715E-13  0.16462712672E+04  0.17080046449E+04  0.45505030700E+03 0.  0.
         25    1    3    3    0    0 -0.49479315166E+02 -0.99339859902E+02  0.58926134704E+03  0.61253004303E+03  0.12509000000E+03 0.  0.
         25    1    3    3    0    0  0.65989968222E+02  0.46383836087E+02  0.61579787623E+03  0.63353032179E+03  0.12509000000E+03 0.  0.
         25    1    3    3    0    0 -0.16510653055E+02  0.52956023816E+02  0.44121204389E+03  0.46194428008E+03  0.12509000000E+03 0.  0.
<mgrwt>
<rscale>  2 0.45505031E+03</rscale>
<asrwt>0</asrwt>
<pdfrwt beam="1">  1       21 0.24663787E+00 0.45505031E+03</pdfrwt>
<pdfrwt beam="2">  1       21 0.45392201E-02 0.45505031E+03</pdfrwt>
<totfact> 0.19088297E+04</totfact>
</mgrwt>
</event>
<event>
 7    0  0.4737014E-002  0.4567988E+03  0.7546771E-02  0.1025714E+00
         21   -1    0    0  502  501  0.00000000000E+00  0.00000000000E+00  0.14446868336E+03  0.14446868336E+03  0.00000000000E+00 0. -1.
         21   -1    0    0  501  502 -0.00000000000E+00 -0.00000000000E+00 -0.36109056508E+03  0.36109056508E+03  0.00000000000E+00 0. -1.
      99926    2    1    2    0    0  0.71054273576E-14  0.00000000000E+00 -0.21662188172E+03  0.50555924843E+03  0.45679876755E+03 0.  0.
      99925    2    3    3    0    0 -0.58457284357E+02 -0.75894626027E+02 -0.65746251488E+02  0.28741202234E+03  0.26287992058E+03 0.  0.
         25    1    4    4    0    0  0.39657599238E+01 -0.18170782976E+02 -0.12572427767E+02  0.12708846779E+03  0.12509000000E+03 0.  0.
         25    1    3    3    0    0  0.58457284357E+02  0.75894626027E+02 -0.15087563023E+03  0.21814722609E+03  0.12509000000E+03 0.  0.
         25    1    4    4    0    0 -0.62423044280E+02 -0.57723843051E+02 -0.53173823721E+02  0.16032355455E+03  0.12509000000E+03 0.  0.
<mgrwt>
<rscale>  2 0.45679877E+03</rscale>
<asrwt>0</asrwt>
<pdfrwt beam="1">  1       21 0.21245395E-01 0.45679877E+03</pdfrwt>
<pdfrwt beam="2">  1       21 0.53101553E-01 0.45679877E+03</pdfrwt>
<totfact> 0.63963716E+04</totfact>
</mgrwt>
</event>
<event>
 7    0  0.4737014E-002  0.4582256E+03  0.7546771E-02  0.1025297E+00
         21   -1    0    0  502  501  0.00000000000E+00  0.00000000000E+00  0.54230206112E+03  0.54230206112E+03  0.00000000000E+00 0. -1.
         21   -1    0    0  501  502 -0.00000000000E+00 -0.00000000000E+00 -0.96795999754E+02  0.96795999754E+02  0.00000000000E+00 0. -1.
      99926    2    1    2    0    0  0.00000000000E+00  0.71054273576E-14  0.44550606136E+03  0.63909806087E+03  0.45822557840E+03 0.  0.
      99925    2    3    3    0    0 -0.45893711772E+02 -0.63502582396E+02  0.39894370787E+03  0.48432606206E+03  0.26320494220E+03 0.  0.
         25    1    4    4    0    0 -0.20825860752E+02  0.10182735110E+02  0.19038236401E+03  0.22897676126E+03  0.12509000000E+03 0.  0.
         25    1    4    4    0    0 -0.25067851020E+02 -0.73685317506E+02  0.20856134386E+03  0.25534930081E+03  0.12509000000E+03 0.  0.
         25    1    3    3    0    0  0.45893711772E+02  0.63502582396E+02  0.46562353495E+02  0.15477199881E+03  0.12509000000E+03 0.  0.
<mgrwt>
<rscale>  2 0.45822558E+03</rscale>
<asrwt>0</asrwt>
<pdfrwt beam="1">  1       21 0.79750302E-01 0.45822558E+03</pdfrwt>
<pdfrwt beam="2">  1       21 0.14234706E-01 0.45822558E+03</pdfrwt>
<totfact> 0.54922435E+04</totfact>
</mgrwt>
</event>
<event>
 7    0  0.4737014E-002  0.3956085E+03  0.7546771E-02  0.1045311E+00
         21   -1    0    0  502  501  0.00000000000E+00  0.00000000000E+00  0.40117829238E+03  0.40117829238E+03  0.00000000000E+00 0. -1.
         21   -1    0    0  501  502 -0.00000000000E+00 -0.00000000000E+00 -0.97529029810E+02  0.97529029810E+02  0.00000000000E+00 0. -1.
      99926    2    1    2    0    0  0.00000000000E+00 -0.44408920985E-15  0.30364926257E+03  0.49870732218E+03  0.39560854205E+03 0.  0.
      99925    2    3    3    0    0  0.35715280712E+02  0.35229998800E+01  0.19922576134E+03  0.33185478695E+03  0.26296140941E+03 0.  0.
         25    1    3    3    0    0 -0.35715280712E+02 -0.35229998800E+01  0.10442350123E+03  0.16685253523E+03  0.12509000000E+03 0.  0.
         25    1    4    4    0    0  0.16581760035E+02 -0.14647731772E+02  0.53056927842E+02  0.13766646834E+03  0.12509000000E+03 0.  0.
         25    1    4    4    0    0  0.19133520677E+02  0.18170731652E+02  0.14616883349E+03  0.19418831862E+03  0.12509000000E+03 0.  0.
<mgrwt>
<rscale>  2 0.39560854E+03</rscale>
<asrwt>0</asrwt>
<pdfrwt beam="1">  1       21 0.58996807E-01 0.39560854E+03</pdfrwt>
<pdfrwt beam="2">  1       21 0.14342505E-01 0.39560854E+03</pdfrwt>
<totfact> 0.10787649E+05</totfact>
</mgrwt>
</event>
<event>
 7    0  0.4737014E-002  0.4323122E+03  0.7546771E-02  0.1033132E+00
         21   -1    0    0  502  501  0.00000000000E+00  0.00000000000E+00  0.16854959556E+04  0.16854959556E+04  0.00000000000E+00 0. -1.
         21   -1    0    0  501  502 -0.00000000000E+00 -0.00000000000E+00 -0.27720900522E+02  0.27720900522E+02  0.00000000000E+00 0. -1.
      99926    2    1    2    0    0  0.71054273576E-14  0.00000000000E+00  0.16577750551E+04  0.17132168561E+04  0.43231222844E+03 0.  0.
      99925    2    3    3    0    0 -0.54322792751E+02 -0.70937734882E+02  0.10141281527E+04  0.10514676808E+04  0.26295483558E+03 0.  0.
         25    1    3    3    0    0  0.54322792751E+02  0.70937734882E+02  0.64364690241E+03  0.66174917539E+03  0.12509000000E+03 0.  0.
         25    1    4    4    0    0 -0.68210108448E+02 -0.33784063612E+02  0.52363789835E+03  0.54372616135E+03  0.12509000000E+03 0.  0.
         25    1    4    4    0    0  0.13887315698E+02 -0.37153671270E+02  0.49049025433E+03  0.50774151940E+03  0.12509000000E+03 0.  0.
<mgrwt>
<rscale>  2 0.43231223E+03</rscale>
<asrwt>0</asrwt>
<pdfrwt beam="1">  1       21 0.24786698E+00 0.43231223E+03</pdfrwt>
<pdfrwt beam="2">  1       21 0.40766041E-02 0.43231223E+03</pdfrwt>
<totfact> 0.22736493E+04</totfact>
</mgrwt>
</event>
<event>
 7    0  0.4737014E-002  0.4603144E+03  0.7546771E-02  0.1024690E+00
         21   -1    0    0  502  501  0.00000000000E+00  0.00000000000E+00  0.57871362946E+03  0.57871362946E+03  0.00000000000E+00 0.  1.
         21   -1    0    0  501  502 -0.00000000000E+00 -0.00000000000E+00 -0.91534611183E+02  0.91534611183E+02  0.00000000000E+00 0.  1.
      99926    2    1    2    0    0  0.00000000000E+00  0.00000000000E+00  0.48717901827E+03  0.67024824064E+03  0.46031435806E+03 0.  0.
      99925    2    3    3    0    0  0.20091679409E+02  0.10538593462E+03  0.37666638961E+03  0.47182843319E+03  0.26312474323E+03 0.  0.
         25    1    3    3    0    0 -0.20091679409E+02 -0.10538593462E+03  0.11051262866E+03  0.19841980745E+03  0.12509000000E+03 0.  0.
         25    1    4    4    0    0 -0.12665856658E+02  0.49339332144E+02  0.12843821621E+03  0.18638314598E+03  0.12509000000E+03 0.  0.
         25    1    4    4    0    0  0.32757536066E+02  0.56046602473E+02  0.24822817340E+03  0.28544528721E+03  0.12509000000E+03 0.  0.
<mgrwt>
<rscale>  2 0.46031436E+03</rscale>
<asrwt>0</asrwt>
<pdfrwt beam="1">  1       21 0.85104943E-01 0.46031436E+03</pdfrwt>
<pdfrwt beam="2">  1       21 0.13460973E-01 0.46031436E+03</pdfrwt>
<totfact> 0.52321629E+04</totfact>
</mgrwt>
</event>
<event>
 7    0  0.4737014E-002  0.4594986E+03  0.7546771E-02  0.1024927E+00
         21   -1    0    0  502  501  0.00000000000E+00  0.00000000000E+00  0.55214336438E+02  0.55214336438E+02  0.00000000000E+00 0.  1.
         21   -1    0    0  501  502 -0.00000000000E+00 -0.00000000000E+00 -0.95599717860E+03  0.95599717860E+03  0.00000000000E+00 0.  1.
      99926    2    1    2    0    0  0.35527136788E-14 -0.71054273576E-14 -0.90078284217E+03  0.10112115150E+04  0.45949863919E+03 0.  0.
      99925    2    3    3    0    0  0.27790993592E+02 -0.61532661767E+02 -0.77575163001E+03  0.82189981466E+03  0.26300210282E+03 0.  0.
         25    1    4    4    0    0 -0.53264030185E+01 -0.94113099939E+01 -0.27936224314E+03  0.30628045044E+03  0.12509000000E+03 0.  0.
         25    1    4    4    0    0  0.33117396611E+02 -0.52121351773E+02 -0.49638938686E+03  0.51561936422E+03  0.12509000000E+03 0.  0.
         25    1    3    3    0    0 -0.27790993592E+02  0.61532661767E+02 -0.12503121216E+03  0.18931170039E+03  0.12509000000E+03 0.  0.
<mgrwt>
<rscale>  2 0.45949864E+03</rscale>
<asrwt>0</asrwt>
<pdfrwt beam="1">  1       21 0.81197566E-02 0.45949864E+03</pdfrwt>
<pdfrwt beam="2">  1       21 0.14058780E+00 0.45949864E+03</pdfrwt>
<totfact> 0.37402258E+04</totfact>
</mgrwt>
</event>
<event>
 7    0  0.4737014E-002  0.4463625E+03  0.7546771E-02  0.1028812E+00
         21   -1    0    0  502  501  0.00000000000E+00  0.00000000000E+00  0.44731948139E+02  0.44731948139E+02  0.00000000000E+00 0.  1.
         21   -1    0    0  501  502 -0.00000000000E+00 -0.00000000000E+00 -0.11135187619E+04  0.11135187619E+04  0.00000000000E+00 0.  1.
      99926    2    1    2    0    0  0.00000000000E+00 -0.14210854715E-13 -0.10687868138E+04  0.11582507101E+04  0.44636246935E+03 0.  0.
      99925    2    3    3    0    0 -0.51012749244E+02  0.82128738702E+02 -0.57242914372E+03  0.63732281194E+03  0.26297872868E+03 0.  0.
         25    1    3    3    0    0  0.51012749244E+02 -0.82128738702E+02 -0.49635767007E+03  0.52092789813E+03  0.12509000000E+03 0.  0.
         25    1    4    4    0    0 -0.32769742511E+01  0.47465861813E+01 -0.24099063755E+03  0.27158288629E+03  0.12509000000E+03 0.  0.
         25    1    4    4    0    0 -0.47735774993E+02  0.77382152520E+02 -0.33143850617E+03  0.36573992565E+03  0.12509000000E+03 0.  0.
<mgrwt>
<rscale>  2 0.44636247E+03</rscale>
<asrwt>0</asrwt>
<pdfrwt beam="1">  1       21 0.65782284E-02 0.44636247E+03</pdfrwt>
<pdfrwt beam="2">  1       21 0.16375274E+00 0.44636247E+03</pdfrwt>
<totfact> 0.35861908E+04</totfact>
</mgrwt>
</event>
<event>
 7    0  0.4737014E-002  0.4412282E+03  0.7546771E-02  0.1030371E+00
         21   -1    0    0  502  501  0.00000000000E+00  0.00000000000E+00  0.17233446352E+03  0.17233446352E+03  0.00000000000E+00 0.  1.
         21   -1    0    0  501  502 -0.00000000000E+00 -0.00000000000E+00 -0.28241934592E+03  0.28241934592E+03  0.00000000000E+00 0.  1.
      99926    2    1    2    0    0  0.00000000000E+00  0.00000000000E+00 -0.11008488240E+03  0.45475380945E+03  0.44122822425E+03 0.  0.
      99925    2    3    3    0    0 -0.75677015593E+02 -0.19034765176E+02 -0.63565820303E+01  0.27448622675E+03  0.26308354104E+03 0.  0.
         25    1    3    3    0    0  0.75677015593E+02  0.19034765176E+02 -0.10372830037E+03  0.18026758270E+03  0.12509000000E+03 0.  0.
         25    1    4    4    0    0 -0.29261215406E+02  0.24061063723E+02 -0.24908556433E+02  0.13305298869E+03  0.12509000000E+03 0.  0.
         25    1    4    4    0    0 -0.46415800186E+02 -0.43095828898E+02  0.18551974403E+02  0.14143323807E+03  0.12509000000E+03 0.  0.
<mgrwt>
<rscale>  2 0.44122822E+03</rscale>
<asrwt>0</asrwt>
<pdfrwt beam="1">  1       21 0.25343304E-01 0.44122822E+03</pdfrwt>
<pdfrwt beam="2">  1       21 0.41532256E-01 0.44122822E+03</pdfrwt>
<totfact> 0.76620741E+04</totfact>
</mgrwt>
</event>
<event>
 7    0  0.4737014E-002  0.4605477E+03  0.7546771E-02  0.1024622E+00
         21   -1    0    0  502  501  0.00000000000E+00  0.00000000000E+00  0.21971738635E+03  0.21971738635E+03  0.00000000000E+00 0.  1.
         21   -1    0    0  501  502 -0.00000000000E+00 -0.00000000000E+00 -0.24133753744E+03  0.24133753744E+03  0.00000000000E+00 0.  1.
      99926    2    1    2    0    0 -0.35527136788E-14  0.00000000000E+00 -0.21620151088E+02  0.46105492379E+03  0.46054773023E+03 0.  0.
      99925    2    3    3    0    0 -0.22728020167E+02 -0.68595475818E+02 -0.10743381207E+03  0.29302696566E+03  0.26287045560E+03 0.  0.
         25    1    4    4    0    0  0.96727988241E+01  0.29449233846E-02 -0.38025250318E+02  0.13109916402E+03  0.12509000000E+03 0.  0.
         25    1    3    3    0    0  0.22728020167E+02  0.68595475818E+02  0.85813660979E+02  0.16802795813E+03  0.12509000000E+03 0.  0.
         25    1    4    4    0    0 -0.32400818991E+02 -0.68598420741E+02 -0.69408561749E+02  0.16192780164E+03  0.12509000000E+03 0.  0.
<mgrwt>
<rscale>  2 0.46054773E+03</rscale>
<asrwt>0</asrwt>
<pdfrwt beam="1">  1       21 0.32311380E-01 0.46054773E+03</pdfrwt>
<pdfrwt beam="2">  1       21 0.35490814E-01 0.46054773E+03</pdfrwt>
<totfact> 0.65171572E+04</totfact>
</mgrwt>
</event>
<event>
 7    0  0.4737014E-002  0.4659085E+03  0.7546771E-02  0.1023081E+00
         21   -1    0    0  502  501  0.00000000000E+00  0.00000000000E+00  0.55560575805E+02  0.55560575805E+02  0.00000000000E+00 0.  1.
         21   -1    0    0  501  502 -0.00000000000E+00 -0.00000000000E+00 -0.97673012694E+03  0.97673012694E+03  0.00000000000E+00 0.  1.
      99926    2    1    2    0    0  0.00000000000E+00  0.00000000000E+00 -0.92116955114E+03  0.10322907027E+04  0.46590852432E+03 0.  0.
      99925    2    3    3    0    0 -0.10346024179E+03 -0.64495843197E+02 -0.61082623109E+03  0.67616682006E+03  0.26311432599E+03 0.  0.
         25    1    4    4    0    0 -0.49628282777E+02 -0.60485382631E+02 -0.38656874174E+03  0.41376847168E+03  0.12509000000E+03 0.  0.
         25    1    4    4    0    0 -0.53831959015E+02 -0.40104605660E+01 -0.22425748934E+03  0.26239834838E+03  0.12509000000E+03 0.  0.
         25    1    3    3    0    0  0.10346024179E+03  0.64495843197E+02 -0.31034332005E+03  0.35612388269E+03  0.12509000000E+03 0.  0.
<mgrwt>
<rscale>  2 0.46590852E+03</rscale>
<asrwt>0</asrwt>
<pdfrwt beam="1">  1       21 0.81706736E-02 0.46590852E+03</pdfrwt>
<pdfrwt beam="2">  1       21 0.14363677E+00 0.46590852E+03</pdfrwt>
<totfact> 0.34868538E+04</totfact>
</mgrwt>
</event>
<event>
 7    0  0.4737014E-002  0.4451913E+03  0.7546771E-02  0.1029166E+00
         21   -1    0    0  502  501  0.00000000000E+00  0.00000000000E+00  0.16745146836E+03  0.16745146836E+03  0.00000000000E+00 0. -1.
         21   -1    0    0  501  502 -0.00000000000E+00 -0.00000000000E+00 -0.29589959002E+03  0.29589959002E+03  0.00000000000E+00 0. -1.
      99926    2    1    2    0    0 -0.71054273576E-14  0.71054273576E-14 -0.12844812166E+03  0.46335105838E+03  0.44519128848E+03 0.  0.
      99925    2    3    3    0    0 -0.32094661756E+02  0.36257467879E+02 -0.17702450220E+03  0.32069116865E+03  0.26298380174E+03 0.  0.
         25    1    4    4    0    0 -0.43793790255E+01  0.42626978053E+02 -0.12596167912E+03  0.18262007262E+03  0.12509000000E+03 0.  0.
         25    1    4    4    0    0 -0.27715282730E+02 -0.63695101745E+01 -0.51062823086E+02  0.13807109603E+03  0.12509000000E+03 0.  0.
         25    1    3    3    0    0  0.32094661756E+02 -0.36257467879E+02  0.48576380545E+02  0.14265988973E+03  0.12509000000E+03 0.  0.
<mgrwt>
<rscale>  2 0.44519129E+03</rscale>
<asrwt>0</asrwt>
<pdfrwt beam="1">  1       21 0.24625216E-01 0.44519129E+03</pdfrwt>
<pdfrwt beam="2">  1       21 0.43514645E-01 0.44519129E+03</pdfrwt>
<totfact> 0.73487563E+04</totfact>
</mgrwt>
</event>
<event>
 7    0  0.4737014E-002  0.4694309E+03  0.7546771E-02  0.1022081E+00
         21   -1    0    0  502  501  0.00000000000E+00  0.00000000000E+00  0.76370958203E+02  0.76370958203E+02  0.00000000000E+00 0.  1.
         21   -1    0    0  501  502 -0.00000000000E+00 -0.00000000000E+00 -0.72136501381E+03  0.72136501381E+03  0.00000000000E+00 0.  1.
      99926    2    1    2    0    0  0.00000000000E+00  0.00000000000E+00 -0.64499405561E+03  0.79773597202E+03  0.46943087806E+03 0.  0.
      99925    2    3    3    0    0  0.17648733704E+02 -0.55553656503E+02 -0.59106971778E+03  0.64957042655E+03  0.26302213067E+03 0.  0.
         25    1    3    3    0    0 -0.17648733704E+02  0.55553656503E+02 -0.53924337831E+02  0.14816554546E+03  0.12509000000E+03 0.  0.
         25    1    4    4    0    0 -0.13261368024E+02 -0.37086306437E+02 -0.37556912507E+03  0.39780765932E+03  0.12509000000E+03 0.  0.
         25    1    4    4    0    0  0.30910101728E+02 -0.18467350067E+02 -0.21550059271E+03  0.25176276724E+03  0.12509000000E+03 0.  0.
<mgrwt>
<rscale>  2 0.46943088E+03</rscale>
<asrwt>0</asrwt>
<pdfrwt beam="1">  1       21 0.11231024E-01 0.46943088E+03</pdfrwt>
<pdfrwt beam="2">  1       21 0.10608308E+00 0.46943088E+03</pdfrwt>
<totfact> 0.42815695E+04</totfact>
</mgrwt>
</event>
<event>
 7    0  0.4737014E-002  0.4706505E+03  0.7546771E-02  0.1021737E+00
         21   -1    0    0  502  501  0.00000000000E+00  0.00000000000E+00  0.19269768520E+03  0.19269768520E+03  0.00000000000E+00 0.  1.
         21   -1    0    0  501  502 -0.00000000000E+00 -0.00000000000E+00 -0.28738264677E+03  0.28738264677E+03  0.00000000000E+00 0.  1.
      99926    2    1    2    0    0  0.35527136788E-14  0.00000000000E+00 -0.94684961564E+02  0.48008033197E+03  0.47065048943E+03 0.  0.
      99925    2    3    3    0    0  0.22440789975E+02 -0.11423438783E+03 -0.63593646805E+01  0.28772128336E+03  0.26303994176E+03 0.  0.
         25    1    4    4    0    0  0.12858143789E+01 -0.14554737034E+02  0.44406645222E+01  0.12601873389E+03  0.12509000000E+03 0.  0.
         25    1    4    4    0    0  0.21154975597E+02 -0.99679650795E+02 -0.10800029203E+02  0.16170254947E+03  0.12509000000E+03 0.  0.
         25    1    3    3    0    0 -0.22440789975E+02  0.11423438783E+03 -0.88325596883E+02  0.19235904861E+03  0.12509000000E+03 0.  0.
<mgrwt>
<rscale>  2 0.47065049E+03</rscale>
<asrwt>0</asrwt>
<pdfrwt beam="1">  1       21 0.28337895E-01 0.47065049E+03</pdfrwt>
<pdfrwt beam="2">  1       21 0.42262153E-01 0.47065049E+03</pdfrwt>
<totfact> 0.59014494E+04</totfact>
</mgrwt>
</event>
<event>
 7    0  0.4737014E-002  0.4391698E+03  0.7546771E-02  0.1031002E+00
         21   -1    0    0  502  501  0.00000000000E+00  0.00000000000E+00  0.27548841676E+03  0.27548841676E+03  0.00000000000E+00 0.  1.
         21   -1    0    0  501  502 -0.00000000000E+00 -0.00000000000E+00 -0.17502560800E+03  0.17502560800E+03  0.00000000000E+00 0.  1.
      99926    2    1    2    0    0  0.71054273576E-14  0.00000000000E+00  0.10046280876E+03  0.45051402476E+03  0.43916979696E+03 0.  0.
      99925    2    3    3    0    0 -0.63433087604E+02 -0.71020280818E+02  0.81982455382E+02  0.29222104181E+03  0.26382641527E+03 0.  0.
         25    1    3    3    0    0  0.63433087604E+02  0.71020280818E+02  0.18480353379E+02  0.15829298295E+03  0.12509000000E+03 0.  0.
         25    1    4    4    0    0 -0.60785800919E+01 -0.68705220962E+02  0.40629095842E+02  0.14851123881E+03  0.12509000000E+03 0.  0.
         25    1    4    4    0    0 -0.57354507512E+02 -0.23150598553E+01  0.41353359541E+02  0.14370980300E+03  0.12509000000E+03 0.  0.
<mgrwt>
<rscale>  2 0.43916980E+03</rscale>
<asrwt>0</asrwt>
<pdfrwt beam="1">  1       21 0.40513003E-01 0.43916980E+03</pdfrwt>
<pdfrwt beam="2">  1       21 0.25739060E-01 0.43916980E+03</pdfrwt>
<totfact> 0.78291056E+04</totfact>
</mgrwt>
</event>
<event>
 7    0  0.4737014E-002  0.4447147E+03  0.7546771E-02  0.1029310E+00
         21   -1    0    0  502  501  0.00000000000E+00  0.00000000000E+00  0.24940946009E+03  0.24940946009E+03  0.00000000000E+00 0. -1.
         21   -1    0    0  501  502 -0.00000000000E+00 -0.00000000000E+00 -0.19823941739E+03  0.19823941739E+03  0.00000000000E+00 0. -1.
      99926    2    1    2    0    0  0.00000000000E+00  0.00000000000E+00  0.51170042695E+02  0.44764887748E+03  0.44471467734E+03 0.  0.
      99925    2    3    3    0    0  0.33236657817E+02 -0.97146897482E+02  0.21443268170E+02  0.28310896032E+03  0.26296135563E+03 0.  0.
         25    1    4    4    0    0 -0.22958346070E+02 -0.57262547911E+02  0.97963248551E+01  0.13981974513E+03  0.12509000000E+03 0.  0.
         25    1    4    4    0    0  0.56195003887E+02 -0.39884349571E+02  0.11646943315E+02  0.14328921519E+03  0.12509000000E+03 0.  0.
         25    1    3    3    0    0 -0.33236657817E+02  0.97146897482E+02  0.29726774524E+02  0.16453991715E+03  0.12509000000E+03 0.  0.
<mgrwt>
<rscale>  2 0.44471468E+03</rscale>
<asrwt>0</asrwt>
<pdfrwt beam="1">  1       21 0.36677862E-01 0.44471468E+03</pdfrwt>
<pdfrwt beam="2">  1       21 0.29152856E-01 0.44471468E+03</pdfrwt>
<totfact> 0.75060619E+04</totfact>
</mgrwt>
</event>
<event>
 7    0  0.4737014E-002  0.4595313E+03  0.7546771E-02  0.1024917E+00
         21   -1    0    0  502  501  0.00000000000E+00  0.00000000000E+00  0.14766282700E+03  0.14766282700E+03  0.00000000000E+00 0.  1.
         21   -1    0    0  501  502 -0.00000000000E+00 -0.00000000000E+00 -0.35751886811E+03  0.35751886811E+03  0.00000000000E+00 0.  1.
      99926    2    1    2    0    0 -0.14210854715E-13  0.14210854715E-13 -0.20985604110E+03  0.50518169511E+03  0.45953126889E+03 0.  0.
      99925    2    3    3    0    0 -0.77004576266E+02  0.76951533327E+02 -0.18002744281E+03  0.33669283310E+03  0.26287057737E+03 0.  0.
         25    1    4    4    0    0 -0.13897308710E+01  0.38341321253E+02 -0.10583681892E+03  0.16828823074E+03  0.12509000000E+03 0.  0.
         25    1    4    4    0    0 -0.75614845395E+02  0.38610212074E+02 -0.74190623892E+02  0.16840460235E+03  0.12509000000E+03 0.  0.
         25    1    3    3    0    0  0.77004576266E+02 -0.76951533327E+02 -0.29828598291E+02  0.16848886202E+03  0.12509000000E+03 0.  0.
<mgrwt>
<rscale>  2 0.45953127E+03</rscale>
<asrwt>0</asrwt>
<pdfrwt beam="1">  1       21 0.21715122E-01 0.45953127E+03</pdfrwt>
<pdfrwt beam="2">  1       21 0.52576303E-01 0.45953127E+03</pdfrwt>
<totfact> 0.62625164E+04</totfact>
</mgrwt>
</event>
<event>
 7    0  0.4737014E-002  0.4507930E+03  0.7546771E-02  0.1027486E+00
         21   -1    0    0  502  501  0.00000000000E+00  0.00000000000E+00  0.12716080457E+04  0.12716080457E+04  0.00000000000E+00 0.  1.
         21   -1    0    0  501  502 -0.00000000000E+00 -0.00000000000E+00 -0.39952229053E+02  0.39952229053E+02  0.00000000000E+00 0.  1.
      99926    2    1    2    0    0 -0.17763568394E-14  0.00000000000E+00  0.12316558167E+04  0.13115602748E+04  0.45079297203E+03 0.  0.
      99925    2    3    3    0    0  0.85920231835E+01 -0.10305521603E+03  0.87919586916E+03  0.92352712785E+03  0.26310222179E+03 0.  0.
         25    1    3    3    0    0 -0.85920231835E+01  0.10305521603E+03  0.35245994750E+03  0.38803314691E+03  0.12509000000E+03 0.  0.
         25    1    4    4    0    0  0.43119083899E+02 -0.39658526712E+02  0.41520736422E+03  0.43758052692E+03  0.12509000000E+03 0.  0.
         25    1    4    4    0    0 -0.34527060715E+02 -0.63396689323E+02  0.46398850494E+03  0.48594660093E+03  0.12509000000E+03 0.  0.
<mgrwt>
<rscale>  2 0.45079297E+03</rscale>
<asrwt>0</asrwt>
<pdfrwt beam="1">  1       21 0.18700116E+00 0.45079297E+03</pdfrwt>
<pdfrwt beam="2">  1       21 0.58753287E-02 0.45079297E+03</pdfrwt>
<totfact> 0.29741990E+04</totfact>
</mgrwt>
</event>
<event>
 7    0  0.4737014E-002  0.4578609E+03  0.7546771E-02  0.1025403E+00
         21   -1    0    0  502  501  0.00000000000E+00  0.00000000000E+00  0.39911214467E+03  0.39911214467E+03  0.00000000000E+00 0.  1.
         21   -1    0    0  501  502 -0.00000000000E+00 -0.00000000000E+00 -0.13131436492E+03  0.13131436492E+03  0.00000000000E+00 0.  1.
      99926    2    1    2    0    0 -0.14210854715E-13 -0.35527136788E-14  0.26779777974E+03  0.53042650959E+03  0.45786093002E+03 0.  0.
      99925    2    3    3    0    0 -0.11126793293E+03 -0.26756015858E+02  0.18902983686E+03  0.34348177388E+03  0.26296580098E+03 0.  0.
         25    1    3    3    0    0  0.11126793293E+03  0.26756015858E+02  0.78767942884E+02  0.18694473571E+03  0.12509000000E+03 0.  0.
         25    1    4    4    0    0 -0.39608672797E+02 -0.49412110155E+02  0.81074341648E+02  0.16195974983E+03  0.12509000000E+03 0.  0.
         25    1    4    4    0    0 -0.71659260130E+02  0.22656094297E+02  0.10795549521E+03  0.18152202406E+03  0.12509000000E+03 0.  0.
<mgrwt>
<rscale>  2 0.45786093E+03</rscale>
<asrwt>0</asrwt>
<pdfrwt beam="1">  1       21 0.58692962E-01 0.45786093E+03</pdfrwt>
<pdfrwt beam="2">  1       21 0.19310936E-01 0.45786093E+03</pdfrwt>
<totfact> 0.61765121E+04</totfact>
</mgrwt>
</event>
<event>
 7    0  0.4737014E-002  0.4357153E+03  0.7546771E-02  0.1032070E+00
         21   -1    0    0  502  501  0.00000000000E+00  0.00000000000E+00  0.32496131559E+02  0.32496131559E+02  0.00000000000E+00 0. -1.
         21   -1    0    0  501  502 -0.00000000000E+00 -0.00000000000E+00 -0.14605414786E+04  0.14605414786E+04  0.00000000000E+00 0. -1.
      99926    2    1    2    0    0 -0.35527136788E-14  0.00000000000E+00 -0.14280453470E+04  0.14930376102E+04  0.43571526499E+03 0.  0.
      99925    2    3    3    0    0 -0.64647635331E+01  0.54147068933E+02 -0.65227228132E+03  0.70535426272E+03  0.26285320753E+03 0.  0.
         25    1    3    3    0    0  0.64647635331E+01 -0.54147068933E+02 -0.77577306572E+03  0.78768334744E+03  0.12509000000E+03 0.  0.
         25    1    4    4    0    0 -0.30445465851E+02 -0.24753927819E+01 -0.29665116475E+03  0.32339213906E+03  0.12509000000E+03 0.  0.
         25    1    4    4    0    0  0.23980702318E+02  0.56622461715E+02 -0.35562111657E+03  0.38196212366E+03  0.12509000000E+03 0.  0.
<mgrwt>
<rscale>  2 0.43571526E+03</rscale>
<asrwt>0</asrwt>
<pdfrwt beam="1">  1       21 0.47788439E-02 0.43571526E+03</pdfrwt>
<pdfrwt beam="2">  1       21 0.21478547E+00 0.43571526E+03</pdfrwt>
<totfact> 0.27901760E+04</totfact>
</mgrwt>
</event>
<event>
 7    0  0.4737014E-002  0.4226674E+03  0.7546771E-02  0.1036202E+00
         21   -1    0    0  502  501  0.00000000000E+00  0.00000000000E+00  0.33554263862E+02  0.33554263862E+02  0.00000000000E+00 0. -1.
         21   -1    0    0  501  502 -0.00000000000E+00 -0.00000000000E+00 -0.13310357365E+04  0.13310357365E+04  0.00000000000E+00 0. -1.
      99926    2    1    2    0    0  0.00000000000E+00  0.88817841970E-15 -0.12974814726E+04  0.13645900004E+04  0.42266736005E+03 0.  0.
      99925    2    3    3    0    0  0.57322523829E+02  0.47969384747E+01 -0.10186695048E+04  0.10536358174E+04  0.26296766620E+03 0.  0.
         25    1    3    3    0    0 -0.57322523829E+02 -0.47969384747E+01 -0.27881196789E+03  0.31095418295E+03  0.12509000000E+03 0.  0.
         25    1    4    4    0    0  0.51388955405E+01 -0.12895656390E+02 -0.60553801857E+03  0.61847918820E+03  0.12509000000E+03 0.  0.
         25    1    4    4    0    0  0.52183628288E+02  0.17692594865E+02 -0.41313148619E+03  0.43515662922E+03  0.12509000000E+03 0.  0.
<mgrwt>
<rscale>  2 0.42266736E+03</rscale>
<asrwt>0</asrwt>
<pdfrwt beam="1">  1       21 0.49344501E-02 0.42266736E+03</pdfrwt>
<pdfrwt beam="2">  1       21 0.19574057E+00 0.42266736E+03</pdfrwt>
<totfact> 0.35382735E+04</totfact>
</mgrwt>
</event>
<event>
 7    0  0.4737014E-002  0.4541122E+03  0.7546771E-02  0.1026503E+00
         21   -1    0    0  502  501  0.00000000000E+00  0.00000000000E+00  0.11441932266E+03  0.11441932266E+03  0.00000000000E+00 0. -1.
         21   -1    0    0  501  502 -0.00000000000E+00 -0.00000000000E+00 -0.45057492936E+03  0.45057492936E+03  0.00000000000E+00 0. -1.
      99926    2    1    2    0    0  0.71054273576E-14  0.00000000000E+00 -0.33615560670E+03  0.56499425201E+03  0.45411222500E+03 0.  0.
      99925    2    3    3    0    0  0.43603759736E+02 -0.44642720416E+02 -0.32793474312E+03  0.42496085940E+03  0.26297580864E+03 0.  0.
         25    1    4    4    0    0 -0.11690046205E+02  0.14775520570E+01 -0.14262484293E+03  0.19007418094E+03  0.12509000000E+03 0.  0.
         25    1    4    4    0    0  0.55293805941E+02 -0.46120272473E+02 -0.18530990019E+03  0.23488667845E+03  0.12509000000E+03 0.  0.
         25    1    3    3    0    0 -0.43603759736E+02  0.44642720416E+02 -0.82208635834E+01  0.14003339262E+03  0.12509000000E+03 0.  0.
<mgrwt>
<rscale>  2 0.45411222E+03</rscale>
<asrwt>0</asrwt>
<pdfrwt beam="1">  1       21 0.16826371E-01 0.45411222E+03</pdfrwt>
<pdfrwt beam="2">  1       21 0.66261020E-01 0.45411222E+03</pdfrwt>
<totfact> 0.61315802E+04</totfact>
</mgrwt>
</event>
<event>
 7    0  0.4737014E-002  0.4527752E+03  0.7546771E-02  0.1026898E+00
         21   -1    0    0  502  501  0.00000000000E+00  0.00000000000E+00  0.57222890104E+02  0.57222890104E+02  0.00000000000E+00 0. -1.
         21   -1    0    0  501  502 -0.00000000000E+00 -0.00000000000E+00 -0.89564416721E+03  0.89564416721E+03  0.00000000000E+00 0. -1.
      99926    2    1    2    0    0  0.00000000000E+00  0.00000000000E+00 -0.83842127710E+03  0.95286705731E+03  0.45277521024E+03 0.  0.
      99925    2    3    3    0    0 -0.28428125902E+02 -0.97982150217E+02 -0.62106258746E+03  0.68212554190E+03  0.26299782750E+03 0.  0.
         25    1    4    4    0    0 -0.30105401424E+02 -0.10252805151E+02 -0.27080131976E+03  0.29998719654E+03  0.12509000000E+03 0.  0.
         25    1    3    3    0    0  0.28428125902E+02  0.97982150217E+02 -0.21735868964E+03  0.27074151541E+03  0.12509000000E+03 0.  0.
         25    1    4    4    0    0  0.16772755221E+01 -0.87729345066E+02 -0.35026126771E+03  0.38213834536E+03  0.12509000000E+03 0.  0.
<mgrwt>
<rscale>  2 0.45277521E+03</rscale>
<asrwt>0</asrwt>
<pdfrwt beam="1">  1       21 0.84151311E-02 0.45277521E+03</pdfrwt>
<pdfrwt beam="2">  1       21 0.13171237E+00 0.45277521E+03</pdfrwt>
<totfact> 0.41746472E+04</totfact>
</mgrwt>
</event>
<event>
 7    0  0.4737014E-002  0.4548221E+03  0.7546771E-02  0.1026294E+00
         21   -1    0    0  502  501  0.00000000000E+00  0.00000000000E+00  0.25961739044E+03  0.25961739044E+03  0.00000000000E+00 0. -1.
         21   -1    0    0  501  502 -0.00000000000E+00 -0.00000000000E+00 -0.19919996390E+03  0.19919996390E+03  0.00000000000E+00 0. -1.
      99926    2    1    2    0    0  0.71054273576E-14  0.14210854715E-13  0.60417426540E+02  0.45881735435E+03  0.45482205226E+03 0.  0.
      99925    2    3    3    0    0 -0.51771770715E+02 -0.10027823957E+03  0.46903826978E+02  0.28980206792E+03  0.26277219794E+03 0.  0.
         25    1    3    3    0    0  0.51771770715E+02  0.10027823957E+03  0.13513599562E+02  0.16901528643E+03  0.12509000000E+03 0.  0.
         25    1    4    4    0    0 -0.54398018405E+01 -0.84105517863E+02  0.35446947461E+02  0.15494296939E+03  0.12509000000E+03 0.  0.
         25    1    4    4    0    0 -0.46331968875E+02 -0.16172721707E+02  0.11456879517E+02  0.13485909853E+03  0.12509000000E+03 0.  0.
<mgrwt>
<rscale>  2 0.45482205E+03</rscale>
<asrwt>0</asrwt>
<pdfrwt beam="1">  1       21 0.38179028E-01 0.45482205E+03</pdfrwt>
<pdfrwt beam="2">  1       21 0.29294112E-01 0.45482205E+03</pdfrwt>
<totfact> 0.68363800E+04</totfact>
</mgrwt>
</event>
<event>
 7    0  0.4737014E-002  0.4555710E+03  0.7546771E-02  0.1026074E+00
         21   -1    0    0  502  501  0.00000000000E+00  0.00000000000E+00  0.20034669724E+03  0.20034669724E+03  0.00000000000E+00 0. -1.
         21   -1    0    0  501  502 -0.00000000000E+00 -0.00000000000E+00 -0.25898220271E+03  0.25898220271E+03  0.00000000000E+00 0. -1.
      99926    2    1    2    0    0 -0.71054273576E-14  0.35527136788E-14 -0.58635505461E+02  0.45932889995E+03  0.45557097782E+03 0.  0.
      99925    2    3    3    0    0  0.41415297711E+02 -0.26669037079E+02 -0.14025246865E+03  0.30205429550E+03  0.26294405878E+03 0.  0.
         25    1    3    3    0    0 -0.41415297711E+02  0.26669037079E+02  0.81616963190E+02  0.15727460445E+03  0.12509000000E+03 0.  0.
         25    1    4    4    0    0 -0.28050051998E+01 -0.79716692342E+01 -0.10492665866E+03  0.16348861539E+03  0.12509000000E+03 0.  0.
         25    1    4    4    0    0  0.44220302910E+02 -0.18697367845E+02 -0.35325809989E+02  0.13856568011E+03  0.12509000000E+03 0.  0.
<mgrwt>
<rscale>  2 0.45557098E+03</rscale>
<asrwt>0</asrwt>
<pdfrwt beam="1">  1       21 0.29462750E-01 0.45557098E+03</pdfrwt>
<pdfrwt beam="2">  1       21 0.38085618E-01 0.45557098E+03</pdfrwt>
<totfact> 0.67919688E+04</totfact>
</mgrwt>
</event>
<event>
 7    0  0.4737014E-002  0.4686541E+03  0.7546771E-02  0.1022301E+00
         21   -1    0    0  502  501  0.00000000000E+00  0.00000000000E+00  0.27169154658E+04  0.27169154658E+04  0.00000000000E+00 0. -1.
         21   -1    0    0  501  502 -0.00000000000E+00 -0.00000000000E+00 -0.20210114880E+02  0.20210114880E+02  0.00000000000E+00 0. -1.
      99926    2    1    2    0    0  0.00000000000E+00  0.00000000000E+00  0.26967053509E+04  0.27371255807E+04  0.46865413125E+03 0.  0.
      99925    2    3    3    0    0 -0.45610531591E+02  0.96626735984E+02  0.12915296309E+04  0.13223523271E+04  0.26296357713E+03 0.  0.
         25    1    3    3    0    0  0.45610531591E+02 -0.96626735984E+02  0.14051757201E+04  0.14147732536E+04  0.12509000000E+03 0.  0.
         25    1    4    4    0    0 -0.44979213198E+01  0.83906626959E+02  0.73898965319E+03  0.75419743367E+03  0.12509000000E+03 0.  0.
         25    1    4    4    0    0 -0.41112610271E+02  0.12720109025E+02  0.55253997768E+03  0.56815489343E+03  0.12509000000E+03 0.  0.
<mgrwt>
<rscale>  2 0.46865413E+03</rscale>
<asrwt>0</asrwt>
<pdfrwt beam="1">  1       21 0.39954614E+00 0.46865413E+03</pdfrwt>
<pdfrwt beam="2">  1       21 0.29720776E-02 0.46865413E+03</pdfrwt>
<totfact> 0.45002185E+03</totfact>
</mgrwt>
</event>
<event>
 7    0  0.4737014E-002  0.4536436E+03  0.7546771E-02  0.1026641E+00
         21   -1    0    0  502  501  0.00000000000E+00  0.00000000000E+00  0.63289464757E+02  0.63289464757E+02  0.00000000000E+00 0.  1.
         21   -1    0    0  501  502 -0.00000000000E+00 -0.00000000000E+00 -0.81290209982E+03  0.81290209982E+03  0.00000000000E+00 0.  1.
      99926    2    1    2    0    0  0.00000000000E+00  0.00000000000E+00 -0.74961263507E+03  0.87619156458E+03  0.45364364339E+03 0.  0.
      99925    2    3    3    0    0 -0.88130277800E+02  0.66667434535E+02 -0.43719329959E+03  0.52198139819E+03  0.26289752026E+03 0.  0.
         25    1    4    4    0    0 -0.67146718801E+02  0.66213830536E+01 -0.25590794613E+03  0.29272668062E+03  0.12509000000E+03 0.  0.
         25    1    3    3    0    0  0.88130277800E+02 -0.66667434535E+02 -0.31241933548E+03  0.35421016639E+03  0.12509000000E+03 0.  0.
         25    1    4    4    0    0 -0.20983558999E+02  0.60046051481E+02 -0.18128535346E+03  0.22925471757E+03  0.12509000000E+03 0.  0.
<mgrwt>
<rscale>  2 0.45364364E+03</rscale>
<asrwt>0</asrwt>
<pdfrwt beam="1">  1       21 0.93072751E-02 0.45364364E+03</pdfrwt>
<pdfrwt beam="2">  1       21 0.11954442E+00 0.45364364E+03</pdfrwt>
<totfact> 0.44752668E+04</totfact>
</mgrwt>
</event>
<event>
 7    0  0.4737014E-002  0.4568361E+03  0.7546771E-02  0.1025703E+00
         21   -1    0    0  502  501  0.00000000000E+00  0.00000000000E+00  0.10109504431E+04  0.10109504431E+04  0.00000000000E+00 0. -1.
         21   -1    0    0  501  502 -0.00000000000E+00 -0.00000000000E+00 -0.51609647137E+02  0.51609647137E+02  0.00000000000E+00 0. -1.
      99926    2    1    2    0    0  0.00000000000E+00  0.00000000000E+00  0.95934079599E+03  0.10625600903E+04  0.45683605656E+03 0.  0.
      99925    2    3    3    0    0  0.10496690590E+03  0.22250499750E+02  0.50624433545E+03  0.58042209474E+03  0.26285612950E+03 0.  0.
         25    1    4    4    0    0  0.89746212594E+02  0.28818788942E+02  0.25477514932E+03  0.29906987491E+03  0.12509000000E+03 0.  0.
         25    1    3    3    0    0 -0.10496690590E+03 -0.22250499750E+02  0.45309646054E+03  0.48213799552E+03  0.12509000000E+03 0.  0.
         25    1    4    4    0    0  0.15220693302E+02 -0.65682891919E+01  0.25146918613E+03  0.28135221983E+03  0.12509000000E+03 0.  0.
<mgrwt>
<rscale>  2 0.45683606E+03</rscale>
<asrwt>0</asrwt>
<pdfrwt beam="1">  1       21 0.14866917E+00 0.45683606E+03</pdfrwt>
<pdfrwt beam="2">  1       21 0.75896546E-02 0.45683606E+03</pdfrwt>
<totfact> 0.36296980E+04</totfact>
</mgrwt>
</event>
<event>
 7    0  0.4737014E-002  0.4531042E+03  0.7546771E-02  0.1026800E+00
         21   -1    0    0  502  501  0.00000000000E+00  0.00000000000E+00  0.93002539943E+02  0.93002539943E+02  0.00000000000E+00 0.  1.
         21   -1    0    0  501  502 -0.00000000000E+00 -0.00000000000E+00 -0.55187585990E+03  0.55187585990E+03  0.00000000000E+00 0.  1.
      99926    2    1    2    0    0  0.00000000000E+00 -0.71054273576E-14 -0.45887331996E+03  0.64487839984E+03  0.45310421187E+03 0.  0.
      99925    2    3    3    0    0 -0.33738374827E+02  0.60294337315E+02 -0.41205544476E+03  0.49450185052E+03  0.26451598357E+03 0.  0.
         25    1    3    3    0    0  0.33738374827E+02 -0.60294337315E+02 -0.46817875198E+02  0.15037654932E+03  0.12509000000E+03 0.  0.
         25    1    4    4    0    0 -0.53961385856E+02  0.47397428689E+02 -0.19055082416E+03  0.23898843507E+03  0.12509000000E+03 0.  0.
         25    1    4    4    0    0  0.20223011029E+02  0.12896908627E+02 -0.22150462060E+03  0.25551341545E+03  0.12509000000E+03 0.  0.
<mgrwt>
<rscale>  2 0.45310421E+03</rscale>
<asrwt>0</asrwt>
<pdfrwt beam="1">  1       21 0.13676844E-01 0.45310421E+03</pdfrwt>
<pdfrwt beam="2">  1       21 0.81158216E-01 0.45310421E+03</pdfrwt>
<totfact> 0.56843013E+04</totfact>
</mgrwt>
</event>
<event>
 7    0  0.4737014E-002  0.4515414E+03  0.7546771E-02  0.1027263E+00
         21   -1    0    0  502  501  0.00000000000E+00  0.00000000000E+00  0.34515883147E+02  0.34515883147E+02  0.00000000000E+00 0. -1.
         21   -1    0    0  501  502 -0.00000000000E+00 -0.00000000000E+00 -0.14767812697E+04  0.14767812697E+04  0.00000000000E+00 0. -1.
      99926    2    1    2    0    0  0.00000000000E+00  0.00000000000E+00 -0.14422653866E+04  0.15112971529E+04  0.45154140337E+03 0.  0.
      99925    2    3    3    0    0  0.88007407620E+02 -0.27155019539E+02 -0.70086159123E+03  0.75379481311E+03  0.26175742842E+03 0.  0.
         25    1    3    3    0    0 -0.88007407620E+02  0.27155019539E+02 -0.74140379535E+03  0.75750233976E+03  0.12509000000E+03 0.  0.
         25    1    4    4    0    0  0.98968492221E+01 -0.85987881743E+01 -0.26611078601E+03  0.29433712867E+03  0.12509000000E+03 0.  0.
         25    1    4    4    0    0  0.78110558398E+02 -0.18556231365E+02 -0.43475080521E+03  0.45945768444E+03  0.12509000000E+03 0.  0.
<mgrwt>
<rscale>  2 0.45154140E+03</rscale>
<asrwt>0</asrwt>
<pdfrwt beam="1">  1       21 0.50758661E-02 0.45154140E+03</pdfrwt>
<pdfrwt beam="2">  1       21 0.21717368E+00 0.45154140E+03</pdfrwt>
<totfact> 0.24145752E+04</totfact>
</mgrwt>
</event>
<event>
 7    0  0.4737014E-002  0.4753229E+03  0.7546771E-02  0.1020429E+00
         21   -1    0    0  502  501  0.00000000000E+00  0.00000000000E+00  0.18996859733E+03  0.18996859733E+03  0.00000000000E+00 0. -1.
         21   -1    0    0  501  502 -0.00000000000E+00 -0.00000000000E+00 -0.29732794910E+03  0.29732794910E+03  0.00000000000E+00 0. -1.
      99926    2    1    2    0    0 -0.88817841970E-15 -0.14210854715E-13 -0.10735935177E+03  0.48729654642E+03  0.47532293627E+03 0.  0.
      99925    2    3    3    0    0  0.62914791592E+01  0.10719205377E+03 -0.14389631136E+03  0.31844105608E+03  0.26299969329E+03 0.  0.
         25    1    4    4    0    0  0.14818175497E+02  0.41540996124E+02 -0.28109326324E+02  0.13558346142E+03  0.12509000000E+03 0.  0.
         25    1    3    3    0    0 -0.62914791592E+01 -0.10719205377E+03  0.36536959592E+02  0.16885549034E+03  0.12509000000E+03 0.  0.
         25    1    4    4    0    0 -0.85266963374E+01  0.65651057651E+02 -0.11578698504E+03  0.18285759466E+03  0.12509000000E+03 0.  0.
<mgrwt>
<rscale>  2 0.47532294E+03</rscale>
<asrwt>0</asrwt>
<pdfrwt beam="1">  1       21 0.27936559E-01 0.47532294E+03</pdfrwt>
<pdfrwt beam="2">  1       21 0.43724698E-01 0.47532294E+03</pdfrwt>
<totfact> 0.56493743E+04</totfact>
</mgrwt>
</event>
<event>
 7    0  0.4737014E-002  0.4060452E+03  0.7546771E-02  0.1041706E+00
         21   -1    0    0  502  501  0.00000000000E+00  0.00000000000E+00  0.12183907759E+03  0.12183907759E+03  0.00000000000E+00 0.  1.
         21   -1    0    0  501  502 -0.00000000000E+00 -0.00000000000E+00 -0.33830018951E+03  0.33830018951E+03  0.00000000000E+00 0.  1.
      99926    2    1    2    0    0  0.00000000000E+00  0.00000000000E+00 -0.21646111192E+03  0.46013926710E+03  0.40604523413E+03 0.  0.
      99925    2    3    3    0    0  0.22753232014E+02 -0.14421309964E+02 -0.19921223130E+03  0.33102414123E+03  0.26299388819E+03 0.  0.
         25    1    3    3    0    0 -0.22753232014E+02  0.14421309964E+02 -0.17248880621E+02  0.12911512588E+03  0.12509000000E+03 0.  0.
         25    1    4    4    0    0  0.51154414735E+02 -0.11017707968E+02 -0.92614633159E+02  0.16420457488E+03  0.12509000000E+03 0.  0.
         25    1    4    4    0    0 -0.28401182721E+02 -0.34036019954E+01 -0.10659759814E+03  0.16681956635E+03  0.12509000000E+03 0.  0.
<mgrwt>
<rscale>  2 0.40604523E+03</rscale>
<asrwt>0</asrwt>
<pdfrwt beam="1">  1       21 0.17917512E-01 0.40604523E+03</pdfrwt>
<pdfrwt beam="2">  1       21 0.49750027E-01 0.40604523E+03</pdfrwt>
<totfact> 0.10261337E+05</totfact>
</mgrwt>
</event>
<event>
 7    0  0.4737014E-002  0.4520568E+03  0.7546771E-02  0.1027110E+00
         21   -1    0    0  502  501  0.00000000000E+00  0.00000000000E+00  0.36870645997E+03  0.36870645997E+03  0.00000000000E+00 0.  1.
         21   -1    0    0  501  502 -0.00000000000E+00 -0.00000000000E+00 -0.13856238917E+03  0.13856238917E+03  0.00000000000E+00 0.  1.
      99926    2    1    2    0    0  0.00000000000E+00  0.00000000000E+00  0.23014407080E+03  0.50726884914E+03  0.45205684597E+03 0.  0.
      99925    2    3    3    0    0  0.72655225364E+02 -0.69029368229E+02  0.19697474883E+03  0.34358761176E+03  0.26307709864E+03 0.  0.
         25    1    4    4    0    0  0.29925238465E+02 -0.15899883916E+02  0.13824435983E+03  0.18949231470E+03  0.12509000000E+03 0.  0.
         25    1    4    4    0    0  0.42729986899E+02 -0.53129484313E+02  0.58730389003E+02  0.15409529706E+03  0.12509000000E+03 0.  0.
         25    1    3    3    0    0 -0.72655225364E+02  0.69029368229E+02  0.33169321966E+02  0.16368123738E+03  0.12509000000E+03 0.  0.
<mgrwt>
<rscale>  2 0.45205685E+03</rscale>
<asrwt>0</asrwt>
<pdfrwt beam="1">  1       21 0.54221538E-01 0.45205685E+03</pdfrwt>
<pdfrwt beam="2">  1       21 0.20376822E-01 0.45205685E+03</pdfrwt>
<totfact> 0.66298094E+04</totfact>
</mgrwt>
</event>
<event>
 7    0  0.4737014E-002  0.4474625E+03  0.7546771E-02  0.1028481E+00
         21   -1    0    0  502  501  0.00000000000E+00  0.00000000000E+00  0.24192002884E+03  0.24192002884E+03  0.00000000000E+00 0. -1.
         21   -1    0    0  501  502 -0.00000000000E+00 -0.00000000000E+00 -0.20690997191E+03  0.20690997191E+03  0.00000000000E+00 0. -1.
      99926    2    1    2    0    0  0.00000000000E+00  0.00000000000E+00  0.35010056938E+02  0.44883000075E+03  0.44746247383E+03 0.  0.
      99925    2    3    3    0    0  0.56040181868E+02  0.89092970362E+02  0.34345142890E+02  0.28534908577E+03  0.26299515691E+03 0.  0.
         25    1    3    3    0    0 -0.56040181868E+02 -0.89092970362E+02  0.66491404733E+00  0.16348091498E+03  0.12509000000E+03 0.  0.
         25    1    4    4    0    0  0.53765094418E+02  0.29864593414E+02 -0.10648579005E+02  0.13979799588E+03  0.12509000000E+03 0.  0.
         25    1    4    4    0    0  0.22750874496E+01  0.59228376948E+02  0.44993721895E+02  0.14555108989E+03  0.12509000000E+03 0.  0.
<mgrwt>
<rscale>  2 0.44746247E+03</rscale>
<asrwt>0</asrwt>
<pdfrwt beam="1">  1       21 0.35576475E-01 0.44746247E+03</pdfrwt>
<pdfrwt beam="2">  1       21 0.30427937E-01 0.44746247E+03</pdfrwt>
<totfact> 0.73310906E+04</totfact>
</mgrwt>
</event>
<event>
 7    0  0.4737014E-002  0.4632588E+03  0.7546771E-02  0.1023840E+00
         21   -1    0    0  502  501  0.00000000000E+00  0.00000000000E+00  0.23320746445E+03  0.23320746445E+03  0.00000000000E+00 0.  1.
         21   -1    0    0  501  502 -0.00000000000E+00 -0.00000000000E+00 -0.23006203360E+03  0.23006203360E+03  0.00000000000E+00 0.  1.
      99926    2    1    2    0    0  0.00000000000E+00  0.00000000000E+00  0.31454308499E+01  0.46326949804E+03  0.46325881975E+03 0.  0.
      99925    2    3    3    0    0 -0.10612472868E+03  0.54930845021E+02  0.26604043059E+02  0.28869094736E+03  0.26144757067E+03 0.  0.
         25    1    4    4    0    0 -0.12781884120E+02  0.19435030973E+02  0.69334928155E+01  0.12742322556E+03  0.12509000000E+03 0.  0.
         25    1    4    4    0    0 -0.93342844560E+02  0.35495814048E+02  0.19670550244E+02  0.16126772179E+03  0.12509000000E+03 0.  0.
         25    1    3    3    0    0  0.10612472868E+03 -0.54930845021E+02 -0.23458612210E+02  0.17457855068E+03  0.12509000000E+03 0.  0.
<mgrwt>
<rscale>  2 0.46325882E+03</rscale>
<asrwt>0</asrwt>
<pdfrwt beam="1">  1       21 0.34295216E-01 0.46325882E+03</pdfrwt>
<pdfrwt beam="2">  1       21 0.33832652E-01 0.46325882E+03</pdfrwt>
<totfact> 0.63645591E+04</totfact>
</mgrwt>
</event>
<event>
 7    0  0.4737014E-002  0.4597585E+03  0.7546771E-02  0.1024851E+00
         21   -1    0    0  502  501  0.00000000000E+00  0.00000000000E+00  0.17013501410E+03  0.17013501410E+03  0.00000000000E+00 0. -1.
         21   -1    0    0  501  502 -0.00000000000E+00 -0.00000000000E+00 -0.31060318045E+03  0.31060318045E+03  0.00000000000E+00 0. -1.
      99926    2    1    2    0    0  0.00000000000E+00  0.00000000000E+00 -0.14046816635E+03  0.48073819455E+03  0.45975853004E+03 0.  0.
      99925    2    3    3    0    0  0.38148522603E+02  0.10809636612E+03 -0.60604630815E+02  0.29321265881E+03  0.26298404489E+03 0.  0.
         25    1    4    4    0    0  0.11565176021E+02  0.20550663816E+02 -0.53476493445E+02  0.13807000591E+03  0.12509000000E+03 0.  0.
         25    1    4    4    0    0  0.26583346582E+02  0.87545702307E+02 -0.71281373692E+01  0.15514265290E+03  0.12509000000E+03 0.  0.
         25    1    3    3    0    0 -0.38148522603E+02 -0.10809636612E+03 -0.79863535538E+02  0.18752553574E+03  0.12509000000E+03 0.  0.
<mgrwt>
<rscale>  2 0.45975853E+03</rscale>
<asrwt>0</asrwt>
<pdfrwt beam="1">  1       21 0.25019855E-01 0.45975853E+03</pdfrwt>
<pdfrwt beam="2">  1       21 0.45676937E-01 0.45975853E+03</pdfrwt>
<totfact> 0.64187702E+04</totfact>
</mgrwt>
</event>
<event>
 7    0  0.4737014E-002  0.4548818E+03  0.7546771E-02  0.1026276E+00
         21   -1    0    0  502  501  0.00000000000E+00  0.00000000000E+00  0.37943850173E+03  0.37943850173E+03  0.00000000000E+00 0.  1.
         21   -1    0    0  501  502 -0.00000000000E+00 -0.00000000000E+00 -0.13633135685E+03  0.13633135685E+03  0.00000000000E+00 0.  1.
      99926    2    1    2    0    0  0.00000000000E+00  0.14210854715E-13  0.24310714488E+03  0.51576985858E+03  0.45488181226E+03 0.  0.
      99925    2    3    3    0    0  0.90526634272E+01  0.68729770528E+02  0.25417905531E+03  0.37232709169E+03  0.26308694185E+03 0.  0.
         25    1    3    3    0    0 -0.90526634272E+01 -0.68729770528E+02 -0.11071910429E+02  0.14344276689E+03  0.12509000000E+03 0.  0.
         25    1    4    4    0    0  0.28817148087E+02  0.14499528017E+01  0.11151996950E+03  0.17004923430E+03  0.12509000000E+03 0.  0.
         25    1    4    4    0    0 -0.19764484659E+02  0.67279817726E+02  0.14265908581E+03  0.20227785739E+03  0.12509000000E+03 0.  0.
<mgrwt>
<rscale>  2 0.45488181E+03</rscale>
<asrwt>0</asrwt>
<pdfrwt beam="1">  1       21 0.55799779E-01 0.45488181E+03</pdfrwt>
<pdfrwt beam="2">  1       21 0.20048729E-01 0.45488181E+03</pdfrwt>
<totfact> 0.64236611E+04</totfact>
</mgrwt>
</event>
<event>
 7    0  0.4737014E-002  0.4594903E+03  0.7546771E-02  0.1024929E+00
         21   -1    0    0  502  501  0.00000000000E+00  0.00000000000E+00  0.62962995287E+03  0.62962995287E+03  0.00000000000E+00 0. -1.
         21   -1    0    0  501  502 -0.00000000000E+00 -0.00000000000E+00 -0.83831509011E+02  0.83831509011E+02  0.00000000000E+00 0. -1.
      99926    2    1    2    0    0  0.00000000000E+00  0.00000000000E+00  0.54579844386E+03  0.71346146188E+03  0.45949027876E+03 0.  0.
      99925    2    3    3    0    0 -0.11968135674E+02 -0.23574359305E+02  0.16454221223E+03  0.31133858397E+03  0.26298020376E+03 0.  0.
         25    1    4    4    0    0 -0.44029498159E+02 -0.22010006754E+02  0.95519780083E+02  0.16490777299E+03  0.12509000000E+03 0.  0.
         25    1    3    3    0    0  0.11968135674E+02  0.23574359305E+02  0.38125623163E+03  0.40212287792E+03  0.12509000000E+03 0.  0.
         25    1    4    4    0    0  0.32061362485E+02 -0.15643525508E+01  0.69022432148E+02  0.14643081098E+03  0.12509000000E+03 0.  0.
<mgrwt>
<rscale>  2 0.45949028E+03</rscale>
<asrwt>0</asrwt>
<pdfrwt beam="1">  1       21 0.92592638E-01 0.45949028E+03</pdfrwt>
<pdfrwt beam="2">  1       21 0.12328163E-01 0.45949028E+03</pdfrwt>
<totfact> 0.50374967E+04</totfact>
</mgrwt>
</event>
<event>
 7    0  0.4737014E-002  0.4518072E+03  0.7546771E-02  0.1027184E+00
         21   -1    0    0  502  501  0.00000000000E+00  0.00000000000E+00  0.12823544504E+03  0.12823544504E+03  0.00000000000E+00 0. -1.
         21   -1    0    0  501  502 -0.00000000000E+00 -0.00000000000E+00 -0.39795897703E+03  0.39795897703E+03  0.00000000000E+00 0. -1.
      99926    2    1    2    0    0  0.00000000000E+00  0.35527136788E-14 -0.26972353198E+03  0.52619442207E+03  0.45180724442E+03 0.  0.
      99925    2    3    3    0    0 -0.10679275343E+03  0.25448403016E+02 -0.17544235804E+03  0.33491253254E+03  0.26331363440E+03 0.  0.
         25    1    4    4    0    0 -0.57096608428E+02  0.42084893950E+02 -0.56437500271E+02  0.15447932072E+03  0.12509000000E+03 0.  0.
         25    1    4    4    0    0 -0.49696144998E+02 -0.16636490934E+02 -0.11900485776E+03  0.18043321183E+03  0.12509000000E+03 0.  0.
         25    1    3    3    0    0  0.10679275343E+03 -0.25448403016E+02 -0.94281173946E+02  0.19128188953E+03  0.12509000000E+03 0.  0.
<mgrwt>
<rscale>  2 0.45180724E+03</rscale>
<asrwt>0</asrwt>
<pdfrwt beam="1">  1       21 0.18858153E-01 0.45180724E+03</pdfrwt>
<pdfrwt beam="2">  1       21 0.58523380E-01 0.45180724E+03</pdfrwt>
<totfact> 0.65096775E+04</totfact>
</mgrwt>
</event>
<event>
 7    0  0.4737014E-002  0.4496634E+03  0.7546771E-02  0.1027822E+00
         21   -1    0    0  502  501  0.00000000000E+00  0.00000000000E+00  0.12513030782E+04  0.12513030782E+04  0.00000000000E+00 0.  1.
         21   -1    0    0  501  502 -0.00000000000E+00 -0.00000000000E+00 -0.40397318752E+02  0.40397318752E+02  0.00000000000E+00 0.  1.
      99926    2    1    2    0    0  0.71054273576E-14  0.14210854715E-13  0.12109057594E+04  0.12917003969E+04  0.44966338212E+03 0.  0.
      99925    2    3    3    0    0 -0.40209798835E+02 -0.78309934728E+02  0.58557638156E+03  0.64793521247E+03  0.26300392985E+03 0.  0.
         25    1    4    4    0    0 -0.20136252941E+02 -0.33959079771E+02  0.38374227124E+03  0.40554201585E+03  0.12509000000E+03 0.  0.
         25    1    3    3    0    0  0.40209798835E+02  0.78309934728E+02  0.62532937787E+03  0.64376518447E+03  0.12509000000E+03 0.  0.
         25    1    4    4    0    0 -0.20073545893E+02 -0.44350854957E+02  0.20183411032E+03  0.24239319662E+03  0.12509000000E+03 0.  0.
<mgrwt>
<rscale>  2 0.44966338E+03</rscale>
<asrwt>0</asrwt>
<pdfrwt beam="1">  1       21 0.18401513E+00 0.44966338E+03</pdfrwt>
<pdfrwt beam="2">  1       21 0.59407830E-02 0.44966338E+03</pdfrwt>
<totfact> 0.30607526E+04</totfact>
</mgrwt>
</event>
<event>
 7    0  0.4737014E-002  0.4498834E+03  0.7546771E-02  0.1027757E+00
         21   -1    0    0  502  501  0.00000000000E+00  0.00000000000E+00  0.12212842025E+03  0.12212842025E+03  0.00000000000E+00 0. -1.
         21   -1    0    0  501  502 -0.00000000000E+00 -0.00000000000E+00 -0.41430783768E+03  0.41430783768E+03  0.00000000000E+00 0. -1.
      99926    2    1    2    0    0  0.17763568394E-14  0.00000000000E+00 -0.29217941743E+03  0.53643625793E+03  0.44988337028E+03 0.  0.
      99925    2    3    3    0    0 -0.12544227810E+02  0.10265033840E+03 -0.14652309313E+03  0.31835892639E+03  0.26303790519E+03 0.  0.
         25    1    4    4    0    0 -0.20881789625E+02  0.78679645710E+02 -0.46888507956E+02  0.15643713135E+03  0.12509000000E+03 0.  0.
         25    1    4    4    0    0  0.83375618143E+01  0.23970692690E+02 -0.99634585176E+02  0.16192179504E+03  0.12509000000E+03 0.  0.
         25    1    3    3    0    0  0.12544227810E+02 -0.10265033840E+03 -0.14565632430E+03  0.21807733154E+03  0.12509000000E+03 0.  0.
<mgrwt>
<rscale>  2 0.44988337E+03</rscale>
<asrwt>0</asrwt>
<pdfrwt beam="1">  1       21 0.17960062E-01 0.44988337E+03</pdfrwt>
<pdfrwt beam="2">  1       21 0.60927623E-01 0.44988337E+03</pdfrwt>
<totfact> 0.65379458E+04</totfact>
</mgrwt>
</event>
<event>
 7    0  0.4737014E-002  0.4167264E+03  0.7546771E-02  0.1038137E+00
         21   -1    0    0  502  501  0.00000000000E+00  0.00000000000E+00  0.12508370489E+04  0.12508370489E+04  0.00000000000E+00 0.  1.
         21   -1    0    0  501  502 -0.00000000000E+00 -0.00000000000E+00 -0.34708940829E+02  0.34708940829E+02  0.00000000000E+00 0.  1.
      99926    2    1    2    0    0  0.00000000000E+00  0.00000000000E+00  0.12161281081E+04  0.12855459898E+04  0.41672642882E+03 0.  0.
      99925    2    3    3    0    0 -0.61840787616E+02 -0.34819676089E+02  0.82788590063E+03  0.87152157911E+03  0.26290322464E+03 0.  0.
         25    1    4    4    0    0 -0.41619107569E+02 -0.16144300851E+02  0.29601666702E+03  0.32444747466E+03  0.12509000000E+03 0.  0.
         25    1    4    4    0    0 -0.20221680047E+02 -0.18675375238E+02  0.53186923362E+03  0.54707410444E+03  0.12509000000E+03 0.  0.
         25    1    3    3    0    0  0.61840787616E+02  0.34819676089E+02  0.38824220748E+03  0.41402441066E+03  0.12509000000E+03 0.  0.
<mgrwt>
<rscale>  2 0.41672643E+03</rscale>
<asrwt>0</asrwt>
<pdfrwt beam="1">  1       21 0.18394659E+00 0.41672643E+03</pdfrwt>
<pdfrwt beam="2">  1       21 0.51042568E-02 0.41672643E+03</pdfrwt>
<totfact> 0.40251758E+04</totfact>
</mgrwt>
</event>
<event>
 7    0  0.4737014E-002  0.4578038E+03  0.7546771E-02  0.1025420E+00
         21   -1    0    0  502  501  0.00000000000E+00  0.00000000000E+00  0.11404134530E+03  0.11404134530E+03  0.00000000000E+00 0. -1.
         21   -1    0    0  501  502 -0.00000000000E+00 -0.00000000000E+00 -0.45944818336E+03  0.45944818336E+03  0.00000000000E+00 0. -1.
      99926    2    1    2    0    0  0.00000000000E+00  0.71054273576E-14 -0.34540683806E+03  0.57348952865E+03  0.45780383976E+03 0.  0.
      99925    2    3    3    0    0  0.96370016480E+02  0.38082516035E+02 -0.15214053599E+03  0.32102798759E+03  0.26301096558E+03 0.  0.
         25    1    4    4    0    0  0.46948588157E+02 -0.21883892915E+02 -0.75417771980E+02  0.15497878284E+03  0.12509000000E+03 0.  0.
         25    1    3    3    0    0 -0.96370016480E+02 -0.38082516035E+02 -0.19326630207E+03  0.25246154107E+03  0.12509000000E+03 0.  0.
         25    1    4    4    0    0  0.49421428323E+02  0.59966408950E+02 -0.76722764014E+02  0.16604920475E+03  0.12509000000E+03 0.  0.
<mgrwt>
<rscale>  2 0.45780384E+03</rscale>
<asrwt>0</asrwt>
<pdfrwt beam="1">  1       21 0.16770786E-01 0.45780384E+03</pdfrwt>
<pdfrwt beam="2">  1       21 0.67565909E-01 0.45780384E+03</pdfrwt>
<totfact> 0.59021024E+04</totfact>
</mgrwt>
</event>
<event>
 7    0  0.4737014E-002  0.4559979E+03  0.7546771E-02  0.1025948E+00
         21   -1    0    0  502  501  0.00000000000E+00  0.00000000000E+00  0.10213923174E+04  0.10213923174E+04  0.00000000000E+00 0. -1.
         21   -1    0    0  501  502 -0.00000000000E+00 -0.00000000000E+00 -0.50894763197E+02  0.50894763197E+02  0.00000000000E+00 0. -1.
      99926    2    1    2    0    0  0.00000000000E+00  0.00000000000E+00  0.97049755420E+03  0.10722870806E+04  0.45599789528E+03 0.  0.
      99925    2    3    3    0    0 -0.35106349504E+02  0.75801904667E+02  0.42667327089E+03  0.50804356602E+03  0.26283036421E+03 0.  0.
         25    1    4    4    0    0  0.15801501887E+02  0.23275750303E+02  0.23571090852E+03  0.26832552713E+03  0.12509000000E+03 0.  0.
         25    1    4    4    0    0 -0.50907851391E+02  0.52526154364E+02  0.19096236238E+03  0.23971803889E+03  0.12509000000E+03 0.  0.
         25    1    3    3    0    0  0.35106349504E+02 -0.75801904667E+02  0.54382428331E+03  0.56424351458E+03  0.12509000000E+03 0.  0.
<mgrwt>
<rscale>  2 0.45599790E+03</rscale>
<asrwt>0</asrwt>
<pdfrwt beam="1">  1       21 0.15020474E+00 0.45599790E+03</pdfrwt>
<pdfrwt beam="2">  1       21 0.74845246E-02 0.45599790E+03</pdfrwt>
<totfact> 0.36187483E+04</totfact>
</mgrwt>
</event>
<event>
 7    0  0.4737014E-002  0.4625069E+03  0.7546771E-02  0.1024057E+00
         21   -1    0    0  502  501  0.00000000000E+00  0.00000000000E+00  0.26203389232E+02  0.26203389232E+02  0.00000000000E+00 0. -1.
         21   -1    0    0  501  502 -0.00000000000E+00 -0.00000000000E+00 -0.20408870676E+04  0.20408870676E+04  0.00000000000E+00 0. -1.
      99926    2    1    2    0    0  0.00000000000E+00  0.00000000000E+00 -0.20146836783E+04  0.20670904568E+04  0.46250690032E+03 0.  0.
      99925    2    3    3    0    0 -0.84249824936E+02  0.70974186419E+02 -0.10458219475E+04  0.10839953802E+04  0.26299633114E+03 0.  0.
         25    1    4    4    0    0 -0.43400859646E+02  0.51130438063E+02 -0.39551126432E+03  0.42020783503E+03  0.12509000000E+03 0.  0.
         25    1    3    3    0    0  0.84249824936E+02 -0.70974186419E+02 -0.96886173080E+03  0.98309507661E+03  0.12509000000E+03 0.  0.
         25    1    4    4    0    0 -0.40848965289E+02  0.19843748356E+02 -0.65031068322E+03  0.66378754517E+03  0.12509000000E+03 0.  0.
<mgrwt>
<rscale>  2 0.46250690E+03</rscale>
<asrwt>0</asrwt>
<pdfrwt beam="1">  1       21 0.38534408E-02 0.46250690E+03</pdfrwt>
<pdfrwt beam="2">  1       21 0.30013036E+00 0.46250690E+03</pdfrwt>
<totfact> 0.11934436E+04</totfact>
</mgrwt>
</event>
<event>
 7    0  0.4737014E-002  0.4585982E+03  0.7546771E-02  0.1025189E+00
         21   -1    0    0  502  501  0.00000000000E+00  0.00000000000E+00  0.18746671833E+03  0.18746671833E+03  0.00000000000E+00 0.  1.
         21   -1    0    0  501  502 -0.00000000000E+00 -0.00000000000E+00 -0.28046618567E+03  0.28046618567E+03  0.00000000000E+00 0.  1.
      99926    2    1    2    0    0 -0.14210854715E-13  0.14210854715E-13 -0.92999467342E+02  0.46793290401E+03  0.45859819202E+03 0.  0.
      99925    2    3    3    0    0  0.78403386636E+02 -0.77830618079E+02 -0.20992524689E+02  0.28617151087E+03  0.26315157494E+03 0.  0.
         25    1    4    4    0    0  0.51650465443E+02 -0.77115282020E+02 -0.27110460503E+02  0.15810446695E+03  0.12509000000E+03 0.  0.
         25    1    4    4    0    0  0.26752921193E+02 -0.71533605895E+00  0.61179358145E+01  0.12806704391E+03  0.12509000000E+03 0.  0.
         25    1    3    3    0    0 -0.78403386636E+02  0.77830618079E+02 -0.72006942654E+02  0.18176139314E+03  0.12509000000E+03 0.  0.
<mgrwt>
<rscale>  2 0.45859819E+03</rscale>
<asrwt>0</asrwt>
<pdfrwt beam="1">  1       21 0.27568635E-01 0.45859819E+03</pdfrwt>
<pdfrwt beam="2">  1       21 0.41245027E-01 0.45859819E+03</pdfrwt>
<totfact> 0.65693875E+04</totfact>
</mgrwt>
</event>
<event>
 7    0  0.4737014E-002  0.4515616E+03  0.7546771E-02  0.1027257E+00
         21   -1    0    0  502  501  0.00000000000E+00  0.00000000000E+00  0.20711647699E+03  0.20711647699E+03  0.00000000000E+00 0. -1.
         21   -1    0    0  501  502 -0.00000000000E+00 -0.00000000000E+00 -0.24612706616E+03  0.24612706616E+03  0.00000000000E+00 0. -1.
      99926    2    1    2    0    0  0.00000000000E+00  0.00000000000E+00 -0.39010589170E+02  0.45324354315E+03  0.45156160525E+03 0.  0.
      99925    2    3    3    0    0  0.62414865969E+02  0.48289267921E+02 -0.10140040030E+03  0.29272106646E+03  0.26301352185E+03 0.  0.
         25    1    4    4    0    0  0.35159894943E+02 -0.65905604725E+01 -0.20700558803E+02  0.13174093872E+03  0.12509000000E+03 0.  0.
         25    1    4    4    0    0  0.27254971026E+02  0.54879828393E+02 -0.80699841493E+02  0.16098012774E+03  0.12509000000E+03 0.  0.
         25    1    3    3    0    0 -0.62414865969E+02 -0.48289267921E+02  0.62389811126E+02  0.16052247669E+03  0.12509000000E+03 0.  0.
<mgrwt>
<rscale>  2 0.45156161E+03</rscale>
<asrwt>0</asrwt>
<pdfrwt beam="1">  1       21 0.30458306E-01 0.45156161E+03</pdfrwt>
<pdfrwt beam="2">  1       21 0.36195156E-01 0.45156161E+03</pdfrwt>
<totfact> 0.70591490E+04</totfact>
</mgrwt>
</event>
<event>
 7    0  0.4737014E-002  0.4542928E+03  0.7546771E-02  0.1026450E+00
         21   -1    0    0  502  501  0.00000000000E+00  0.00000000000E+00  0.49773461307E+03  0.49773461307E+03  0.00000000000E+00 0. -1.
         21   -1    0    0  501  502 -0.00000000000E+00 -0.00000000000E+00 -0.10366064269E+03  0.10366064269E+03  0.00000000000E+00 0. -1.
      99926    2    1    2    0    0 -0.14210854715E-13  0.71054273576E-14  0.39407397038E+03  0.60139525576E+03  0.45429281254E+03 0.  0.
      99925    2    3    3    0    0 -0.84807263366E+02  0.35115220628E+02  0.33440914044E+03  0.43516423979E+03  0.26289368906E+03 0.  0.
         25    1    4    4    0    0 -0.64719557158E+02  0.30362488470E+02  0.12691917737E+03  0.19200647767E+03  0.12509000000E+03 0.  0.
         25    1    3    3    0    0  0.84807263366E+02 -0.35115220628E+02  0.59664829939E+02  0.16623101597E+03  0.12509000000E+03 0.  0.
         25    1    4    4    0    0 -0.20087706208E+02  0.47527321584E+01  0.20748996307E+03  0.24315776212E+03  0.12509000000E+03 0.  0.
<mgrwt>
<rscale>  2 0.45429281E+03</rscale>
<asrwt>0</asrwt>
<pdfrwt beam="1">  1       21 0.73196265E-01 0.45429281E+03</pdfrwt>
<pdfrwt beam="2">  1       21 0.15244212E-01 0.45429281E+03</pdfrwt>
<totfact> 0.58920996E+04</totfact>
</mgrwt>
</event>
<event>
 7    0  0.4737014E-002  0.4542504E+03  0.7546771E-02  0.1026462E+00
         21   -1    0    0  502  501  0.00000000000E+00  0.00000000000E+00  0.12717311359E+03  0.12717311359E+03  0.00000000000E+00 0. -1.
         21   -1    0    0  501  502 -0.00000000000E+00 -0.00000000000E+00 -0.40563495216E+03  0.40563495216E+03  0.00000000000E+00 0. -1.
      99926    2    1    2    0    0  0.17763568394E-14 -0.71054273576E-14 -0.27846183857E+03  0.53280806576E+03  0.45425041486E+03 0.  0.
      99925    2    3    3    0    0 -0.66848640986E+01  0.58833496308E+02 -0.28744639530E+03  0.39412029393E+03  0.26305761388E+03 0.  0.
         25    1    3    3    0    0  0.66848640986E+01 -0.58833496308E+02  0.89845567298E+01  0.13868777183E+03  0.12509000000E+03 0.  0.
         25    1    4    4    0    0 -0.37859652443E+02  0.42143204134E+02 -0.17341837158E+03  0.22120317050E+03  0.12509000000E+03 0.  0.
         25    1    4    4    0    0  0.31174788344E+02  0.16690292174E+02 -0.11402802372E+03  0.17291712343E+03  0.12509000000E+03 0.  0.
<mgrwt>
<rscale>  2 0.45425041E+03</rscale>
<asrwt>0</asrwt>
<pdfrwt beam="1">  1       21 0.18701929E-01 0.45425041E+03</pdfrwt>
<pdfrwt beam="2">  1       21 0.59652198E-01 0.45425041E+03</pdfrwt>
<totfact> 0.63392348E+04</totfact>
</mgrwt>
</event>
<event>
 7    0  0.4737014E-002  0.4580125E+03  0.7546771E-02  0.1025359E+00
         21   -1    0    0  502  501  0.00000000000E+00  0.00000000000E+00  0.53749186571E+03  0.53749186571E+03  0.00000000000E+00 0.  1.
         21   -1    0    0  501  502 -0.00000000000E+00 -0.00000000000E+00 -0.97571448965E+02  0.97571448965E+02  0.00000000000E+00 0.  1.
      99926    2    1    2    0    0  0.00000000000E+00  0.00000000000E+00  0.43992041675E+03  0.63506331468E+03  0.45801248954E+03 0.  0.
      99925    2    3    3    0    0  0.10670070410E+03 -0.21016323896E+02  0.33328089963E+03  0.43796886819E+03  0.26251446688E+03 0.  0.
         25    1    3    3    0    0 -0.10670070410E+03  0.21016323896E+02  0.10663951712E+03  0.19709444649E+03  0.12509000000E+03 0.  0.
         25    1    4    4    0    0  0.86586926027E+02 -0.34712164017E+02  0.19833115365E+03  0.25235884113E+03  0.12509000000E+03 0.  0.
         25    1    4    4    0    0  0.20113778069E+02  0.13695840121E+02  0.13494974597E+03  0.18561002705E+03  0.12509000000E+03 0.  0.
<mgrwt>
<rscale>  2 0.45801249E+03</rscale>
<asrwt>0</asrwt>
<pdfrwt beam="1">  1       21 0.79042920E-01 0.45801249E+03</pdfrwt>
<pdfrwt beam="2">  1       21 0.14348743E-01 0.45801249E+03</pdfrwt>
<totfact> 0.55244951E+04</totfact>
</mgrwt>
</event>
<event>
 7    0  0.4737014E-002  0.4556150E+03  0.7546771E-02  0.1026061E+00
         21   -1    0    0  502  501  0.00000000000E+00  0.00000000000E+00  0.73857148870E+02  0.73857148870E+02  0.00000000000E+00 0. -1.
         21   -1    0    0  501  502 -0.00000000000E+00 -0.00000000000E+00 -0.70265711395E+03  0.70265711395E+03  0.00000000000E+00 0. -1.
      99926    2    1    2    0    0 -0.35527136788E-14  0.00000000000E+00 -0.62879996508E+03  0.77651426282E+03  0.45561497372E+03 0.  0.
      99925    2    3    3    0    0 -0.18888368525E+02 -0.31117549518E+02 -0.21210826252E+03  0.33993144658E+03  0.26313190797E+03 0.  0.
         25    1    3    3    0    0  0.18888368525E+02  0.31117549518E+02 -0.41669170257E+03  0.43658281625E+03  0.12509000000E+03 0.  0.
         25    1    4    4    0    0 -0.18151164969E+02  0.21452561595E+02 -0.83668542805E+02  0.15309346931E+03  0.12509000000E+03 0.  0.
         25    1    4    4    0    0 -0.73720355616E+00 -0.52570111113E+02 -0.12843971971E+03  0.18683797727E+03  0.12509000000E+03 0.  0.
<mgrwt>
<rscale>  2 0.45561497E+03</rscale>
<asrwt>0</asrwt>
<pdfrwt beam="1">  1       21 0.10861346E-01 0.45561497E+03</pdfrwt>
<pdfrwt beam="2">  1       21 0.10333192E+00 0.45561497E+03</pdfrwt>
<totfact> 0.48686348E+04</totfact>
</mgrwt>
</event>
<event>
 7    0  0.4737014E-002  0.4682556E+03  0.7546771E-02  0.1022414E+00
         21   -1    0    0  502  501  0.00000000000E+00  0.00000000000E+00  0.81789615097E+03  0.81789615097E+03  0.00000000000E+00 0. -1.
         21   -1    0    0  501  502 -0.00000000000E+00 -0.00000000000E+00 -0.67020526591E+02  0.67020526591E+02  0.00000000000E+00 0. -1.
      99926    2    1    2    0    0  0.00000000000E+00  0.00000000000E+00  0.75087562438E+03  0.88491667756E+03  0.46825561709E+03 0.  0.
      99925    2    3    3    0    0 -0.10810420540E+03  0.21400688130E+02  0.57937568266E+03  0.64574258451E+03  0.26298820337E+03 0.  0.
         25    1    4    4    0    0 -0.59055630917E+02  0.96382492335E+00  0.20362954728E+03  0.24617269777E+03  0.12509000000E+03 0.  0.
         25    1    3    3    0    0  0.10810420540E+03 -0.21400688130E+02  0.17149994172E+03  0.23917409305E+03  0.12509000000E+03 0.  0.
         25    1    4    4    0    0 -0.49048574483E+02  0.20436863207E+02  0.37574613538E+03  0.39956988674E+03  0.12509000000E+03 0.  0.
<mgrwt>
<rscale>  2 0.46825562E+03</rscale>
<asrwt>0</asrwt>
<pdfrwt beam="1">  1       21 0.12027884E+00 0.46825562E+03</pdfrwt>
<pdfrwt beam="2">  1       21 0.98559603E-02 0.46825562E+03</pdfrwt>
<totfact> 0.39616749E+04</totfact>
</mgrwt>
</event>
<event>
 7    0  0.4737014E-002  0.4576042E+03  0.7546771E-02  0.1025478E+00
         21   -1    0    0  502  501  0.00000000000E+00  0.00000000000E+00  0.57849126683E+03  0.57849126683E+03  0.00000000000E+00 0.  1.
         21   -1    0    0  501  502 -0.00000000000E+00 -0.00000000000E+00 -0.90494720780E+02  0.90494720780E+02  0.00000000000E+00 0.  1.
      99926    2    1    2    0    0  0.00000000000E+00  0.00000000000E+00  0.48799654605E+03  0.66898598761E+03  0.45760422055E+03 0.  0.
      99925    2    3    3    0    0 -0.90983437707E+02 -0.24802188907E+02  0.40417135908E+03  0.49131408611E+03  0.26294849154E+03 0.  0.
         25    1    4    4    0    0 -0.19375901599E+02 -0.15742585453E+02  0.13425323030E+03  0.18518826233E+03  0.12509000000E+03 0.  0.
         25    1    4    4    0    0 -0.71607536108E+02 -0.90596034544E+01  0.26991812878E+03  0.30612582378E+03  0.12509000000E+03 0.  0.
         25    1    3    3    0    0  0.90983437707E+02  0.24802188907E+02  0.83825186974E+02  0.17767190150E+03  0.12509000000E+03 0.  0.
<mgrwt>
<rscale>  2 0.45760422E+03</rscale>
<asrwt>0</asrwt>
<pdfrwt beam="1">  1       21 0.85072243E-01 0.45760422E+03</pdfrwt>
<pdfrwt beam="2">  1       21 0.13308048E-01 0.45760422E+03</pdfrwt>
<totfact> 0.53512284E+04</totfact>
</mgrwt>
</event>
<event>
 7    0  0.4737014E-002  0.4504345E+03  0.7546771E-02  0.1027593E+00
         21   -1    0    0  502  501  0.00000000000E+00  0.00000000000E+00  0.13529732872E+04  0.13529732872E+04  0.00000000000E+00 0. -1.
         21   -1    0    0  501  502 -0.00000000000E+00 -0.00000000000E+00 -0.37489875693E+02  0.37489875693E+02  0.00000000000E+00 0. -1.
      99926    2    1    2    0    0  0.35527136788E-14  0.14210854715E-13  0.13154834115E+04  0.13904631629E+04  0.45043445851E+03 0.  0.
      99925    2    3    3    0    0 -0.21584049529E+02 -0.10377034939E+03  0.90573605944E+03  0.94913045707E+03  0.26316659848E+03 0.  0.
         25    1    4    4    0    0  0.20610003089E+02 -0.66507058994E+02  0.38936257050E+03  0.41484777995E+03  0.12509000000E+03 0.  0.
         25    1    3    3    0    0  0.21584049529E+02  0.10377034939E+03  0.40974735207E+03  0.44133270583E+03  0.12509000000E+03 0.  0.
         25    1    4    4    0    0 -0.42194052617E+02 -0.37263290394E+02  0.51637348894E+03  0.53428267712E+03  0.12509000000E+03 0.  0.
<mgrwt>
<rscale>  2 0.45043446E+03</rscale>
<asrwt>0</asrwt>
<pdfrwt beam="1">  1       21 0.19896663E+00 0.45043446E+03</pdfrwt>
<pdfrwt beam="2">  1       21 0.55132179E-02 0.45043446E+03</pdfrwt>
<totfact> 0.27551951E+04</totfact>
</mgrwt>
</event>
<event>
 7    0  0.4737014E-002  0.4596541E+03  0.7546771E-02  0.1024882E+00
         21   -1    0    0  502  501  0.00000000000E+00  0.00000000000E+00  0.24807323084E+03  0.24807323084E+03  0.00000000000E+00 0.  1.
         21   -1    0    0  501  502 -0.00000000000E+00 -0.00000000000E+00 -0.21292287337E+03  0.21292287337E+03  0.00000000000E+00 0.  1.
      99926    2    1    2    0    0  0.35527136788E-14  0.00000000000E+00  0.35150357465E+02  0.46099610421E+03  0.45965406608E+03 0.  0.
      99925    2    3    3    0    0 -0.25125113543E+02  0.60528648602E+02  0.11982833273E+03  0.29633628449E+03  0.26298550445E+03 0.  0.
         25    1    3    3    0    0  0.25125113543E+02 -0.60528648602E+02 -0.84677975269E+02  0.16465981971E+03  0.12509000000E+03 0.  0.
         25    1    4    4    0    0 -0.37932652404E+02  0.50824978456E+02  0.90311322348E+02  0.16681039415E+03  0.12509000000E+03 0.  0.
         25    1    4    4    0    0  0.12807538861E+02  0.97036701463E+01  0.29517010386E+02  0.12952589034E+03  0.12509000000E+03 0.  0.
<mgrwt>
<rscale>  2 0.45965407E+03</rscale>
<asrwt>0</asrwt>
<pdfrwt beam="1">  1       21 0.36481358E-01 0.45965407E+03</pdfrwt>
<pdfrwt beam="2">  1       21 0.31312187E-01 0.45965407E+03</pdfrwt>
<totfact> 0.65637353E+04</totfact>
</mgrwt>
</event>
<event>
 7    0  0.4737014E-002  0.4491090E+03  0.7546771E-02  0.1027988E+00
         21   -1    0    0  502  501  0.00000000000E+00  0.00000000000E+00  0.86673141344E+02  0.86673141344E+02  0.00000000000E+00 0. -1.
         21   -1    0    0  501  502 -0.00000000000E+00 -0.00000000000E+00 -0.58178026979E+03  0.58178026979E+03  0.00000000000E+00 0. -1.
      99926    2    1    2    0    0  0.00000000000E+00  0.00000000000E+00 -0.49510712845E+03  0.66845341113E+03  0.44910900038E+03 0.  0.
      99925    2    3    3    0    0  0.86105388546E+02 -0.16412659580E+02 -0.22068459375E+03  0.35438534689E+03  0.26306609595E+03 0.  0.
         25    1    4    4    0    0  0.47860476064E+02 -0.25066851172E+02 -0.15932247133E+03  0.20964286339E+03  0.12509000000E+03 0.  0.
         25    1    3    3    0    0 -0.86105388546E+02  0.16412659580E+02 -0.27442253469E+03  0.31406806424E+03  0.12509000000E+03 0.  0.
         25    1    4    4    0    0  0.38244912483E+02  0.86541915915E+01 -0.61362122419E+02  0.14474248350E+03  0.12509000000E+03 0.  0.
<mgrwt>
<rscale>  2 0.44910900E+03</rscale>
<asrwt>0</asrwt>
<pdfrwt beam="1">  1       21 0.12746051E-01 0.44910900E+03</pdfrwt>
<pdfrwt beam="2">  1       21 0.85555919E-01 0.44910900E+03</pdfrwt>
<totfact> 0.57261722E+04</totfact>
</mgrwt>
</event>
<event>
 7    0  0.4737014E-002  0.4494422E+03  0.7546771E-02  0.1027889E+00
         21   -1    0    0  502  501  0.00000000000E+00  0.00000000000E+00  0.43411083389E+03  0.43411083389E+03  0.00000000000E+00 0. -1.
         21   -1    0    0  501  502 -0.00000000000E+00 -0.00000000000E+00 -0.11632873229E+03  0.11632873229E+03  0.00000000000E+00 0. -1.
      99926    2    1    2    0    0  0.35527136788E-14 -0.14210854715E-13  0.31778210160E+03  0.55043956618E+03  0.44944215636E+03 0.  0.
      99925    2    3    3    0    0  0.87422437199E+01 -0.10673695451E+03  0.21673637655E+03  0.35723772629E+03  0.26301127710E+03 0.  0.
         25    1    4    4    0    0 -0.35367624188E+02 -0.51980248733E+02  0.96649422169E+02  0.17012182107E+03  0.12509000000E+03 0.  0.
         25    1    3    3    0    0 -0.87422437199E+01  0.10673695451E+03  0.10104572505E+03  0.19320183989E+03  0.12509000000E+03 0.  0.
         25    1    4    4    0    0  0.44109867908E+02 -0.54756705780E+02  0.12008695438E+03  0.18711590522E+03  0.12509000000E+03 0.  0.
<mgrwt>
<rscale>  2 0.44944216E+03</rscale>
<asrwt>0</asrwt>
<pdfrwt beam="1">  1       21 0.63839828E-01 0.44944216E+03</pdfrwt>
<pdfrwt beam="2">  1       21 0.17107167E-01 0.44944216E+03</pdfrwt>
<totfact> 0.64632988E+04</totfact>
</mgrwt>
</event>
<event>
 7    0  0.4737014E-002  0.4537247E+03  0.7546771E-02  0.1026617E+00
         21   -1    0    0  502  501  0.00000000000E+00  0.00000000000E+00  0.31316994079E+03  0.31316994079E+03  0.00000000000E+00 0.  1.
         21   -1    0    0  501  502 -0.00000000000E+00 -0.00000000000E+00 -0.16434053857E+03  0.16434053857E+03  0.00000000000E+00 0.  1.
      99926    2    1    2    0    0  0.17763568394E-14  0.00000000000E+00  0.14882940223E+03  0.47751047936E+03  0.45372465982E+03 0.  0.
      99925    2    3    3    0    0 -0.13577939704E+02 -0.29001024871E+02  0.20665661411E+03  0.33602933424E+03  0.26302725606E+03 0.  0.
         25    1    4    4    0    0  0.33558370196E+02 -0.10742148336E+02  0.96922386038E+02  0.16212037187E+03  0.12509000000E+03 0.  0.
         25    1    3    3    0    0  0.13577939704E+02  0.29001024871E+02 -0.57827211876E+02  0.14148114512E+03  0.12509000000E+03 0.  0.
         25    1    4    4    0    0 -0.47136309900E+02 -0.18258876535E+02  0.10973422807E+03  0.17390896237E+03  0.12509000000E+03 0.  0.
<mgrwt>
<rscale>  2 0.45372466E+03</rscale>
<asrwt>0</asrwt>
<pdfrwt beam="1">  1       21 0.46054403E-01 0.45372466E+03</pdfrwt>
<pdfrwt beam="2">  1       21 0.24167726E-01 0.45372466E+03</pdfrwt>
<totfact> 0.67563074E+04</totfact>
</mgrwt>
</event>
<event>
 7    0  0.4737014E-002  0.4343498E+03  0.7546771E-02  0.1032495E+00
         21   -1    0    0  502  501  0.00000000000E+00  0.00000000000E+00  0.81006132004E+03  0.81006132004E+03  0.00000000000E+00 0.  1.
         21   -1    0    0  501  502 -0.00000000000E+00 -0.00000000000E+00 -0.58223908264E+02  0.58223908264E+02  0.00000000000E+00 0.  1.
      99926    2    1    2    0    0  0.00000000000E+00  0.00000000000E+00  0.75183741178E+03  0.86828522831E+03  0.43434979446E+03 0.  0.
      99925    2    3    3    0    0  0.91053919436E+02  0.12321732743E+02  0.46357246938E+03  0.54089123561E+03  0.26309932163E+03 0.  0.
         25    1    3    3    0    0 -0.91053919436E+02 -0.12321732743E+02  0.28826494239E+03  0.32739399270E+03  0.12509000000E+03 0.  0.
         25    1    4    4    0    0  0.31255989513E+02  0.30569731448E+02  0.16853801271E+03  0.21439219946E+03  0.12509000000E+03 0.  0.
         25    1    4    4    0    0  0.59797929923E+02 -0.18247998705E+02  0.29503445667E+03  0.32649903614E+03  0.12509000000E+03 0.  0.
<mgrwt>
<rscale>  2 0.43434979E+03</rscale>
<asrwt>0</asrwt>
<pdfrwt beam="1">  1       21 0.11912666E+00 0.43434979E+03</pdfrwt>
<pdfrwt beam="2">  1       21 0.85623399E-02 0.43434979E+03</pdfrwt>
<totfact> 0.52644743E+04</totfact>
</mgrwt>
</event>
<event>
 7    0  0.4737014E-002  0.4538019E+03  0.7546771E-02  0.1026594E+00
         21   -1    0    0  502  501  0.00000000000E+00  0.00000000000E+00  0.11849767301E+03  0.11849767301E+03  0.00000000000E+00 0. -1.
         21   -1    0    0  501  502 -0.00000000000E+00 -0.00000000000E+00 -0.43447300421E+03  0.43447300421E+03  0.00000000000E+00 0. -1.
      99926    2    1    2    0    0  0.00000000000E+00  0.00000000000E+00 -0.31597533120E+03  0.55297067722E+03  0.45380189503E+03 0.  0.
      99925    2    3    3    0    0 -0.54214951135E+02 -0.73144399576E+02 -0.27864268962E+03  0.39381478401E+03  0.26298093374E+03 0.  0.
         25    1    4    4    0    0  0.88134236631E+01 -0.15485133952E+02 -0.11539951792E+03  0.17111990722E+03  0.12509000000E+03 0.  0.
         25    1    4    4    0    0 -0.63028374798E+02 -0.57659265624E+02 -0.16324317170E+03  0.22269487679E+03  0.12509000000E+03 0.  0.
         25    1    3    3    0    0  0.54214951135E+02  0.73144399576E+02 -0.37332641577E+02  0.15915589321E+03  0.12509000000E+03 0.  0.
<mgrwt>
<rscale>  2 0.45380190E+03</rscale>
<asrwt>0</asrwt>
<pdfrwt beam="1">  1       21 0.17426128E-01 0.45380190E+03</pdfrwt>
<pdfrwt beam="2">  1       21 0.63893088E-01 0.45380190E+03</pdfrwt>
<totfact> 0.62258660E+04</totfact>
</mgrwt>
</event>
<event>
 7    0  0.4737014E-002  0.4423084E+03  0.7546771E-02  0.1030041E+00
         21   -1    0    0  502  501  0.00000000000E+00  0.00000000000E+00  0.10194880058E+03  0.10194880058E+03  0.00000000000E+00 0. -1.
         21   -1    0    0  501  502 -0.00000000000E+00 -0.00000000000E+00 -0.47974256790E+03  0.47974256790E+03  0.00000000000E+00 0. -1.
      99926    2    1    2    0    0  0.00000000000E+00  0.00000000000E+00 -0.37779376732E+03  0.58169136848E+03  0.44230839640E+03 0.  0.
      99925    2    3    3    0    0  0.76206089782E+02  0.64211487847E+02 -0.22073839597E+03  0.35753878414E+03  0.26301722267E+03 0.  0.
         25    1    4    4    0    0  0.67533613863E+02  0.45185608468E+02 -0.15331397356E+03  0.21390467691E+03  0.12509000000E+03 0.  0.
         25    1    3    3    0    0 -0.76206089782E+02 -0.64211487847E+02 -0.15705537135E+03  0.22415258433E+03  0.12509000000E+03 0.  0.
         25    1    4    4    0    0  0.86724759185E+01  0.19025879379E+02 -0.67424422413E+02  0.14363410724E+03  0.12509000000E+03 0.  0.
<mgrwt>
<rscale>  2 0.44230840E+03</rscale>
<asrwt>0</asrwt>
<pdfrwt beam="1">  1       21 0.14992471E-01 0.44230840E+03</pdfrwt>
<pdfrwt beam="2">  1       21 0.70550377E-01 0.44230840E+03</pdfrwt>
<totfact> 0.66217102E+04</totfact>
</mgrwt>
</event>
<event>
 7    0  0.4737014E-002  0.4471650E+03  0.7546771E-02  0.1028571E+00
         21   -1    0    0  502  501  0.00000000000E+00  0.00000000000E+00  0.85945661096E+02  0.85945661096E+02  0.00000000000E+00 0. -1.
         21   -1    0    0  501  502 -0.00000000000E+00 -0.00000000000E+00 -0.58163649755E+03  0.58163649755E+03  0.00000000000E+00 0. -1.
      99926    2    1    2    0    0 -0.35527136788E-14 -0.71054273576E-14 -0.49569083645E+03  0.66758215864E+03  0.44716499550E+03 0.  0.
      99925    2    3    3    0    0 -0.88174224184E+01  0.57009422988E+02 -0.18199265972E+03  0.32497177434E+03  0.26297814487E+03 0.  0.
         25    1    4    4    0    0  0.33080622243E+02  0.22468736629E+02 -0.10663776826E+03  0.16916942222E+03  0.12509000000E+03 0.  0.
         25    1    4    4    0    0 -0.41898044662E+02  0.34540686359E+02 -0.75354891461E+02  0.15580235213E+03  0.12509000000E+03 0.  0.
         25    1    3    3    0    0  0.88174224184E+01 -0.57009422988E+02 -0.31369817673E+03  0.34261038430E+03  0.12509000000E+03 0.  0.
<mgrwt>
<rscale>  2 0.44716500E+03</rscale>
<asrwt>0</asrwt>
<pdfrwt beam="1">  1       21 0.12639068E-01 0.44716500E+03</pdfrwt>
<pdfrwt beam="2">  1       21 0.85534780E-01 0.44716500E+03</pdfrwt>
<totfact> 0.58209957E+04</totfact>
</mgrwt>
</event>
<event>
 7    0  0.4737014E-002  0.4548010E+03  0.7546771E-02  0.1026300E+00
         21   -1    0    0  502  501  0.00000000000E+00  0.00000000000E+00  0.25075965225E+03  0.25075965225E+03  0.00000000000E+00 0. -1.
         21   -1    0    0  501  502 -0.00000000000E+00 -0.00000000000E+00 -0.20621734123E+03  0.20621734123E+03  0.00000000000E+00 0. -1.
      99926    2    1    2    0    0  0.00000000000E+00  0.00000000000E+00  0.44542311014E+02  0.45697699348E+03  0.45480100605E+03 0.  0.
      99925    2    3    3    0    0 -0.60863636759E+02 -0.74206153196E+02  0.87900434756E+02  0.29345827759E+03  0.26302155578E+03 0.  0.
         25    1    3    3    0    0  0.60863636759E+02  0.74206153196E+02 -0.43358123741E+02  0.16351871589E+03  0.12509000000E+03 0.  0.
         25    1    4    4    0    0 -0.48931003836E+02 -0.64713779777E+02  0.74672209511E+02  0.16675000271E+03  0.12509000000E+03 0.  0.
         25    1    4    4    0    0 -0.11932632923E+02 -0.94923734195E+01  0.13228225245E+02  0.12670827489E+03  0.12509000000E+03 0.  0.
<mgrwt>
<rscale>  2 0.45480101E+03</rscale>
<asrwt>0</asrwt>
<pdfrwt beam="1">  1       21 0.36876420E-01 0.45480101E+03</pdfrwt>
<pdfrwt beam="2">  1       21 0.30326079E-01 0.45480101E+03</pdfrwt>
<totfact> 0.68509907E+04</totfact>
</mgrwt>
</event>
<event>
 7    0  0.4737014E-002  0.4589952E+03  0.7546771E-02  0.1025073E+00
         21   -1    0    0  502  501  0.00000000000E+00  0.00000000000E+00  0.38990756013E+02  0.38990756013E+02  0.00000000000E+00 0. -1.
         21   -1    0    0  501  502 -0.00000000000E+00 -0.00000000000E+00 -0.13508111161E+04  0.13508111161E+04  0.00000000000E+00 0. -1.
      99926    2    1    2    0    0  0.00000000000E+00  0.00000000000E+00 -0.13118203601E+04  0.13898018721E+04  0.45899519233E+03 0.  0.
      99925    2    3    3    0    0 -0.82453097619E+01 -0.34584810227E+02 -0.11596540209E+04  0.11896364478E+04  0.26300824196E+03 0.  0.
         25    1    4    4    0    0 -0.87957745948E+01 -0.24586110174E+01 -0.40387107661E+03  0.42289805514E+03  0.12509000000E+03 0.  0.
         25    1    4    4    0    0  0.55046483284E+00 -0.32126199209E+02 -0.75578294433E+03  0.76673839263E+03  0.12509000000E+03 0.  0.
         25    1    3    3    0    0  0.82453097619E+01  0.34584810227E+02 -0.15216633911E+03  0.20016542431E+03  0.12509000000E+03 0.  0.
<mgrwt>
<rscale>  2 0.45899519E+03</rscale>
<asrwt>0</asrwt>
<pdfrwt beam="1">  1       21 0.57339336E-02 0.45899519E+03</pdfrwt>
<pdfrwt beam="2">  1       21 0.19864873E+00 0.45899519E+03</pdfrwt>
<totfact> 0.25794785E+04</totfact>
</mgrwt>
</event>
<event>
 7    0  0.4737014E-002  0.4547184E+03  0.7546771E-02  0.1026324E+00
         21   -1    0    0  502  501  0.00000000000E+00  0.00000000000E+00  0.55168440865E+02  0.55168440865E+02  0.00000000000E+00 0.  1.
         21   -1    0    0  501  502 -0.00000000000E+00 -0.00000000000E+00 -0.93698887233E+03  0.93698887233E+03  0.00000000000E+00 0.  1.
      99926    2    1    2    0    0  0.00000000000E+00  0.00000000000E+00 -0.88182043146E+03  0.99215731319E+03  0.45471844121E+03 0.  0.
      99925    2    3    3    0    0  0.10867717275E+03  0.86245557154E+01 -0.61827039165E+03  0.68072314291E+03  0.26313610406E+03 0.  0.
         25    1    4    4    0    0  0.79999118688E+02  0.16291489073E+01 -0.25126141428E+03  0.29186010266E+03  0.12509000000E+03 0.  0.
         25    1    3    3    0    0 -0.10867717275E+03 -0.86245557154E+01 -0.26355003981E+03  0.31143417028E+03  0.12509000000E+03 0.  0.
         25    1    4    4    0    0  0.28678054057E+02  0.69954068081E+01 -0.36700897737E+03  0.38886304025E+03  0.12509000000E+03 0.  0.
<mgrwt>
<rscale>  2 0.45471844E+03</rscale>
<asrwt>0</asrwt>
<pdfrwt beam="1">  1       21 0.81130053E-02 0.45471844E+03</pdfrwt>
<pdfrwt beam="2">  1       21 0.13779249E+00 0.45471844E+03</pdfrwt>
<totfact> 0.39560122E+04</totfact>
</mgrwt>
</event>
<event>
 7    0  0.4737014E-002  0.4529911E+03  0.7546771E-02  0.1026834E+00
         21   -1    0    0  502  501  0.00000000000E+00  0.00000000000E+00  0.12096444924E+03  0.12096444924E+03  0.00000000000E+00 0.  1.
         21   -1    0    0  501  502 -0.00000000000E+00 -0.00000000000E+00 -0.42409352797E+03  0.42409352797E+03  0.00000000000E+00 0.  1.
      99926    2    1    2    0    0  0.00000000000E+00  0.00000000000E+00 -0.30312907873E+03  0.54505797721E+03  0.45299112590E+03 0.  0.
      99925    2    3    3    0    0 -0.11986712827E+02 -0.10658280726E+03 -0.22653867183E+03  0.36335169053E+03  0.26306102921E+03 0.  0.
         25    1    3    3    0    0  0.11986712827E+02  0.10658280726E+03 -0.76590406897E+02  0.18170628668E+03  0.12509000000E+03 0.  0.
         25    1    4    4    0    0  0.26637865632E+02 -0.29380111586E+02 -0.90815357967E+02  0.15958604007E+03  0.12509000000E+03 0.  0.
         25    1    4    4    0    0 -0.38624578458E+02 -0.77202695678E+02 -0.13572331387E+03  0.20376565046E+03  0.12509000000E+03 0.  0.
<mgrwt>
<rscale>  2 0.45299113E+03</rscale>
<asrwt>0</asrwt>
<pdfrwt beam="1">  1       21 0.17788890E-01 0.45299113E+03</pdfrwt>
<pdfrwt beam="2">  1       21 0.62366695E-01 0.45299113E+03</pdfrwt>
<totfact> 0.63192806E+04</totfact>
</mgrwt>
</event>
<event>
 7    0  0.4737014E-002  0.4587587E+03  0.7546771E-02  0.1025142E+00
         21   -1    0    0  502  501  0.00000000000E+00  0.00000000000E+00  0.15386527073E+03  0.15386527073E+03  0.00000000000E+00 0.  1.
         21   -1    0    0  501  502 -0.00000000000E+00 -0.00000000000E+00 -0.34195424022E+03  0.34195424022E+03  0.00000000000E+00 0.  1.
      99926    2    1    2    0    0  0.00000000000E+00  0.00000000000E+00 -0.18808896949E+03  0.49581951094E+03  0.45875868056E+03 0.  0.
      99925    2    3    3    0    0 -0.10482185570E+03 -0.88183499223E+01 -0.63326577074E+02  0.29020203262E+03  0.26294786488E+03 0.  0.
         25    1    3    3    0    0  0.10482185570E+03  0.88183499223E+01 -0.12476239242E+03  0.20561747832E+03  0.12509000000E+03 0.  0.
         25    1    4    4    0    0 -0.82305213549E+02 -0.26182035481E+01 -0.64213329746E+02  0.16294742399E+03  0.12509000000E+03 0.  0.
         25    1    4    4    0    0 -0.22516642152E+02 -0.62001463742E+01  0.88675267213E+00  0.12725460864E+03  0.12509000000E+03 0.  0.
<mgrwt>
<rscale>  2 0.45875868E+03</rscale>
<asrwt>0</asrwt>
<pdfrwt beam="1">  1       21 0.22627246E-01 0.45875868E+03</pdfrwt>
<pdfrwt beam="2">  1       21 0.50287388E-01 0.45875868E+03</pdfrwt>
<totfact> 0.63644972E+04</totfact>
</mgrwt>
</event>
<event>
 7    0  0.4737014E-002  0.4536525E+03  0.7546771E-02  0.1026638E+00
         21   -1    0    0  502  501  0.00000000000E+00  0.00000000000E+00  0.27788864539E+03  0.27788864539E+03  0.00000000000E+00 0.  1.
         21   -1    0    0  501  502 -0.00000000000E+00 -0.00000000000E+00 -0.18514663074E+03  0.18514663074E+03  0.00000000000E+00 0.  1.
      99926    2    1    2    0    0  0.71054273576E-14  0.00000000000E+00  0.92742014645E+02  0.46303527613E+03  0.45365249439E+03 0.  0.
      99925    2    3    3    0    0  0.55380971365E+02 -0.31326026925E+02 -0.35711402980E+02  0.27278239034E+03  0.26284321605E+03 0.  0.
         25    1    3    3    0    0 -0.55380971365E+02  0.31326026925E+02  0.12845341763E+03  0.19025288579E+03  0.12509000000E+03 0.  0.
         25    1    4    4    0    0  0.23217223488E+02 -0.39644713481E+02  0.14309378628E+02  0.13402615114E+03  0.12509000000E+03 0.  0.
         25    1    4    4    0    0  0.32163747877E+02  0.83186865565E+01 -0.50020781608E+02  0.13875623920E+03  0.12509000000E+03 0.  0.
<mgrwt>
<rscale>  2 0.45365249E+03</rscale>
<asrwt>0</asrwt>
<pdfrwt beam="1">  1       21 0.40865978E-01 0.45365249E+03</pdfrwt>
<pdfrwt beam="2">  1       21 0.27227445E-01 0.45365249E+03</pdfrwt>
<totfact> 0.68689185E+04</totfact>
</mgrwt>
</event>
<event>
 7    0  0.4737014E-002  0.4309194E+03  0.7546771E-02  0.1033570E+00
         21   -1    0    0  502  501  0.00000000000E+00  0.00000000000E+00  0.48959714431E+03  0.48959714431E+03  0.00000000000E+00 0.  1.
         21   -1    0    0  501  502 -0.00000000000E+00 -0.00000000000E+00 -0.94818519252E+02  0.94818519252E+02  0.00000000000E+00 0.  1.
      99926    2    1    2    0    0  0.00000000000E+00  0.00000000000E+00  0.39477862505E+03  0.58441566356E+03  0.43091937182E+03 0.  0.
      99925    2    3    3    0    0 -0.40896394696E+02 -0.63004292190E+02  0.31828028780E+03  0.41966870718E+03  0.26301601900E+03 0.  0.
         25    1    4    4    0    0 -0.48743528835E+02 -0.58401592573E+02  0.19460885891E+03  0.24352986200E+03  0.12509000000E+03 0.  0.
         25    1    4    4    0    0  0.78471341390E+01 -0.46026996169E+01  0.12367142889E+03  0.17613884518E+03  0.12509000000E+03 0.  0.
         25    1    3    3    0    0  0.40896394696E+02  0.63004292190E+02  0.76498337253E+02  0.16474695638E+03  0.12509000000E+03 0.  0.
<mgrwt>
<rscale>  2 0.43091937E+03</rscale>
<asrwt>0</asrwt>
<pdfrwt beam="1">  1       21 0.71999579E-01 0.43091937E+03</pdfrwt>
<pdfrwt beam="2">  1       21 0.13943900E-01 0.43091937E+03</pdfrwt>
<totfact> 0.72491344E+04</totfact>
</mgrwt>
</event>
<event>
 7    0  0.4737014E-002  0.4557207E+03  0.7546771E-02  0.1026030E+00
         21   -1    0    0  502  501  0.00000000000E+00  0.00000000000E+00  0.44139262924E+03  0.44139262924E+03  0.00000000000E+00 0. -1.
         21   -1    0    0  501  502 -0.00000000000E+00 -0.00000000000E+00 -0.11762848498E+03  0.11762848498E+03  0.00000000000E+00 0. -1.
      99926    2    1    2    0    0 -0.71054273576E-14  0.00000000000E+00  0.32376414426E+03  0.55902111422E+03  0.45572073140E+03 0.  0.
      99925    2    3    3    0    0  0.48413093451E+02  0.62273290933E+02  0.30430446172E+03  0.40986355415E+03  0.26299265620E+03 0.  0.
         25    1    3    3    0    0 -0.48413093451E+02 -0.62273290933E+02  0.19459682543E+02  0.14915756007E+03  0.12509000000E+03 0.  0.
         25    1    4    4    0    0  0.62812448891E+02  0.41125858156E+02  0.17960925771E+03  0.23139518901E+03  0.12509000000E+03 0.  0.
         25    1    4    4    0    0 -0.14399355440E+02  0.21147432778E+02  0.12469520401E+03  0.17846836514E+03  0.12509000000E+03 0.  0.
<mgrwt>
<rscale>  2 0.45572073E+03</rscale>
<asrwt>0</asrwt>
<pdfrwt beam="1">  1       21 0.64910680E-01 0.45572073E+03</pdfrwt>
<pdfrwt beam="2">  1       21 0.17298307E-01 0.45572073E+03</pdfrwt>
<totfact> 0.60926210E+04</totfact>
</mgrwt>
</event>
<event>
 6    0  0.4737014E-002  0.4506028E+03  0.7546771E-02  0.1027542E+00
         21   -1    0    0  502  501  0.00000000000E+00  0.00000000000E+00  0.42528184530E+03  0.42528184530E+03  0.00000000000E+00 0.  1.
         21   -1    0    0  501  502 -0.00000000000E+00 -0.00000000000E+00 -0.11935784532E+03  0.11935784532E+03  0.00000000000E+00 0.  1.
      99926    2    1    2    0    0  0.00000000000E+00  0.00000000000E+00  0.30592399998E+03  0.54463969063E+03  0.45060281717E+03 0.  0.
         25    1    3    3    0    0 -0.45018136841E+02  0.66169808491E+02  0.13604220801E+03  0.20139529950E+03  0.12509000000E+03 0.  0.
         25    1    3    3    0    0 -0.19298022923E+02  0.27110624602E+02  0.70963327904E+02  0.14761673910E+03  0.12509000000E+03 0.  0.
         25    1    3    3    0    0  0.64316159763E+02 -0.93280433092E+02  0.98918464071E+02  0.19562765203E+03  0.12509000000E+03 0.  0.
<mgrwt>
<rscale>  2 0.45060282E+03</rscale>
<asrwt>0</asrwt>
<pdfrwt beam="1">  1       21 0.62541447E-01 0.45060282E+03</pdfrwt>
<pdfrwt beam="2">  1       21 0.17552625E-01 0.45060282E+03</pdfrwt>
<totfact> 0.64435012E+04</totfact>
</mgrwt>
</event>
<event>
 7    0  0.4737014E-002  0.4529231E+03  0.7546771E-02  0.1026854E+00
         21   -1    0    0  502  501  0.00000000000E+00  0.00000000000E+00  0.46072286443E+03  0.46072286443E+03  0.00000000000E+00 0.  1.
         21   -1    0    0  501  502 -0.00000000000E+00 -0.00000000000E+00 -0.11131382734E+03  0.11131382734E+03  0.00000000000E+00 0.  1.
      99926    2    1    2    0    0  0.00000000000E+00  0.71054273576E-14  0.34940903709E+03  0.57203669177E+03  0.45292306359E+03 0.  0.
      99925    2    3    3    0    0  0.10040084791E+03 -0.33373894874E+02  0.26398037181E+03  0.38726734347E+03  0.26286158239E+03 0.  0.
         25    1    4    4    0    0  0.46468135179E+02  0.15756701706E+02  0.94099833848E+02  0.16404221428E+03  0.12509000000E+03 0.  0.
         25    1    3    3    0    0 -0.10040084791E+03  0.33373894874E+02  0.85428665273E+02  0.18476934830E+03  0.12509000000E+03 0.  0.
         25    1    4    4    0    0  0.53932712732E+02 -0.49130596581E+02  0.16988053797E+03  0.22322512919E+03  0.12509000000E+03 0.  0.
<mgrwt>
<rscale>  2 0.45292306E+03</rscale>
<asrwt>0</asrwt>
<pdfrwt beam="1">  1       21 0.67753362E-01 0.45292306E+03</pdfrwt>
<pdfrwt beam="2">  1       21 0.16369681E-01 0.45292306E+03</pdfrwt>
<totfact> 0.61436137E+04</totfact>
</mgrwt>
</event>
<event>
 7    0  0.4737014E-002  0.4459476E+03  0.7546771E-02  0.1028937E+00
         21   -1    0    0  502  501  0.00000000000E+00  0.00000000000E+00  0.60116116742E+02  0.60116116742E+02  0.00000000000E+00 0.  1.
         21   -1    0    0  501  502 -0.00000000000E+00 -0.00000000000E+00 -0.82702145018E+03  0.82702145018E+03  0.00000000000E+00 0.  1.
      99926    2    1    2    0    0  0.17763568394E-14  0.00000000000E+00 -0.76690533344E+03  0.88713756692E+03  0.44594761148E+03 0.  0.
      99925    2    3    3    0    0  0.85389309072E+01 -0.77277959250E+02 -0.34799281498E+03  0.44308801727E+03  0.26302698615E+03 0.  0.
         25    1    3    3    0    0 -0.85389309072E+01  0.77277959250E+02 -0.41891251846E+03  0.44404954965E+03  0.12509000000E+03 0.  0.
         25    1    4    4    0    0 -0.35250873044E+02 -0.31124541951E+02 -0.18011503021E+03  0.22427726895E+03  0.12509000000E+03 0.  0.
         25    1    4    4    0    0  0.43789803951E+02 -0.46153417300E+02 -0.16787778478E+03  0.21881074832E+03  0.12509000000E+03 0.  0.
<mgrwt>
<rscale>  2 0.44594761E+03</rscale>
<asrwt>0</asrwt>
<pdfrwt beam="1">  1       21 0.88406062E-02 0.44594761E+03</pdfrwt>
<pdfrwt beam="2">  1       21 0.12162079E+00 0.44594761E+03</pdfrwt>
<totfact> 0.47041261E+04</totfact>
</mgrwt>
</event>
<event>
 7    0  0.4737014E-002  0.4545399E+03  0.7546771E-02  0.1026377E+00
         21   -1    0    0  502  501  0.00000000000E+00  0.00000000000E+00  0.23454745454E+03  0.23454745454E+03  0.00000000000E+00 0. -1.
         21   -1    0    0  501  502 -0.00000000000E+00 -0.00000000000E+00 -0.22021820939E+03  0.22021820939E+03  0.00000000000E+00 0. -1.
      99926    2    1    2    0    0 -0.14210854715E-13 -0.71054273576E-14  0.14329245148E+02  0.45476566393E+03  0.45453985724E+03 0.  0.
      99925    2    3    3    0    0 -0.68419507497E+02 -0.39666234689E+02  0.89448379047E+02  0.28879870469E+03  0.26296205075E+03 0.  0.
         25    1    3    3    0    0  0.68419507497E+02  0.39666234689E+02 -0.75119133900E+02  0.16596695924E+03  0.12509000000E+03 0.  0.
         25    1    4    4    0    0 -0.56024141257E+02 -0.19137966029E+02  0.10153193477E+02  0.13876441037E+03  0.12509000000E+03 0.  0.
         25    1    4    4    0    0 -0.12395366240E+02 -0.20528268660E+02  0.79295185570E+02  0.15003429432E+03  0.12509000000E+03 0.  0.
<mgrwt>
<rscale>  2 0.45453986E+03</rscale>
<asrwt>0</asrwt>
<pdfrwt beam="1">  1       21 0.34492273E-01 0.45453986E+03</pdfrwt>
<pdfrwt beam="2">  1       21 0.32385031E-01 0.45453986E+03</pdfrwt>
<totfact> 0.68815279E+04</totfact>
</mgrwt>
</event>
<event>
 7    0  0.4737014E-002  0.4646706E+03  0.7546771E-02  0.1023435E+00
         21   -1    0    0  502  501  0.00000000000E+00  0.00000000000E+00  0.20147017204E+04  0.20147017204E+04  0.00000000000E+00 0.  1.
         21   -1    0    0  501  502 -0.00000000000E+00 -0.00000000000E+00 -0.26792893254E+02  0.26792893254E+02  0.00000000000E+00 0.  1.
      99926    2    1    2    0    0  0.00000000000E+00  0.00000000000E+00  0.19879088271E+04  0.20414946136E+04  0.46467058496E+03 0.  0.
      99925    2    3    3    0    0  0.65184314974E+02 -0.10282164417E+03  0.12072577807E+04  0.12415665857E+04  0.26304933440E+03 0.  0.
         25    1    4    4    0    0  0.41781127458E+02 -0.55761434460E+02  0.44943452424E+03  0.47169259042E+03  0.12509000000E+03 0.  0.
         25    1    3    3    0    0 -0.65184314974E+02  0.10282164417E+03  0.78065104644E+03  0.79992802791E+03  0.12509000000E+03 0.  0.
         25    1    4    4    0    0  0.23403187516E+02 -0.47060209707E+02  0.75782325644E+03  0.76987399529E+03  0.12509000000E+03 0.  0.
<mgrwt>
<rscale>  2 0.46467058E+03</rscale>
<asrwt>0</asrwt>
<pdfrwt beam="1">  1       21 0.29627956E+00 0.46467058E+03</pdfrwt>
<pdfrwt beam="2">  1       21 0.39401327E-02 0.46467058E+03</pdfrwt>
<totfact> 0.12109193E+04</totfact>
</mgrwt>
</event>
<event>
 7    0  0.4737014E-002  0.4568161E+03  0.7546771E-02  0.1025709E+00
         21   -1    0    0  502  501  0.00000000000E+00  0.00000000000E+00  0.21405873002E+02  0.21405873002E+02  0.00000000000E+00 0. -1.
         21   -1    0    0  501  502 -0.00000000000E+00 -0.00000000000E+00 -0.24371924197E+04  0.24371924197E+04  0.00000000000E+00 0. -1.
      99926    2    1    2    0    0  0.00000000000E+00  0.00000000000E+00 -0.24157865467E+04  0.24585982927E+04  0.45681607422E+03 0.  0.
      99925    2    3    3    0    0 -0.81552393453E+02 -0.65345813637E+02 -0.17741189536E+04  0.17965517110E+04  0.26301923971E+03 0.  0.
         25    1    4    4    0    0 -0.67051835080E+02 -0.41315910234E+02 -0.74895349704E+03  0.76340146833E+03  0.12509000000E+03 0.  0.
         25    1    3    3    0    0  0.81552393453E+02  0.65345813637E+02 -0.64166759302E+03  0.66204658165E+03  0.12509000000E+03 0.  0.
         25    1    4    4    0    0 -0.14500558373E+02 -0.24029903404E+02 -0.10251654566E+04  0.10331502427E+04  0.12509000000E+03 0.  0.
<mgrwt>
<rscale>  2 0.45681607E+03</rscale>
<asrwt>0</asrwt>
<pdfrwt beam="1">  1       21 0.31479225E-02 0.45681607E+03</pdfrwt>
<pdfrwt beam="2">  1       21 0.35841065E+00 0.45681607E+03</pdfrwt>
<totfact> 0.74589422E+03</totfact>
</mgrwt>
</event>
<event>
 7    0  0.4737014E-002  0.4300474E+03  0.7546771E-02  0.1033845E+00
         21   -1    0    0  502  501  0.00000000000E+00  0.00000000000E+00  0.18157796766E+03  0.18157796766E+03  0.00000000000E+00 0. -1.
         21   -1    0    0  501  502 -0.00000000000E+00 -0.00000000000E+00 -0.25462998339E+03  0.25462998339E+03  0.00000000000E+00 0. -1.
      99926    2    1    2    0    0  0.00000000000E+00  0.14210854715E-13 -0.73052015721E+02  0.43620795105E+03  0.43004741548E+03 0.  0.
      99925    2    3    3    0    0 -0.23002756142E+02 -0.68262834917E+02 -0.97800811974E+02  0.28975334226E+03  0.26306474318E+03 0.  0.
         25    1    4    4    0    0  0.20542317151E+02 -0.31509266138E+02 -0.74378956179E+02  0.15031486243E+03  0.12509000000E+03 0.  0.
         25    1    3    3    0    0  0.23002756142E+02  0.68262834917E+02  0.24748796253E+02  0.14645460879E+03  0.12509000000E+03 0.  0.
         25    1    4    4    0    0 -0.43545073293E+02 -0.36753568778E+02 -0.23421855795E+02  0.13943847982E+03  0.12509000000E+03 0.  0.
<mgrwt>
<rscale>  2 0.43004742E+03</rscale>
<asrwt>0</asrwt>
<pdfrwt beam="1">  1       21 0.26702642E-01 0.43004742E+03</pdfrwt>
<pdfrwt beam="2">  1       21 0.37445586E-01 0.43004742E+03</pdfrwt>
<totfact> 0.85789420E+04</totfact>
</mgrwt>
</event>
<event>
 7    0  0.4737014E-002  0.4634008E+03  0.7546771E-02  0.1023799E+00
         21   -1    0    0  502  501  0.00000000000E+00  0.00000000000E+00  0.37689873454E+03  0.37689873454E+03  0.00000000000E+00 0.  1.
         21   -1    0    0  501  502 -0.00000000000E+00 -0.00000000000E+00 -0.14243897347E+03  0.14243897347E+03  0.00000000000E+00 0.  1.
      99926    2    1    2    0    0  0.00000000000E+00  0.00000000000E+00  0.23445976107E+03  0.51933770801E+03  0.46340077190E+03 0.  0.
      99925    2    3    3    0    0 -0.11891902134E+03 -0.89290522398E+01  0.16853683298E+03  0.33436527179E+03  0.26300952321E+03 0.  0.
         25    1    4    4    0    0 -0.93694303007E+02 -0.32176061481E+01  0.12244525725E+03  0.19856818609E+03  0.12509000000E+03 0.  0.
         25    1    4    4    0    0 -0.25224718336E+02 -0.57114460917E+01  0.46091575725E+02  0.13579708570E+03  0.12509000000E+03 0.  0.
         25    1    3    3    0    0  0.11891902134E+03  0.89290522398E+01  0.65922928096E+02  0.18497243622E+03  0.12509000000E+03 0.  0.
<mgrwt>
<rscale>  2 0.46340077E+03</rscale>
<asrwt>0</asrwt>
<pdfrwt beam="1">  1       21 0.55426284E-01 0.46340077E+03</pdfrwt>
<pdfrwt beam="2">  1       21 0.20946908E-01 0.46340077E+03</pdfrwt>
<totfact> 0.59842584E+04</totfact>
</mgrwt>
</event>
<event>
 7    0  0.4737014E-002  0.4484979E+03  0.7546771E-02  0.1028171E+00
         21   -1    0    0  502  501  0.00000000000E+00  0.00000000000E+00  0.81720412390E+02  0.81720412390E+02  0.00000000000E+00 0. -1.
         21   -1    0    0  501  502 -0.00000000000E+00 -0.00000000000E+00 -0.61536157238E+03  0.61536157238E+03  0.00000000000E+00 0. -1.
      99926    2    1    2    0    0 -0.35527136788E-14  0.00000000000E+00 -0.53364115999E+03  0.69708198477E+03  0.44849794409E+03 0.  0.
      99925    2    3    3    0    0  0.31019980309E+02  0.89660216294E+02 -0.41452902139E+03  0.50001244571E+03  0.26301509980E+03 0.  0.
         25    1    3    3    0    0 -0.31019980309E+02 -0.89660216294E+02 -0.11911213860E+03  0.19706953906E+03  0.12509000000E+03 0.  0.
         25    1    4    4    0    0 -0.22025839880E+02  0.31172606584E+02 -0.17466333762E+03  0.21820095928E+03  0.12509000000E+03 0.  0.
         25    1    4    4    0    0  0.53045820189E+02  0.58487609710E+02 -0.23986568377E+03  0.28181148642E+03  0.12509000000E+03 0.  0.
<mgrwt>
<rscale>  2 0.44849794E+03</rscale>
<asrwt>0</asrwt>
<pdfrwt beam="1">  1       21 0.12017707E-01 0.44849794E+03</pdfrwt>
<pdfrwt beam="2">  1       21 0.90494353E-01 0.44849794E+03</pdfrwt>
<totfact> 0.55866107E+04</totfact>
</mgrwt>
</event>
<event>
 7    0  0.4737014E-002  0.4509551E+03  0.7546771E-02  0.1027438E+00
         21   -1    0    0  502  501  0.00000000000E+00  0.00000000000E+00  0.17976650052E+03  0.17976650052E+03  0.00000000000E+00 0.  1.
         21   -1    0    0  501  502 -0.00000000000E+00 -0.00000000000E+00 -0.28281201149E+03  0.28281201149E+03  0.00000000000E+00 0.  1.
      99926    2    1    2    0    0  0.35527136788E-14  0.00000000000E+00 -0.10304551097E+03  0.46257851200E+03  0.45095510024E+03 0.  0.
      99925    2    3    3    0    0 -0.92647340133E+01  0.10650340588E+03 -0.89018116309E+02  0.29743285914E+03  0.26289402789E+03 0.  0.
         25    1    3    3    0    0  0.92647340133E+01 -0.10650340588E+03 -0.14027394661E+02  0.16514565287E+03  0.12509000000E+03 0.  0.
         25    1    4    4    0    0 -0.34924915358E+02  0.72893278380E+02 -0.26242203503E+02  0.15122612569E+03  0.12509000000E+03 0.  0.
         25    1    4    4    0    0  0.25660181345E+02  0.33610127499E+02 -0.62775912806E+02  0.14620673345E+03  0.12509000000E+03 0.  0.
<mgrwt>
<rscale>  2 0.45095510E+03</rscale>
<asrwt>0</asrwt>
<pdfrwt beam="1">  1       21 0.26436250E-01 0.45095510E+03</pdfrwt>
<pdfrwt beam="2">  1       21 0.41590001E-01 0.45095510E+03</pdfrwt>
<totfact> 0.70218027E+04</totfact>
</mgrwt>
</event>
<event>
 7    0  0.4737014E-002  0.4611433E+03  0.7546771E-02  0.1024450E+00
         21   -1    0    0  502  501  0.00000000000E+00  0.00000000000E+00  0.54042189750E+03  0.54042189750E+03  0.00000000000E+00 0. -1.
         21   -1    0    0  501  502 -0.00000000000E+00 -0.00000000000E+00 -0.98373689710E+02  0.98373689710E+02  0.00000000000E+00 0. -1.
      99926    2    1    2    0    0 -0.22204460493E-15  0.00000000000E+00  0.44204820779E+03  0.63879558721E+03  0.46114334456E+03 0.  0.
      99925    2    3    3    0    0  0.73119413603E+00 -0.52999805493E+02  0.12937336216E+03  0.29788125601E+03  0.26303281510E+03 0.  0.
         25    1    3    3    0    0 -0.73119413603E+00  0.52999805493E+02  0.31267484564E+03  0.34091433121E+03  0.12509000000E+03 0.  0.
         25    1    4    4    0    0 -0.12544167208E+02 -0.27628451208E+01  0.96469061442E+02  0.15848904492E+03  0.12509000000E+03 0.  0.
         25    1    4    4    0    0  0.13275361344E+02 -0.50236960373E+02  0.32904300714E+02  0.13939221109E+03  0.12509000000E+03 0.  0.
<mgrwt>
<rscale>  2 0.46114334E+03</rscale>
<asrwt>0</asrwt>
<pdfrwt beam="1">  1       21 0.79473807E-01 0.46114334E+03</pdfrwt>
<pdfrwt beam="2">  1       21 0.14466719E-01 0.46114334E+03</pdfrwt>
<totfact> 0.53700248E+04</totfact>
</mgrwt>
</event>
<event>
 7    0  0.4737014E-002  0.4525759E+03  0.7546771E-02  0.1026957E+00
         21   -1    0    0  502  501  0.00000000000E+00  0.00000000000E+00  0.24561076192E+03  0.24561076192E+03  0.00000000000E+00 0.  1.
         21   -1    0    0  501  502 -0.00000000000E+00 -0.00000000000E+00 -0.20848531010E+03  0.20848531010E+03  0.00000000000E+00 0.  1.
      99926    2    1    2    0    0  0.00000000000E+00  0.00000000000E+00  0.37125451824E+02  0.45409607202E+03  0.45257589800E+03 0.  0.
      99925    2    3    3    0    0  0.17502570218E+02 -0.10641949671E+03  0.49381686246E+02  0.28847852275E+03  0.26296360566E+03 0.  0.
         25    1    4    4    0    0  0.17618083703E+02 -0.94710880144E+02  0.17451927253E+02  0.15884780627E+03  0.12509000000E+03 0.  0.
         25    1    3    3    0    0 -0.17502570218E+02  0.10641949671E+03 -0.12256234422E+02  0.16561754927E+03  0.12509000000E+03 0.  0.
         25    1    4    4    0    0 -0.11551348502E+00 -0.11708616570E+02  0.31929758993E+02  0.12963071648E+03  0.12509000000E+03 0.  0.
<mgrwt>
<rscale>  2 0.45257590E+03</rscale>
<asrwt>0</asrwt>
<pdfrwt beam="1">  1       21 0.36119230E-01 0.45257590E+03</pdfrwt>
<pdfrwt beam="2">  1       21 0.30659604E-01 0.45257590E+03</pdfrwt>
<totfact> 0.69955352E+04</totfact>
</mgrwt>
</event>
<event>
 7    0  0.4737014E-002  0.4385311E+03  0.7546771E-02  0.1031198E+00
         21   -1    0    0  502  501  0.00000000000E+00  0.00000000000E+00  0.26068855078E+02  0.26068855078E+02  0.00000000000E+00 0.  1.
         21   -1    0    0  501  502 -0.00000000000E+00 -0.00000000000E+00 -0.18442463662E+04  0.18442463662E+04  0.00000000000E+00 0.  1.
      99926    2    1    2    0    0 -0.35527136788E-14  0.00000000000E+00 -0.18181775112E+04  0.18703152213E+04  0.43853114484E+03 0.  0.
      99925    2    3    3    0    0  0.17966725819E+02  0.32608882042E+02 -0.78071981764E+03  0.82468043022E+03  0.26303656760E+03 0.  0.
         25    1    4    4    0    0 -0.70026792631E+01  0.51117143371E+02 -0.44278428507E+03  0.46299830569E+03  0.12509000000E+03 0.  0.
         25    1    4    4    0    0  0.24969405082E+02 -0.18508261329E+02 -0.33793553257E+03  0.36168212452E+03  0.12509000000E+03 0.  0.
         25    1    3    3    0    0 -0.17966725819E+02 -0.32608882042E+02 -0.10374576935E+04  0.10456347911E+04  0.12509000000E+03 0.  0.
<mgrwt>
<rscale>  2 0.43853114E+03</rscale>
<asrwt>0</asrwt>
<pdfrwt beam="1">  1       21 0.38336549E-02 0.43853114E+03</pdfrwt>
<pdfrwt beam="2">  1       21 0.27121272E+00 0.43853114E+03</pdfrwt>
<totfact> 0.18157043E+04</totfact>
</mgrwt>
</event>
<event>
 7    0  0.4737014E-002  0.4543911E+03  0.7546771E-02  0.1026421E+00
         21   -1    0    0  502  501  0.00000000000E+00  0.00000000000E+00  0.12013791060E+03  0.12013791060E+03  0.00000000000E+00 0.  1.
         21   -1    0    0  501  502 -0.00000000000E+00 -0.00000000000E+00 -0.42965462036E+03  0.42965462036E+03  0.00000000000E+00 0.  1.
      99926    2    1    2    0    0  0.00000000000E+00  0.00000000000E+00 -0.30951670976E+03  0.54979253097E+03  0.45439105788E+03 0.  0.
      99925    2    3    3    0    0  0.11005403904E+02 -0.10483904869E+03 -0.14705279738E+03  0.31924020291E+03  0.26301603923E+03 0.  0.
         25    1    3    3    0    0 -0.11005403904E+02  0.10483904869E+03 -0.16246391238E+03  0.23055232806E+03  0.12509000000E+03 0.  0.
         25    1    4    4    0    0  0.97221382984E+01 -0.16330441753E+02 -0.91888719105E+02  0.15637214618E+03  0.12509000000E+03 0.  0.
         25    1    4    4    0    0  0.12832656060E+01 -0.88508606937E+02 -0.55164078273E+02  0.16286805673E+03  0.12509000000E+03 0.  0.
<mgrwt>
<rscale>  2 0.45439106E+03</rscale>
<asrwt>0</asrwt>
<pdfrwt beam="1">  1       21 0.17667340E-01 0.45439106E+03</pdfrwt>
<pdfrwt beam="2">  1       21 0.63184503E-01 0.45439106E+03</pdfrwt>
<totfact> 0.62179257E+04</totfact>
</mgrwt>
</event>
<event>
 7    0  0.4737014E-002  0.4443059E+03  0.7546771E-02  0.1029434E+00
         21   -1    0    0  502  501  0.00000000000E+00  0.00000000000E+00  0.21581914029E+03  0.21581914029E+03  0.00000000000E+00 0.  1.
         21   -1    0    0  501  502 -0.00000000000E+00 -0.00000000000E+00 -0.22867262773E+03  0.22867262773E+03  0.00000000000E+00 0.  1.
      99926    2    1    2    0    0 -0.71054273576E-14  0.00000000000E+00 -0.12853487441E+02  0.44449176801E+03  0.44430588528E+03 0.  0.
      99925    2    3    3    0    0  0.61492234326E+02  0.46241702606E+02  0.59839011182E+02  0.28062811311E+03  0.26315744463E+03 0.  0.
         25    1    4    4    0    0  0.66247057359E+01  0.35819582716E+02  0.60470836890E+02  0.14363550900E+03  0.12509000000E+03 0.  0.
         25    1    3    3    0    0 -0.61492234326E+02 -0.46241702606E+02 -0.72692498623E+02  0.16386365490E+03  0.12509000000E+03 0.  0.
         25    1    4    4    0    0  0.54867528590E+02  0.10422119891E+02 -0.63182570757E+00  0.13699260411E+03  0.12509000000E+03 0.  0.
<mgrwt>
<rscale>  2 0.44430589E+03</rscale>
<asrwt>0</asrwt>
<pdfrwt beam="1">  1       21 0.31738109E-01 0.44430589E+03</pdfrwt>
<pdfrwt beam="2">  1       21 0.33628328E-01 0.44430589E+03</pdfrwt>
<totfact> 0.75567659E+04</totfact>
</mgrwt>
</event>
<event>
 7    0  0.4737014E-002  0.4415829E+03  0.7546771E-02  0.1030262E+00
         21   -1    0    0  502  501  0.00000000000E+00  0.00000000000E+00  0.14538384654E+03  0.14538384654E+03  0.00000000000E+00 0. -1.
         21   -1    0    0  501  502 -0.00000000000E+00 -0.00000000000E+00 -0.33531144743E+03  0.33531144743E+03  0.00000000000E+00 0. -1.
      99926    2    1    2    0    0  0.71054273576E-14  0.00000000000E+00 -0.18992760089E+03  0.48069529397E+03  0.44158291641E+03 0.  0.
      99925    2    3    3    0    0  0.50293125170E+02  0.25727792719E+02 -0.31201114093E+02  0.27085506077E+03  0.26305443670E+03 0.  0.
         25    1    4    4    0    0  0.48663397831E+02 -0.14585579217E+02 -0.34599820971E+02  0.13937546815E+03  0.12509000000E+03 0.  0.
         25    1    4    4    0    0  0.16297273389E+01  0.40313371936E+02  0.33987068785E+01  0.13147959262E+03  0.12509000000E+03 0.  0.
         25    1    3    3    0    0 -0.50293125170E+02 -0.25727792719E+02 -0.15872648680E+03  0.20984023320E+03  0.12509000000E+03 0.  0.
<mgrwt>
<rscale>  2 0.44158292E+03</rscale>
<asrwt>0</asrwt>
<pdfrwt beam="1">  1       21 0.21379978E-01 0.44158292E+03</pdfrwt>
<pdfrwt beam="2">  1       21 0.49310506E-01 0.44158292E+03</pdfrwt>
<totfact> 0.74248261E+04</totfact>
</mgrwt>
</event>
<event>
 7    0  0.4737014E-002  0.4604957E+03  0.7546771E-02  0.1024638E+00
         21   -1    0    0  502  501  0.00000000000E+00  0.00000000000E+00  0.18468216371E+04  0.18468216371E+04  0.00000000000E+00 0.  1.
         21   -1    0    0  501  502 -0.00000000000E+00 -0.00000000000E+00 -0.28705570539E+02  0.28705570539E+02  0.00000000000E+00 0.  1.
      99926    2    1    2    0    0  0.00000000000E+00  0.00000000000E+00  0.18181160666E+04  0.18755272077E+04  0.46049568414E+03 0.  0.
      99925    2    3    3    0    0 -0.10523992833E+03  0.48520001898E+02  0.12352385129E+04  0.12682188973E+04  0.26293602780E+03 0.  0.
         25    1    3    3    0    0  0.10523992833E+03 -0.48520001898E+02  0.58287755371E+03  0.60730831035E+03  0.12509000000E+03 0.  0.
         25    1    4    4    0    0 -0.90813755938E+02  0.38732680331E+02  0.75636924153E+03  0.77297431809E+03  0.12509000000E+03 0.  0.
         25    1    4    4    0    0 -0.14426172391E+02  0.97873215665E+01  0.47886927135E+03  0.49524457923E+03  0.12509000000E+03 0.  0.
<mgrwt>
<rscale>  2 0.46049568E+03</rscale>
<asrwt>0</asrwt>
<pdfrwt beam="1">  1       21 0.27159134E+00 0.46049568E+03</pdfrwt>
<pdfrwt beam="2">  1       21 0.42214087E-02 0.46049568E+03</pdfrwt>
<totfact> 0.15192082E+04</totfact>
</mgrwt>
</event>
<event>
 7    0  0.4737014E-002  0.4595066E+03  0.7546771E-02  0.1024924E+00
         21   -1    0    0  502  501  0.00000000000E+00  0.00000000000E+00  0.16615113972E+03  0.16615113972E+03  0.00000000000E+00 0. -1.
         21   -1    0    0  501  502 -0.00000000000E+00 -0.00000000000E+00 -0.31770217074E+03  0.31770217074E+03  0.00000000000E+00 0. -1.
      99926    2    1    2    0    0  0.71054273576E-14  0.00000000000E+00 -0.15155103101E+03  0.48385331046E+03  0.45950659521E+03 0.  0.
      99925    2    3    3    0    0  0.41842086753E+02 -0.62389662230E+02 -0.19004082765E+03  0.33294869581E+03  0.26286134690E+03 0.  0.
         25    1    4    4    0    0  0.51665274395E+02 -0.59545540642E+02 -0.10468877908E+03  0.18116903862E+03  0.12509000000E+03 0.  0.
         25    1    4    4    0    0 -0.98231876423E+01 -0.28441215880E+01 -0.85352048565E+02  0.15177965719E+03  0.12509000000E+03 0.  0.
         25    1    3    3    0    0 -0.41842086753E+02  0.62389662230E+02  0.38489796637E+02  0.15090461465E+03  0.12509000000E+03 0.  0.
<mgrwt>
<rscale>  2 0.45950660E+03</rscale>
<asrwt>0</asrwt>
<pdfrwt beam="1">  1       21 0.24433991E-01 0.45950660E+03</pdfrwt>
<pdfrwt beam="2">  1       21 0.46720907E-01 0.45950660E+03</pdfrwt>
<totfact> 0.64096910E+04</totfact>
</mgrwt>
</event>
<event>
 7    0  0.4737014E-002  0.4345829E+03  0.7546771E-02  0.1032422E+00
         21   -1    0    0  502  501  0.00000000000E+00  0.00000000000E+00  0.51064761279E+03  0.51064761279E+03  0.00000000000E+00 0. -1.
         21   -1    0    0  501  502 -0.00000000000E+00 -0.00000000000E+00 -0.92462141897E+02  0.92462141897E+02  0.00000000000E+00 0. -1.
      99926    2    1    2    0    0  0.00000000000E+00  0.00000000000E+00  0.41818547090E+03  0.60310975469E+03  0.43458288983E+03 0.  0.
      99925    2    3    3    0    0  0.37675652442E+02 -0.36025512873E+02  0.16188517617E+03  0.31318796947E+03  0.26298783545E+03 0.  0.
         25    1    3    3    0    0 -0.37675652442E+02  0.36025512873E+02  0.25630029473E+03  0.28992178522E+03  0.12509000000E+03 0.  0.
         25    1    4    4    0    0  0.22570764604E+02  0.13998726267E+02  0.10771931645E+03  0.16720156395E+03  0.12509000000E+03 0.  0.
         25    1    4    4    0    0  0.15104887839E+02 -0.50024239140E+02  0.54165859720E+02  0.14598640552E+03  0.12509000000E+03 0.  0.
<mgrwt>
<rscale>  2 0.43458289E+03</rscale>
<asrwt>0</asrwt>
<pdfrwt beam="1">  1       21 0.75095236E-01 0.43458289E+03</pdfrwt>
<pdfrwt beam="2">  1       21 0.13597374E-01 0.43458289E+03</pdfrwt>
<totfact> 0.68953782E+04</totfact>
</mgrwt>
</event>
<event>
 7    0  0.4737014E-002  0.4564195E+03  0.7546771E-02  0.1025825E+00
         21   -1    0    0  502  501  0.00000000000E+00  0.00000000000E+00  0.12697473944E+04  0.12697473944E+04  0.00000000000E+00 0.  1.
         21   -1    0    0  501  502 -0.00000000000E+00 -0.00000000000E+00 -0.41015789201E+02  0.41015789201E+02  0.00000000000E+00 0.  1.
      99926    2    1    2    0    0  0.00000000000E+00  0.00000000000E+00  0.12287316052E+04  0.13107631836E+04  0.45641950645E+03 0.  0.
      99925    2    3    3    0    0  0.65097325487E+02 -0.83840656107E+02  0.64930190870E+03  0.70855624351E+03  0.26304384460E+03 0.  0.
         25    1    4    4    0    0  0.63039844032E+02 -0.73111308087E+02  0.35352325205E+03  0.38722794727E+03  0.12509000000E+03 0.  0.
         25    1    4    4    0    0  0.20574814549E+01 -0.10729348020E+02  0.29577865665E+03  0.32132829624E+03  0.12509000000E+03 0.  0.
         25    1    3    3    0    0 -0.65097325487E+02  0.83840656107E+02  0.57942969645E+03  0.60220694004E+03  0.12509000000E+03 0.  0.
<mgrwt>
<rscale>  2 0.45641951E+03</rscale>
<asrwt>0</asrwt>
<pdfrwt beam="1">  1       21 0.18672753E+00 0.45641951E+03</pdfrwt>
<pdfrwt beam="2">  1       21 0.60317346E-02 0.45641951E+03</pdfrwt>
<totfact> 0.28487926E+04</totfact>
</mgrwt>
</event>
<event>
 7    0  0.4737014E-002  0.4548638E+03  0.7546771E-02  0.1026281E+00
         21   -1    0    0  502  501  0.00000000000E+00  0.00000000000E+00  0.28722027124E+03  0.28722027124E+03  0.00000000000E+00 0.  1.
         21   -1    0    0  501  502 -0.00000000000E+00 -0.00000000000E+00 -0.18008916826E+03  0.18008916826E+03  0.00000000000E+00 0.  1.
      99926    2    1    2    0    0  0.35527136788E-14  0.00000000000E+00  0.10713110299E+03  0.46730943950E+03  0.45486375875E+03 0.  0.
      99925    2    3    3    0    0 -0.18143508186E+02  0.10403429489E+03  0.10895380493E+03  0.30359275817E+03  0.26295495774E+03 0.  0.
         25    1    3    3    0    0  0.18143508186E+02 -0.10403429489E+03 -0.18227019485E+01  0.16371668133E+03  0.12509000000E+03 0.  0.
         25    1    4    4    0    0 -0.25353301061E+02  0.90425728315E+02  0.48185946457E+02  0.16367344241E+03  0.12509000000E+03 0.  0.
         25    1    4    4    0    0  0.72097928749E+01  0.13608566580E+02  0.60767858478E+02  0.13991931576E+03  0.12509000000E+03 0.  0.
<mgrwt>
<rscale>  2 0.45486376E+03</rscale>
<asrwt>0</asrwt>
<pdfrwt beam="1">  1       21 0.42238275E-01 0.45486376E+03</pdfrwt>
<pdfrwt beam="2">  1       21 0.26483701E-01 0.45486376E+03</pdfrwt>
<totfact> 0.67709684E+04</totfact>
</mgrwt>
</event>
<event>
 7    0  0.4737014E-002  0.4532353E+03  0.7546771E-02  0.1026762E+00
         21   -1    0    0  502  501  0.00000000000E+00  0.00000000000E+00  0.73949541784E+02  0.73949541784E+02  0.00000000000E+00 0.  1.
         21   -1    0    0  501  502 -0.00000000000E+00 -0.00000000000E+00 -0.69446752010E+03  0.69446752010E+03  0.00000000000E+00 0.  1.
      99926    2    1    2    0    0  0.00000000000E+00  0.00000000000E+00 -0.62051797831E+03  0.76841706188E+03  0.45323528060E+03 0.  0.
      99925    2    3    3    0    0  0.83853864636E+02 -0.65691306588E+02 -0.33461670646E+03  0.43866887959E+03  0.26289775066E+03 0.  0.
         25    1    4    4    0    0  0.83246956842E+02 -0.32335569137E+02 -0.19451919408E+03  0.24791302874E+03  0.12509000000E+03 0.  0.
         25    1    4    4    0    0  0.60690779392E+00 -0.33355737450E+02 -0.14009751238E+03  0.19075585085E+03  0.12509000000E+03 0.  0.
         25    1    3    3    0    0 -0.83853864636E+02  0.65691306588E+02 -0.28590127186E+03  0.32974818229E+03  0.12509000000E+03 0.  0.
<mgrwt>
<rscale>  2 0.45323528E+03</rscale>
<asrwt>0</asrwt>
<pdfrwt beam="1">  1       21 0.10874932E-01 0.45323528E+03</pdfrwt>
<pdfrwt beam="2">  1       21 0.10212758E+00 0.45323528E+03</pdfrwt>
<totfact> 0.50019647E+04</totfact>
</mgrwt>
</event>
<event>
 7    0  0.4737014E-002  0.4571633E+03  0.7546771E-02  0.1025607E+00
         21   -1    0    0  502  501  0.00000000000E+00  0.00000000000E+00  0.16395927533E+03  0.16395927533E+03  0.00000000000E+00 0. -1.
         21   -1    0    0  501  502 -0.00000000000E+00 -0.00000000000E+00 -0.31867409942E+03  0.31867409942E+03  0.00000000000E+00 0. -1.
      99926    2    1    2    0    0  0.00000000000E+00  0.14210854715E-13 -0.15471482409E+03  0.48263337475E+03  0.45716331615E+03 0.  0.
      99925    2    3    3    0    0  0.74701205971E+02  0.64953249910E+02 -0.33991185267E+02  0.28258113178E+03  0.26248333379E+03 0.  0.
         25    1    4    4    0    0  0.40085692040E+02  0.72042405147E+02 -0.80337734802E+01  0.15003006519E+03  0.12509000000E+03 0.  0.
         25    1    4    4    0    0  0.34615513931E+02 -0.70891552373E+01 -0.25957411787E+02  0.13255106659E+03  0.12509000000E+03 0.  0.
         25    1    3    3    0    0 -0.74701205971E+02 -0.64953249910E+02 -0.12072363882E+03  0.20005224297E+03  0.12509000000E+03 0.  0.
<mgrwt>
<rscale>  2 0.45716332E+03</rscale>
<asrwt>0</asrwt>
<pdfrwt beam="1">  1       21 0.24111658E-01 0.45716332E+03</pdfrwt>
<pdfrwt beam="2">  1       21 0.46863838E-01 0.45716332E+03</pdfrwt>
<totfact> 0.65378991E+04</totfact>
</mgrwt>
</event>
<event>
 7    0  0.4737014E-002  0.4408895E+03  0.7546771E-02  0.1030474E+00
         21   -1    0    0  502  501  0.00000000000E+00  0.00000000000E+00  0.18629419176E+03  0.18629419176E+03  0.00000000000E+00 0.  1.
         21   -1    0    0  501  502 -0.00000000000E+00 -0.00000000000E+00 -0.26085565103E+03  0.26085565103E+03  0.00000000000E+00 0.  1.
      99926    2    1    2    0    0  0.35527136788E-14  0.00000000000E+00 -0.74561459265E+02  0.44714984279E+03  0.44088952210E+03 0.  0.
      99925    2    3    3    0    0 -0.31085619117E+02  0.75573313726E+02 -0.10487288863E+03  0.29469023400E+03  0.26299499954E+03 0.  0.
         25    1    4    4    0    0 -0.41212925249E+01  0.21388385883E+02 -0.11974815942E+02  0.12753569077E+03  0.12509000000E+03 0.  0.
         25    1    4    4    0    0 -0.26964326592E+02  0.54184927843E+02 -0.92898072687E+02  0.16715454323E+03  0.12509000000E+03 0.  0.
         25    1    3    3    0    0  0.31085619117E+02 -0.75573313726E+02  0.30311429364E+02  0.15245960879E+03  0.12509000000E+03 0.  0.
<mgrwt>
<rscale>  2 0.44088952E+03</rscale>
<asrwt>0</asrwt>
<pdfrwt beam="1">  1       21 0.27396205E-01 0.44088952E+03</pdfrwt>
<pdfrwt beam="2">  1       21 0.38361125E-01 0.44088952E+03</pdfrwt>
<totfact> 0.77485971E+04</totfact>
</mgrwt>
</event>
<event>
 7    0  0.4737014E-002  0.4531497E+03  0.7546771E-02  0.1026787E+00
         21   -1    0    0  502  501  0.00000000000E+00  0.00000000000E+00  0.23101561891E+03  0.23101561891E+03  0.00000000000E+00 0.  1.
         21   -1    0    0  501  502 -0.00000000000E+00 -0.00000000000E+00 -0.22221941126E+03  0.22221941126E+03  0.00000000000E+00 0.  1.
      99926    2    1    2    0    0  0.00000000000E+00  0.00000000000E+00  0.87962076530E+01  0.45323503017E+03  0.45314966545E+03 0.  0.
      99925    2    3    3    0    0 -0.64274502577E+01  0.10064536652E+03 -0.41711889223E+02  0.28480291367E+03  0.26306276060E+03 0.  0.
         25    1    4    4    0    0  0.45232806833E+01  0.92280695631E+02 -0.15754415279E+02  0.15630705856E+03  0.12509000000E+03 0.  0.
         25    1    3    3    0    0  0.64274502577E+01 -0.10064536652E+03  0.50508096876E+02  0.16843211650E+03  0.12509000000E+03 0.  0.
         25    1    4    4    0    0 -0.10950730941E+02  0.83646708851E+01 -0.25957473944E+02  0.12849585511E+03  0.12509000000E+03 0.  0.
<mgrwt>
<rscale>  2 0.45314967E+03</rscale>
<asrwt>0</asrwt>
<pdfrwt beam="1">  1       21 0.33972885E-01 0.45314967E+03</pdfrwt>
<pdfrwt beam="2">  1       21 0.32679325E-01 0.45314967E+03</pdfrwt>
<totfact> 0.69698630E+04</totfact>
</mgrwt>
</event>
<event>
 7    0  0.4737014E-002  0.4522964E+03  0.7546771E-02  0.1027039E+00
         21   -1    0    0  502  501  0.00000000000E+00  0.00000000000E+00  0.13095995398E+04  0.13095995398E+04  0.00000000000E+00 0. -1.
         21   -1    0    0  501  502 -0.00000000000E+00 -0.00000000000E+00 -0.39052399891E+02  0.39052399891E+02  0.00000000000E+00 0. -1.
      99926    2    1    2    0    0  0.00000000000E+00  0.00000000000E+00  0.12705471399E+04  0.13486519397E+04  0.45229638479E+03 0.  0.
      99925    2    3    3    0    0  0.43900106352E+02 -0.15540722912E+02  0.11006252251E+04  0.11325739476E+04  0.26301925288E+03 0.  0.
         25    1    3    3    0    0 -0.43900106352E+02  0.15540722912E+02  0.16992191480E+03  0.21607799202E+03  0.12509000000E+03 0.  0.
         25    1    4    4    0    0  0.26044987480E+02 -0.89995300905E+01  0.38221747065E+03  0.40310921087E+03  0.12509000000E+03 0.  0.
         25    1    4    4    0    0  0.17855118872E+02 -0.65411928211E+01  0.71840775442E+03  0.72946473677E+03  0.12509000000E+03 0.  0.
<mgrwt>
<rscale>  2 0.45229638E+03</rscale>
<asrwt>0</asrwt>
<pdfrwt beam="1">  1       21 0.19258814E+00 0.45229638E+03</pdfrwt>
<pdfrwt beam="2">  1       21 0.57430009E-02 0.45229638E+03</pdfrwt>
<totfact> 0.28323620E+04</totfact>
</mgrwt>
</event>
<event>
 7    0  0.4737014E-002  0.4469887E+03  0.7546771E-02  0.1028624E+00
         21   -1    0    0  502  501  0.00000000000E+00  0.00000000000E+00  0.93763959048E+02  0.93763959048E+02  0.00000000000E+00 0.  1.
         21   -1    0    0  501  502 -0.00000000000E+00 -0.00000000000E+00 -0.53271780050E+03  0.53271780050E+03  0.00000000000E+00 0.  1.
      99926    2    1    2    0    0  0.00000000000E+00  0.00000000000E+00 -0.43895384145E+03  0.62648175955E+03  0.44698872482E+03 0.  0.
      99925    2    3    3    0    0 -0.67577226710E+02 -0.51447769424E+02 -0.36604017863E+03  0.45862031408E+03  0.26293273962E+03 0.  0.
         25    1    4    4    0    0 -0.13624954514E+02 -0.75651525893E+01 -0.22366733517E+03  0.25674394996E+03  0.12509000000E+03 0.  0.
         25    1    3    3    0    0  0.67577226710E+02  0.51447769424E+02 -0.72913662823E+02  0.16786144547E+03  0.12509000000E+03 0.  0.
         25    1    4    4    0    0 -0.53952272196E+02 -0.43882616835E+02 -0.14237284346E+03  0.20187636412E+03  0.12509000000E+03 0.  0.
<mgrwt>
<rscale>  2 0.44698872E+03</rscale>
<asrwt>0</asrwt>
<pdfrwt beam="1">  1       21 0.13788818E-01 0.44698872E+03</pdfrwt>
<pdfrwt beam="2">  1       21 0.78340853E-01 0.44698872E+03</pdfrwt>
<totfact> 0.60834281E+04</totfact>
</mgrwt>
</event>
<event>
 7    0  0.4737014E-002  0.4575417E+03  0.7546771E-02  0.1025497E+00
         21   -1    0    0  502  501  0.00000000000E+00  0.00000000000E+00  0.58274764305E+02  0.58274764305E+02  0.00000000000E+00 0. -1.
         21   -1    0    0  501  502 -0.00000000000E+00 -0.00000000000E+00 -0.89809200584E+03  0.89809200584E+03  0.00000000000E+00 0. -1.
      99926    2    1    2    0    0  0.00000000000E+00  0.44408920985E-15 -0.83981724153E+03  0.95636677014E+03  0.45754169193E+03 0.  0.
      99925    2    3    3    0    0 -0.78981464989E+02 -0.33882966141E+01 -0.70360203416E+03  0.75524083153E+03  0.26283709548E+03 0.  0.
         25    1    4    4    0    0 -0.73449123816E+02 -0.60798087944E+01 -0.44137362480E+03  0.46463956206E+03  0.12509000000E+03 0.  0.
         25    1    3    3    0    0  0.78981464989E+02  0.33882966141E+01 -0.13621520737E+03  0.20112593862E+03  0.12509000000E+03 0.  0.
         25    1    4    4    0    0 -0.55323411730E+01  0.26915121804E+01 -0.26222840937E+03  0.29060126947E+03  0.12509000000E+03 0.  0.
<mgrwt>
<rscale>  2 0.45754169E+03</rscale>
<asrwt>0</asrwt>
<pdfrwt beam="1">  1       21 0.85698187E-02 0.45754169E+03</pdfrwt>
<pdfrwt beam="2">  1       21 0.13207235E+00 0.45754169E+03</pdfrwt>
<totfact> 0.40081551E+04</totfact>
</mgrwt>
</event>
<event>
 7    0  0.4737014E-002  0.4671727E+03  0.7546771E-02  0.1022721E+00
         21   -1    0    0  502  501  0.00000000000E+00  0.00000000000E+00  0.29524468276E+03  0.29524468276E+03  0.00000000000E+00 0. -1.
         21   -1    0    0  501  502 -0.00000000000E+00 -0.00000000000E+00 -0.18480462802E+03  0.18480462802E+03  0.00000000000E+00 0. -1.
      99926    2    1    2    0    0  0.17763568394E-14  0.14210854715E-13  0.11044005474E+03  0.48004931078E+03  0.46717270371E+03 0.  0.
      99925    2    3    3    0    0  0.99685120292E+01  0.76138777750E+02  0.16907641068E+03  0.32199167874E+03  0.26305004052E+03 0.  0.
         25    1    4    4    0    0 -0.13872736603E+02  0.72200712166E+02  0.10692020182E+03  0.18023549405E+03  0.12509000000E+03 0.  0.
         25    1    3    3    0    0 -0.99685120292E+01 -0.76138777750E+02 -0.58636355946E+02  0.15805763205E+03  0.12509000000E+03 0.  0.
         25    1    4    4    0    0  0.23841248632E+02  0.39380655834E+01  0.62156208860E+02  0.14175618469E+03  0.12509000000E+03 0.  0.
<mgrwt>
<rscale>  2 0.46717270E+03</rscale>
<asrwt>0</asrwt>
<pdfrwt beam="1">  1       21 0.43418336E-01 0.46717270E+03</pdfrwt>
<pdfrwt beam="2">  1       21 0.27177151E-01 0.46717270E+03</pdfrwt>
<totfact> 0.60625883E+04</totfact>
</mgrwt>
</event>
<event>
 7    0  0.4737014E-002  0.4568806E+03  0.7546771E-02  0.1025690E+00
         21   -1    0    0  502  501  0.00000000000E+00  0.00000000000E+00  0.15340387131E+03  0.15340387131E+03  0.00000000000E+00 0. -1.
         21   -1    0    0  501  502 -0.00000000000E+00 -0.00000000000E+00 -0.34018026626E+03  0.34018026626E+03  0.00000000000E+00 0. -1.
      99926    2    1    2    0    0 -0.14210854715E-13 -0.17763568394E-14 -0.18677639495E+03  0.49358413758E+03  0.45688059617E+03 0.  0.
      99925    2    3    3    0    0 -0.11413932890E+03 -0.92313385349E+01 -0.10616683980E+03  0.30581190189E+03  0.26293823885E+03 0.  0.
         25    1    3    3    0    0  0.11413932890E+03  0.92313385349E+01 -0.80609555142E+02  0.18777223568E+03  0.12509000000E+03 0.  0.
         25    1    4    4    0    0 -0.92681505202E+02 -0.99648190658E+01 -0.33486876514E+02  0.15955575209E+03  0.12509000000E+03 0.  0.
         25    1    4    4    0    0 -0.21457823702E+02  0.73348053094E+00 -0.72679963290E+02  0.14625614980E+03  0.12509000000E+03 0.  0.
<mgrwt>
<rscale>  2 0.45688060E+03</rscale>
<asrwt>0</asrwt>
<pdfrwt beam="1">  1       21 0.22559393E-01 0.45688060E+03</pdfrwt>
<pdfrwt beam="2">  1       21 0.50026510E-01 0.45688060E+03</pdfrwt>
<totfact> 0.64751665E+04</totfact>
</mgrwt>
</event>
<event>
 7    0  0.4737014E-002  0.4541810E+03  0.7546771E-02  0.1026483E+00
         21   -1    0    0  502  501  0.00000000000E+00  0.00000000000E+00  0.94761294791E+03  0.94761294791E+03  0.00000000000E+00 0.  1.
         21   -1    0    0  501  502 -0.00000000000E+00 -0.00000000000E+00 -0.54421053483E+02  0.54421053483E+02  0.00000000000E+00 0.  1.
      99926    2    1    2    0    0 -0.71054273576E-14  0.13322676296E-14  0.89319189443E+03  0.10020340014E+04  0.45418099881E+03 0.  0.
      99925    2    3    3    0    0  0.48690905691E+02 -0.34934206770E+01  0.33906712947E+03  0.43187194414E+03  0.26299020812E+03 0.  0.
         25    1    3    3    0    0 -0.48690905691E+02  0.34934206770E+01  0.55412476496E+03  0.57016205725E+03  0.12509000000E+03 0.  0.
         25    1    4    4    0    0  0.41643703039E+02 -0.17111963912E+02  0.11976093279E+03  0.17893352519E+03  0.12509000000E+03 0.  0.
         25    1    4    4    0    0  0.70472026511E+01  0.13618543235E+02  0.21930619667E+03  0.25293841896E+03  0.12509000000E+03 0.  0.
<mgrwt>
<rscale>  2 0.45418100E+03</rscale>
<asrwt>0</asrwt>
<pdfrwt beam="1">  1       21 0.13935484E+00 0.45418100E+03</pdfrwt>
<pdfrwt beam="2">  1       21 0.80030967E-02 0.45418100E+03</pdfrwt>
<totfact> 0.39338790E+04</totfact>
</mgrwt>
</event>
<event>
 7    0  0.4737014E-002  0.4530531E+03  0.7546771E-02  0.1026815E+00
         21   -1    0    0  502  501  0.00000000000E+00  0.00000000000E+00  0.35480815817E+03  0.35480815817E+03  0.00000000000E+00 0. -1.
         21   -1    0    0  501  502 -0.00000000000E+00 -0.00000000000E+00 -0.14462543744E+03  0.14462543744E+03  0.00000000000E+00 0. -1.
      99926    2    1    2    0    0  0.35527136788E-14  0.00000000000E+00  0.21018272073E+03  0.49943359561E+03  0.45305313191E+03 0.  0.
      99925    2    3    3    0    0  0.85838159121E+01 -0.10374144658E+03  0.89063333541E+02  0.29657062785E+03  0.26303210886E+03 0.  0.
         25    1    4    4    0    0 -0.22075313105E+02 -0.23061350257E+02  0.57626618391E+02  0.14137708644E+03  0.12509000000E+03 0.  0.
         25    1    4    4    0    0  0.30659129017E+02 -0.80680096327E+02  0.31436715149E+02  0.15519354141E+03  0.12509000000E+03 0.  0.
         25    1    3    3    0    0 -0.85838159121E+01  0.10374144658E+03  0.12111938719E+03  0.20286296776E+03  0.12509000000E+03 0.  0.
<mgrwt>
<rscale>  2 0.45305313E+03</rscale>
<asrwt>0</asrwt>
<pdfrwt beam="1">  1       21 0.52177670E-01 0.45305313E+03</pdfrwt>
<pdfrwt beam="2">  1       21 0.21268447E-01 0.45305313E+03</pdfrwt>
<totfact> 0.66329631E+04</totfact>
</mgrwt>
</event>
<event>
 7    0  0.4737014E-002  0.4669505E+03  0.7546771E-02  0.1022784E+00
         21   -1    0    0  502  501  0.00000000000E+00  0.00000000000E+00  0.55745499629E+02  0.55745499629E+02  0.00000000000E+00 0. -1.
         21   -1    0    0  501  502 -0.00000000000E+00 -0.00000000000E+00 -0.97784912010E+03  0.97784912010E+03  0.00000000000E+00 0. -1.
      99926    2    1    2    0    0 -0.35527136788E-14  0.00000000000E+00 -0.92210362047E+03  0.10335946197E+04  0.46695048030E+03 0.  0.
      99925    2    3    3    0    0  0.21547641110E+02 -0.11572875226E+03 -0.48743406282E+03  0.56621621053E+03  0.26296651220E+03 0.  0.
         25    1    3    3    0    0 -0.21547641110E+02  0.11572875226E+03 -0.43466955765E+03  0.46737840920E+03  0.12509000000E+03 0.  0.
         25    1    4    4    0    0 -0.12884416100E+02 -0.90331152625E+02 -0.28714265140E+03  0.32622712282E+03  0.12509000000E+03 0.  0.
         25    1    4    4    0    0  0.34432057210E+02 -0.25397599630E+02 -0.20029141143E+03  0.23998908771E+03  0.12509000000E+03 0.  0.
<mgrwt>
<rscale>  2 0.46695048E+03</rscale>
<asrwt>0</asrwt>
<pdfrwt beam="1">  1       21 0.81978676E-02 0.46695048E+03</pdfrwt>
<pdfrwt beam="2">  1       21 0.14380134E+00 0.46695048E+03</pdfrwt>
<totfact> 0.34547748E+04</totfact>
</mgrwt>
</event>
<event>
 7    0  0.4737014E-002  0.4525480E+03  0.7546771E-02  0.1026965E+00
         21   -1    0    0  502  501  0.00000000000E+00  0.00000000000E+00  0.13507332572E+03  0.13507332572E+03  0.00000000000E+00 0.  1.
         21   -1    0    0  501  502 -0.00000000000E+00 -0.00000000000E+00 -0.37905277260E+03  0.37905277260E+03  0.00000000000E+00 0.  1.
      99926    2    1    2    0    0  0.14210854715E-13  0.00000000000E+00 -0.24397944688E+03  0.51412609832E+03  0.45254798030E+03 0.  0.
      99925    2    3    3    0    0  0.10301460343E+03  0.34815515541E+02 -0.12847208593E+03  0.31210236908E+03  0.26282823912E+03 0.  0.
         25    1    3    3    0    0 -0.10301460343E+03 -0.34815515541E+02 -0.11550736095E+03  0.20202372924E+03  0.12509000000E+03 0.  0.
         25    1    4    4    0    0  0.36624282966E+02  0.53775702466E+02 -0.54064683322E+02  0.15100881551E+03  0.12509000000E+03 0.  0.
         25    1    4    4    0    0  0.66390320463E+02 -0.18960186925E+02 -0.74407402606E+02  0.16109355357E+03  0.12509000000E+03 0.  0.
<mgrwt>
<rscale>  2 0.45254798E+03</rscale>
<asrwt>0</asrwt>
<pdfrwt beam="1">  1       21 0.19863724E-01 0.45254798E+03</pdfrwt>
<pdfrwt beam="2">  1       21 0.55743056E-01 0.45254798E+03</pdfrwt>
<totfact> 0.65555460E+04</totfact>
</mgrwt>
</event>
<event>
 7    0  0.4737014E-002  0.4368952E+03  0.7546771E-02  0.1031704E+00
         21   -1    0    0  502  501  0.00000000000E+00  0.00000000000E+00  0.28012160964E+03  0.28012160964E+03  0.00000000000E+00 0.  1.
         21   -1    0    0  501  502 -0.00000000000E+00 -0.00000000000E+00 -0.17035230971E+03  0.17035230971E+03  0.00000000000E+00 0.  1.
      99926    2    1    2    0    0  0.00000000000E+00  0.00000000000E+00  0.10976929993E+03  0.45047391934E+03  0.43689524237E+03 0.  0.
      99925    2    3    3    0    0 -0.47686360269E+02 -0.74856785337E+02  0.34592971197E+02  0.27966257379E+03  0.26293906948E+03 0.  0.
         25    1    4    4    0    0  0.97266399891E+01 -0.31296351141E+02 -0.67692310790E+01  0.12948899455E+03  0.12509000000E+03 0.  0.
         25    1    3    3    0    0  0.47686360269E+02  0.74856785337E+02  0.75176328732E+02  0.17081134555E+03  0.12509000000E+03 0.  0.
         25    1    4    4    0    0 -0.57413000258E+02 -0.43560434195E+02  0.41362202276E+02  0.15017357924E+03  0.12509000000E+03 0.  0.
<mgrwt>
<rscale>  2 0.43689524E+03</rscale>
<asrwt>0</asrwt>
<pdfrwt beam="1">  1       21 0.41194354E-01 0.43689524E+03</pdfrwt>
<pdfrwt beam="2">  1       21 0.25051810E-01 0.43689524E+03</pdfrwt>
<totfact> 0.79770588E+04</totfact>
</mgrwt>
</event>
<event>
 7    0  0.4737014E-002  0.4799726E+03  0.7546771E-02  0.1019143E+00
         21   -1    0    0  502  501  0.00000000000E+00  0.00000000000E+00  0.10201149292E+03  0.10201149292E+03  0.00000000000E+00 0.  1.
         21   -1    0    0  501  502 -0.00000000000E+00 -0.00000000000E+00 -0.56457773344E+03  0.56457773344E+03  0.00000000000E+00 0.  1.
      99926    2    1    2    0    0  0.00000000000E+00  0.00000000000E+00 -0.46256624052E+03  0.66658922636E+03  0.47997257196E+03 0.  0.
      99925    2    3    3    0    0  0.12897578822E+03 -0.38502371778E+02 -0.30353189461E+03  0.42357355226E+03  0.26299383368E+03 0.  0.
         25    1    4    4    0    0  0.24069312965E+02  0.88120413011E+00 -0.13663743768E+03  0.18680847364E+03  0.12509000000E+03 0.  0.
         25    1    4    4    0    0  0.10490647526E+03 -0.39383575909E+02 -0.16689445693E+03  0.23676507862E+03  0.12509000000E+03 0.  0.
         25    1    3    3    0    0 -0.12897578822E+03  0.38502371778E+02 -0.15903434591E+03  0.24301567410E+03  0.12509000000E+03 0.  0.
<mgrwt>
<rscale>  2 0.47997257E+03</rscale>
<asrwt>0</asrwt>
<pdfrwt beam="1">  1       21 0.15001690E-01 0.47997257E+03</pdfrwt>
<pdfrwt beam="2">  1       21 0.83026138E-01 0.47997257E+03</pdfrwt>
<totfact> 0.45178618E+04</totfact>
</mgrwt>
</event>
<event>
 7    0  0.4737014E-002  0.4481763E+03  0.7546771E-02  0.1028267E+00
         21   -1    0    0  502  501  0.00000000000E+00  0.00000000000E+00  0.24571008528E+03  0.24571008528E+03  0.00000000000E+00 0.  1.
         21   -1    0    0  501  502 -0.00000000000E+00 -0.00000000000E+00 -0.20436888811E+03  0.20436888811E+03  0.00000000000E+00 0.  1.
      99926    2    1    2    0    0 -0.71054273576E-14  0.00000000000E+00  0.41341197170E+02  0.45007897338E+03  0.44817629087E+03 0.  0.
      99925    2    3    3    0    0 -0.58916964545E+02 -0.66393084493E+02  0.85856628197E+02  0.29036553601E+03  0.26279561167E+03 0.  0.
         25    1    4    4    0    0 -0.38562213272E+02 -0.23428281968E+01  0.67153704823E+02  0.14713823877E+03  0.12509000000E+03 0.  0.
         25    1    4    4    0    0 -0.20354751273E+02 -0.64050256297E+02  0.18702923374E+02  0.14322729724E+03  0.12509000000E+03 0.  0.
         25    1    3    3    0    0  0.58916964545E+02  0.66393084493E+02 -0.44515431027E+02  0.15971343738E+03  0.12509000000E+03 0.  0.
<mgrwt>
<rscale>  2 0.44817629E+03</rscale>
<asrwt>0</asrwt>
<pdfrwt beam="1">  1       21 0.36133836E-01 0.44817629E+03</pdfrwt>
<pdfrwt beam="2">  1       21 0.30054248E-01 0.44817629E+03</pdfrwt>
<totfact> 0.72790841E+04</totfact>
</mgrwt>
</event>
<event>
 7    0  0.4737014E-002  0.4537140E+03  0.7546771E-02  0.1026620E+00
         21   -1    0    0  502  501  0.00000000000E+00  0.00000000000E+00  0.39234369297E+03  0.39234369297E+03  0.00000000000E+00 0.  1.
         21   -1    0    0  501  502 -0.00000000000E+00 -0.00000000000E+00 -0.13117095705E+03  0.13117095705E+03  0.00000000000E+00 0.  1.
      99926    2    1    2    0    0 -0.14210854715E-13  0.00000000000E+00  0.26117273593E+03  0.52351465002E+03  0.45371399669E+03 0.  0.
      99925    2    3    3    0    0 -0.79969968123E+02 -0.49371139834E+02  0.23457771424E+03  0.36480892067E+03  0.26310860749E+03 0.  0.
         25    1    3    3    0    0  0.79969968123E+02  0.49371139834E+02  0.26595021685E+02  0.15870572935E+03  0.12509000000E+03 0.  0.
         25    1    4    4    0    0 -0.13649945010E+02 -0.14927428455E+02  0.14988577204E+03  0.19627124568E+03  0.12509000000E+03 0.  0.
         25    1    4    4    0    0 -0.66320023113E+02 -0.34443711379E+02  0.84691942201E+02  0.16853767500E+03  0.12509000000E+03 0.  0.
<mgrwt>
<rscale>  2 0.45371400E+03</rscale>
<asrwt>0</asrwt>
<pdfrwt beam="1">  1       21 0.57697602E-01 0.45371400E+03</pdfrwt>
<pdfrwt beam="2">  1       21 0.19289847E-01 0.45371400E+03</pdfrwt>
<totfact> 0.64300688E+04</totfact>
</mgrwt>
</event>
<event>
 7    0  0.4737014E-002  0.4558553E+03  0.7546771E-02  0.1025990E+00
         21   -1    0    0  502  501  0.00000000000E+00  0.00000000000E+00  0.18395883015E+03  0.18395883015E+03  0.00000000000E+00 0.  1.
         21   -1    0    0  501  502 -0.00000000000E+00 -0.00000000000E+00 -0.28240570729E+03  0.28240570729E+03  0.00000000000E+00 0.  1.
      99926    2    1    2    0    0  0.71054273576E-14 -0.14210854715E-13 -0.98446877141E+02  0.46636453744E+03  0.45585534346E+03 0.  0.
      99925    2    3    3    0    0 -0.53338167423E+02  0.99813526550E+02 -0.47912154060E+02  0.29027090745E+03  0.26297133878E+03 0.  0.
         25    1    3    3    0    0  0.53338167423E+02 -0.99813526550E+02 -0.50534723081E+02  0.17609362999E+03  0.12509000000E+03 0.  0.
         25    1    4    4    0    0 -0.66117612584E+02  0.65718864002E+02 -0.26568823777E+02  0.15825270385E+03  0.12509000000E+03 0.  0.
         25    1    4    4    0    0  0.12779445162E+02  0.34094662548E+02 -0.21343330284E+02  0.13201820360E+03  0.12509000000E+03 0.  0.
<mgrwt>
<rscale>  2 0.45585534E+03</rscale>
<asrwt>0</asrwt>
<pdfrwt beam="1">  1       21 0.27052770E-01 0.45585534E+03</pdfrwt>
<pdfrwt beam="2">  1       21 0.41530250E-01 0.45585534E+03</pdfrwt>
<totfact> 0.67250187E+04</totfact>
</mgrwt>
</event>
<event>
 7    0  0.4737014E-002  0.4518804E+03  0.7546771E-02  0.1027163E+00
         21   -1    0    0  502  501  0.00000000000E+00  0.00000000000E+00  0.24301849557E+04  0.24301849557E+04  0.00000000000E+00 0. -1.
         21   -1    0    0  501  502 -0.00000000000E+00 -0.00000000000E+00 -0.21006210150E+02  0.21006210150E+02  0.00000000000E+00 0. -1.
      99926    2    1    2    0    0  0.00000000000E+00  0.00000000000E+00  0.24091787455E+04  0.24511911658E+04  0.45188040843E+03 0.  0.
      99925    2    3    3    0    0  0.43799680350E+02  0.13014056205E+02  0.20645874540E+04  0.20817612754E+04  0.26290849132E+03 0.  0.
         25    1    4    4    0    0  0.80966759726E+01  0.86785186767E+01  0.13118403104E+04  0.13178442172E+04  0.12509000000E+03 0.  0.
         25    1    4    4    0    0  0.35703004378E+02  0.43355375283E+01  0.75274714359E+03  0.76391705813E+03  0.12509000000E+03 0.  0.
         25    1    3    3    0    0 -0.43799680350E+02 -0.13014056205E+02  0.34459129153E+03  0.36942989045E+03  0.12509000000E+03 0.  0.
<mgrwt>
<rscale>  2 0.45188041E+03</rscale>
<asrwt>0</asrwt>
<pdfrwt beam="1">  1       21 0.35737995E+00 0.45188041E+03</pdfrwt>
<pdfrwt beam="2">  1       21 0.30891502E-02 0.45188041E+03</pdfrwt>
<totfact> 0.78324914E+03</totfact>
</mgrwt>
</event>
<event>
 7    0  0.4737014E-002  0.4582915E+03  0.7546771E-02  0.1025278E+00
         21   -1    0    0  502  501  0.00000000000E+00  0.00000000000E+00  0.89585474419E+03  0.89585474419E+03  0.00000000000E+00 0. -1.
         21   -1    0    0  501  502 -0.00000000000E+00 -0.00000000000E+00 -0.58611928996E+02  0.58611928996E+02  0.00000000000E+00 0. -1.
      99926    2    1    2    0    0  0.35527136788E-14  0.00000000000E+00  0.83724281519E+03  0.95446667318E+03  0.45829149962E+03 0.  0.
      99925    2    3    3    0    0 -0.27757498865E+02 -0.53698088360E+02  0.73208521793E+03  0.78022663244E+03  0.26296552667E+03 0.  0.
         25    1    4    4    0    0 -0.31926830205E+02  0.87249556173E+01  0.37712087742E+03  0.39870178282E+03  0.12509000000E+03 0.  0.
         25    1    3    3    0    0  0.27757498865E+02  0.53698088360E+02  0.10515759726E+03  0.17424004074E+03  0.12509000000E+03 0.  0.
         25    1    4    4    0    0  0.41693313398E+01 -0.62423043978E+02  0.35496434052E+03  0.38152484962E+03  0.12509000000E+03 0.  0.
<mgrwt>
<rscale>  2 0.45829150E+03</rscale>
<asrwt>0</asrwt>
<pdfrwt beam="1">  1       21 0.13174334E+00 0.45829150E+03</pdfrwt>
<pdfrwt beam="2">  1       21 0.86194019E-02 0.45829150E+03</pdfrwt>
<totfact> 0.39923006E+04</totfact>
</mgrwt>
</event>
<event>
 7    0  0.4737014E-002  0.4231662E+03  0.7546771E-02  0.1036041E+00
         21   -1    0    0  502  501  0.00000000000E+00  0.00000000000E+00  0.14911226411E+03  0.14911226411E+03  0.00000000000E+00 0.  1.
         21   -1    0    0  501  502 -0.00000000000E+00 -0.00000000000E+00 -0.30022614239E+03  0.30022614239E+03  0.00000000000E+00 0.  1.
      99926    2    1    2    0    0 -0.71054273576E-14  0.00000000000E+00 -0.15111387828E+03  0.44933840650E+03  0.42316616045E+03 0.  0.
      99925    2    3    3    0    0 -0.48203030338E+02 -0.46647870383E+02 -0.52684440113E+02  0.27660908547E+03  0.26312996787E+03 0.  0.
         25    1    4    4    0    0  0.11623835634E+02 -0.52337893421E+01 -0.12134360011E+02  0.12632203647E+03  0.12509000000E+03 0.  0.
         25    1    3    3    0    0  0.48203030338E+02  0.46647870383E+02 -0.98429438170E+02  0.17272932103E+03  0.12509000000E+03 0.  0.
         25    1    4    4    0    0 -0.59826865972E+02 -0.41414081041E+02 -0.40550080103E+02  0.15028704900E+03  0.12509000000E+03 0.  0.
<mgrwt>
<rscale>  2 0.42316616E+03</rscale>
<asrwt>0</asrwt>
<pdfrwt beam="1">  1       21 0.21928275E-01 0.42316616E+03</pdfrwt>
<pdfrwt beam="2">  1       21 0.44150903E-01 0.42316616E+03</pdfrwt>
<totfact> 0.89580360E+04</totfact>
</mgrwt>
</event>
<event>
 7    0  0.4737014E-002  0.4606828E+03  0.7546771E-02  0.1024583E+00
         21   -1    0    0  502  501  0.00000000000E+00  0.00000000000E+00  0.45694885160E+03  0.45694885160E+03  0.00000000000E+00 0.  1.
         21   -1    0    0  501  502 -0.00000000000E+00 -0.00000000000E+00 -0.11611182356E+03  0.11611182356E+03  0.00000000000E+00 0.  1.
      99926    2    1    2    0    0  0.00000000000E+00  0.14210854715E-13  0.34083702804E+03  0.57306067516E+03  0.46068281684E+03 0.  0.
      99925    2    3    3    0    0 -0.92605395293E+02 -0.47478631275E+02  0.14281348985E+03  0.31675849132E+03  0.26288832091E+03 0.  0.
         25    1    3    3    0    0  0.92605395293E+02  0.47478631275E+02  0.19802353819E+03  0.25630218384E+03  0.12509000000E+03 0.  0.
         25    1    4    4    0    0 -0.80442506018E+02 -0.40731132732E+02  0.10012738309E+03  0.18385598411E+03  0.12509000000E+03 0.  0.
         25    1    4    4    0    0 -0.12162889275E+02 -0.67474985428E+01  0.42686106768E+02  0.13290250721E+03  0.12509000000E+03 0.  0.
<mgrwt>
<rscale>  2 0.46068282E+03</rscale>
<asrwt>0</asrwt>
<pdfrwt beam="1">  1       21 0.67198360E-01 0.46068282E+03</pdfrwt>
<pdfrwt beam="2">  1       21 0.17075268E-01 0.46068282E+03</pdfrwt>
<totfact> 0.57729674E+04</totfact>
</mgrwt>
</event>
<event>
 7    0  0.4737014E-002  0.4295696E+03  0.7546771E-02  0.1033996E+00
         21   -1    0    0  502  501  0.00000000000E+00  0.00000000000E+00  0.56377267719E+02  0.56377267719E+02  0.00000000000E+00 0. -1.
         21   -1    0    0  501  502 -0.00000000000E+00 -0.00000000000E+00 -0.81828228905E+03  0.81828228905E+03  0.00000000000E+00 0. -1.
      99926    2    1    2    0    0  0.00000000000E+00 -0.71054273576E-14 -0.76190502133E+03  0.87465955677E+03  0.42956964362E+03 0.  0.
      99925    2    3    3    0    0  0.61359009282E+02 -0.49425784149E+02 -0.56702872767E+03  0.63005351823E+03  0.26313118719E+03 0.  0.
         25    1    4    4    0    0  0.64875766833E+02 -0.36577361739E+02 -0.25517411949E+03  0.29378241586E+03  0.12509000000E+03 0.  0.
         25    1    3    3    0    0 -0.61359009282E+02  0.49425784149E+02 -0.19487629366E+03  0.24460603854E+03  0.12509000000E+03 0.  0.
         25    1    4    4    0    0 -0.35167575511E+01 -0.12848422410E+02 -0.31185460818E+03  0.33627110237E+03  0.12509000000E+03 0.  0.
<mgrwt>
<rscale>  2 0.42956964E+03</rscale>
<asrwt>0</asrwt>
<pdfrwt beam="1">  1       21 0.82907743E-02 0.42956964E+03</pdfrwt>
<pdfrwt beam="2">  1       21 0.12033564E+00 0.42956964E+03</pdfrwt>
<totfact> 0.54396703E+04</totfact>
</mgrwt>
</event>
<event>
 7    0  0.4737014E-002  0.4545129E+03  0.7546771E-02  0.1026385E+00
         21   -1    0    0  502  501  0.00000000000E+00  0.00000000000E+00  0.20909203268E+02  0.20909203268E+02  0.00000000000E+00 0. -1.
         21   -1    0    0  501  502 -0.00000000000E+00 -0.00000000000E+00 -0.24699884771E+04  0.24699884771E+04  0.00000000000E+00 0. -1.
      99926    2    1    2    0    0  0.00000000000E+00  0.00000000000E+00 -0.24490792738E+04  0.24908976803E+04  0.45451288711E+03 0.  0.
      99925    2    3    3    0    0 -0.16318349130E+02  0.10960247294E+03 -0.14289260228E+04  0.14571476360E+04  0.26300316310E+03 0.  0.
         25    1    3    3    0    0  0.16318349130E+02 -0.10960247294E+03 -0.10201532510E+04  0.10337500443E+04  0.12509000000E+03 0.  0.
         25    1    4    4    0    0  0.82561027913E+01  0.55592415451E+02 -0.90064349003E+03  0.91102408537E+03  0.12509000000E+03 0.  0.
         25    1    4    4    0    0 -0.24574451921E+02  0.54010057485E+02 -0.52828253279E+03  0.54612355063E+03  0.12509000000E+03 0.  0.
<mgrwt>
<rscale>  2 0.45451289E+03</rscale>
<asrwt>0</asrwt>
<pdfrwt beam="1">  1       21 0.30748834E-02 0.45451289E+03</pdfrwt>
<pdfrwt beam="2">  1       21 0.36323354E+00 0.45451289E+03</pdfrwt>
<totfact> 0.72527951E+03</totfact>
</mgrwt>
</event>
<event>
 7    0  0.4737014E-002  0.4464710E+03  0.7546771E-02  0.1028780E+00
         21   -1    0    0  502  501  0.00000000000E+00  0.00000000000E+00  0.39314132636E+03  0.39314132636E+03  0.00000000000E+00 0.  1.
         21   -1    0    0  501  502 -0.00000000000E+00 -0.00000000000E+00 -0.12675870515E+03  0.12675870515E+03  0.00000000000E+00 0.  1.
      99926    2    1    2    0    0  0.00000000000E+00  0.00000000000E+00  0.26638262121E+03  0.51990003150E+03  0.44647098660E+03 0.  0.
      99925    2    3    3    0    0 -0.60513799065E+02  0.21693368427E+02  0.72109192934E+02  0.28006217973E+03  0.26287367060E+03 0.  0.
         25    1    4    4    0    0 -0.70011303852E+02  0.22778081641E+02  0.40249808551E+02  0.15062529289E+03  0.12509000000E+03 0.  0.
         25    1    3    3    0    0  0.60513799065E+02 -0.21693368427E+02  0.19427342828E+03  0.23983785178E+03  0.12509000000E+03 0.  0.
         25    1    4    4    0    0  0.94975047875E+01 -0.10847132140E+01  0.31859384383E+02  0.12943688683E+03  0.12509000000E+03 0.  0.
<mgrwt>
<rscale>  2 0.44647099E+03</rscale>
<asrwt>0</asrwt>
<pdfrwt beam="1">  1       21 0.57814901E-01 0.44647099E+03</pdfrwt>
<pdfrwt beam="2">  1       21 0.18640986E-01 0.44647099E+03</pdfrwt>
<totfact> 0.68404150E+04</totfact>
</mgrwt>
</event>
<event>
 7    0  0.4737014E-002  0.4526185E+03  0.7546771E-02  0.1026944E+00
         21   -1    0    0  502  501  0.00000000000E+00  0.00000000000E+00  0.12528067879E+04  0.12528067879E+04  0.00000000000E+00 0.  1.
         21   -1    0    0  501  502 -0.00000000000E+00 -0.00000000000E+00 -0.40880913471E+02  0.40880913471E+02  0.00000000000E+00 0.  1.
      99926    2    1    2    0    0  0.00000000000E+00  0.00000000000E+00  0.12119258745E+04  0.12936877014E+04  0.45261854091E+03 0.  0.
      99925    2    3    3    0    0  0.56736162077E+02 -0.22394729422E+02  0.49912178693E+03  0.56742487619E+03  0.26292188181E+03 0.  0.
         25    1    4    4    0    0  0.66682797775E+02 -0.25415279847E-01  0.28295321430E+03  0.31647531617E+03  0.12509000000E+03 0.  0.
         25    1    4    4    0    0 -0.99466356979E+01 -0.22369314142E+02  0.21616857264E+03  0.25094956002E+03  0.12509000000E+03 0.  0.
         25    1    3    3    0    0 -0.56736162077E+02  0.22394729422E+02  0.71280408752E+03  0.72626282521E+03  0.12509000000E+03 0.  0.
<mgrwt>
<rscale>  2 0.45261854E+03</rscale>
<asrwt>0</asrwt>
<pdfrwt beam="1">  1       21 0.18423627E+00 0.45261854E+03</pdfrwt>
<pdfrwt beam="2">  1       21 0.60118998E-02 0.45261854E+03</pdfrwt>
<totfact> 0.29847598E+04</totfact>
</mgrwt>
</event>
<event>
 7    0  0.4737014E-002  0.4335290E+03  0.7546771E-02  0.1032751E+00
         21   -1    0    0  502  501  0.00000000000E+00  0.00000000000E+00  0.86048890771E+02  0.86048890771E+02  0.00000000000E+00 0. -1.
         21   -1    0    0  501  502 -0.00000000000E+00 -0.00000000000E+00 -0.54604831211E+03  0.54604831211E+03  0.00000000000E+00 0. -1.
      99926    2    1    2    0    0 -0.71054273576E-14  0.00000000000E+00 -0.45999942134E+03  0.63209720288E+03  0.43352901432E+03 0.  0.
      99925    2    3    3    0    0 -0.62222065397E+02 -0.67237553337E+02 -0.29176163622E+03  0.40330923457E+03  0.26294678610E+03 0.  0.
         25    1    3    3    0    0  0.62222065397E+02  0.67237553337E+02 -0.16823778512E+03  0.22878796831E+03  0.12509000000E+03 0.  0.
         25    1    4    4    0    0 -0.80398419225E+01 -0.52159866918E+02 -0.10518343987E+03  0.17174502874E+03  0.12509000000E+03 0.  0.
         25    1    4    4    0    0 -0.54182223475E+02 -0.15077686419E+02 -0.18657819634E+03  0.23156420582E+03  0.12509000000E+03 0.  0.
<mgrwt>
<rscale>  2 0.43352901E+03</rscale>
<asrwt>0</asrwt>
<pdfrwt beam="1">  1       21 0.12654249E-01 0.43352901E+03</pdfrwt>
<pdfrwt beam="2">  1       21 0.80301222E-01 0.43352901E+03</pdfrwt>
<totfact> 0.67470118E+04</totfact>
</mgrwt>
</event>
<event>
 7    0  0.4737014E-002  0.4586176E+03  0.7546771E-02  0.1025183E+00
         21   -1    0    0  502  501  0.00000000000E+00  0.00000000000E+00  0.16290251604E+03  0.16290251604E+03  0.00000000000E+00 0. -1.
         21   -1    0    0  501  502 -0.00000000000E+00 -0.00000000000E+00 -0.32278522751E+03  0.32278522751E+03  0.00000000000E+00 0. -1.
      99926    2    1    2    0    0  0.00000000000E+00 -0.35527136788E-14 -0.15988271147E+03  0.48568774356E+03  0.45861759977E+03 0.  0.
      99925    2    3    3    0    0 -0.40407885041E+02 -0.20497340184E+02  0.13526057618E+02  0.26712185550E+03  0.26290339161E+03 0.  0.
         25    1    4    4    0    0 -0.94166351621E+01 -0.48506849319E+02 -0.50756667009E+00  0.13449666603E+03  0.12509000000E+03 0.  0.
         25    1    3    3    0    0  0.40407885041E+02  0.20497340184E+02 -0.17340876909E+03  0.21856588806E+03  0.12509000000E+03 0.  0.
         25    1    4    4    0    0 -0.30991249879E+02  0.28009509135E+02  0.14033624288E+02  0.13262518947E+03  0.12509000000E+03 0.  0.
<mgrwt>
<rscale>  2 0.45861760E+03</rscale>
<asrwt>0</asrwt>
<pdfrwt beam="1">  1       21 0.23956252E-01 0.45861760E+03</pdfrwt>
<pdfrwt beam="2">  1       21 0.47468416E-01 0.45861760E+03</pdfrwt>
<totfact> 0.64418470E+04</totfact>
</mgrwt>
</event>
<event>
 7    0  0.4737014E-002  0.4460139E+03  0.7546771E-02  0.1028917E+00
         21   -1    0    0  502  501  0.00000000000E+00  0.00000000000E+00  0.34350690750E+03  0.34350690750E+03  0.00000000000E+00 0. -1.
         21   -1    0    0  501  502 -0.00000000000E+00 -0.00000000000E+00 -0.14477760836E+03  0.14477760836E+03  0.00000000000E+00 0. -1.
      99926    2    1    2    0    0  0.00000000000E+00  0.00000000000E+00  0.19872929915E+03  0.48828451586E+03  0.44601393934E+03 0.  0.
      99925    2    3    3    0    0 -0.80838638194E+02  0.42989463800E+01  0.19841086311E+03  0.33928459684E+03  0.26304714538E+03 0.  0.
         25    1    4    4    0    0 -0.79586062717E+02  0.13440107561E+02  0.93795758875E+02  0.17595377334E+03  0.12509000000E+03 0.  0.
         25    1    4    4    0    0 -0.12525754772E+01 -0.91411611809E+01  0.10461510423E+03  0.16333082350E+03  0.12509000000E+03 0.  0.
         25    1    3    3    0    0  0.80838638194E+02 -0.42989463800E+01  0.31843604016E+00  0.14899991902E+03  0.12509000000E+03 0.  0.
<mgrwt>
<rscale>  2 0.44601394E+03</rscale>
<asrwt>0</asrwt>
<pdfrwt beam="1">  1       21 0.50515722E-01 0.44601394E+03</pdfrwt>
<pdfrwt beam="2">  1       21 0.21290825E-01 0.44601394E+03</pdfrwt>
<totfact> 0.71035615E+04</totfact>
</mgrwt>
</event>
<event>
 7    0  0.4737014E-002  0.4512194E+03  0.7546771E-02  0.1027359E+00
         21   -1    0    0  502  501  0.00000000000E+00  0.00000000000E+00  0.29174958377E+02  0.29174958377E+02  0.00000000000E+00 0.  1.
         21   -1    0    0  501  502 -0.00000000000E+00 -0.00000000000E+00 -0.17446379590E+04  0.17446379590E+04  0.00000000000E+00 0.  1.
      99926    2    1    2    0    0  0.00000000000E+00  0.00000000000E+00 -0.17154630006E+04  0.17738129174E+04  0.45121941375E+03 0.  0.
      99925    2    3    3    0    0  0.94957703316E+02 -0.31509638173E+02 -0.90721707721E+03  0.94984762470E+03  0.26297882473E+03 0.  0.
         25    1    3    3    0    0 -0.94957703316E+02  0.31509638173E+02 -0.80824592343E+03  0.82396529269E+03  0.12509000000E+03 0.  0.
         25    1    4    4    0    0  0.21955512818E+02 -0.47583457101E+02 -0.44312652668E+03  0.46341650454E+03  0.12509000000E+03 0.  0.
         25    1    4    4    0    0  0.73002190497E+02  0.16073818928E+02 -0.46409055053E+03  0.48643112016E+03  0.12509000000E+03 0.  0.
<mgrwt>
<rscale>  2 0.45121941E+03</rscale>
<asrwt>0</asrwt>
<pdfrwt beam="1">  1       21 0.42904338E-02 0.45121941E+03</pdfrwt>
<pdfrwt beam="2">  1       21 0.25656448E+00 0.45121941E+03</pdfrwt>
<totfact> 0.18299315E+04</totfact>
</mgrwt>
</event>
<event>
 7    0  0.4737014E-002  0.4158056E+03  0.7546771E-02  0.1038440E+00
         21   -1    0    0  502  501  0.00000000000E+00  0.00000000000E+00  0.19204257646E+04  0.19204257646E+04  0.00000000000E+00 0. -1.
         21   -1    0    0  501  502 -0.00000000000E+00 -0.00000000000E+00 -0.22507288024E+02  0.22507288024E+02  0.00000000000E+00 0. -1.
      99926    2    1    2    0    0  0.71054273576E-14  0.00000000000E+00  0.18979184766E+04  0.19429330526E+04  0.41580560753E+03 0.  0.
      99925    2    3    3    0    0  0.56613258538E+02  0.11329399421E+02  0.10543944919E+04  0.10882321475E+04  0.26299818640E+03 0.  0.
         25    1    4    4    0    0 -0.16693133084E+01 -0.46915784895E+01  0.39510284765E+03  0.41446177850E+03  0.12509000000E+03 0.  0.
         25    1    4    4    0    0  0.58282571847E+02  0.16020977911E+02  0.65929164422E+03  0.67377036901E+03  0.12509000000E+03 0.  0.
         25    1    3    3    0    0 -0.56613258538E+02 -0.11329399421E+02  0.84352398471E+03  0.85470090512E+03  0.12509000000E+03 0.  0.
<mgrwt>
<rscale>  2 0.41580561E+03</rscale>
<asrwt>0</asrwt>
<pdfrwt beam="1">  1       21 0.28241544E+00 0.41580561E+03</pdfrwt>
<pdfrwt beam="2">  1       21 0.33098966E-02 0.41580561E+03</pdfrwt>
<totfact> 0.20125987E+04</totfact>
</mgrwt>
</event>
<event>
 7    0  0.4737014E-002  0.4598252E+03  0.7546771E-02  0.1024832E+00
         21   -1    0    0  502  501  0.00000000000E+00  0.00000000000E+00  0.24661644975E+03  0.24661644975E+03  0.00000000000E+00 0. -1.
         21   -1    0    0  501  502 -0.00000000000E+00 -0.00000000000E+00 -0.21434013072E+03  0.21434013072E+03  0.00000000000E+00 0. -1.
      99926    2    1    2    0    0  0.00000000000E+00  0.00000000000E+00  0.32276319029E+02  0.46095658046E+03  0.45982519320E+03 0.  0.
      99925    2    3    3    0    0 -0.21534605439E+02  0.95211914836E+02 -0.45785561832E+02  0.28412272256E+03  0.26286946541E+03 0.  0.
         25    1    3    3    0    0  0.21534605439E+02 -0.95211914836E+02  0.78061880861E+02  0.17683385791E+03  0.12509000000E+03 0.  0.
         25    1    4    4    0    0 -0.46665746369E+02  0.31908161927E+02 -0.12386740402E+02  0.13782874199E+03  0.12509000000E+03 0.  0.
         25    1    4    4    0    0  0.25131140930E+02  0.63303752909E+02 -0.33398821430E+02  0.14629398057E+03  0.12509000000E+03 0.  0.
<mgrwt>
<rscale>  2 0.45982519E+03</rscale>
<asrwt>0</asrwt>
<pdfrwt beam="1">  1       21 0.36267125E-01 0.45982519E+03</pdfrwt>
<pdfrwt beam="2">  1       21 0.31520607E-01 0.45982519E+03</pdfrwt>
<totfact> 0.65551387E+04</totfact>
</mgrwt>
</event>
<event>
 7    0  0.4737014E-002  0.4534336E+03  0.7546771E-02  0.1026703E+00
         21   -1    0    0  502  501  0.00000000000E+00  0.00000000000E+00  0.61655344043E+03  0.61655344043E+03  0.00000000000E+00 0. -1.
         21   -1    0    0  501  502 -0.00000000000E+00 -0.00000000000E+00 -0.83367470382E+02  0.83367470382E+02  0.00000000000E+00 0. -1.
      99926    2    1    2    0    0 -0.35527136788E-14  0.14210854715E-13  0.53318597005E+03  0.69992091081E+03  0.45343357037E+03 0.  0.
      99925    2    3    3    0    0  0.27265287113E+02 -0.10601334361E+03  0.29960177719E+03  0.41323064562E+03  0.26270918651E+03 0.  0.
         25    1    4    4    0    0  0.51765698102E+02 -0.66717226974E+02  0.16833761422E+03  0.22608833746E+03  0.12509000000E+03 0.  0.
         25    1    4    4    0    0 -0.24500410989E+02 -0.39296116635E+02  0.13126416297E+03  0.18714230816E+03  0.12509000000E+03 0.  0.
         25    1    3    3    0    0 -0.27265287113E+02  0.10601334361E+03  0.23358419286E+03  0.28669026520E+03  0.12509000000E+03 0.  0.
<mgrwt>
<rscale>  2 0.45343357E+03</rscale>
<asrwt>0</asrwt>
<pdfrwt beam="1">  1       21 0.90669621E-01 0.45343357E+03</pdfrwt>
<pdfrwt beam="2">  1       21 0.12259922E-01 0.45343357E+03</pdfrwt>
<totfact> 0.53564518E+04</totfact>
</mgrwt>
</event>
<event>
 7    0  0.4737014E-002  0.4454233E+03  0.7546771E-02  0.1029096E+00
         21   -1    0    0  502  501  0.00000000000E+00  0.00000000000E+00  0.59970861472E+03  0.59970861472E+03  0.00000000000E+00 0. -1.
         21   -1    0    0  501  502 -0.00000000000E+00 -0.00000000000E+00 -0.82707639353E+02  0.82707639353E+02  0.00000000000E+00 0. -1.
      99926    2    1    2    0    0  0.00000000000E+00  0.00000000000E+00  0.51700097537E+03  0.68241625408E+03  0.44542332145E+03 0.  0.
      99925    2    3    3    0    0  0.56626634188E+02 -0.33865090897E+01  0.46164775587E+03  0.53433002530E+03  0.26300547770E+03 0.  0.
         25    1    4    4    0    0  0.62180341787E+02 -0.13975707209E+01  0.19650860079E+03  0.24110472080E+03  0.12509000000E+03 0.  0.
         25    1    3    3    0    0 -0.56626634188E+02  0.33865090897E+01  0.55353219503E+02  0.14808622877E+03  0.12509000000E+03 0.  0.
         25    1    4    4    0    0 -0.55537075996E+01 -0.19889383689E+01  0.26513915508E+03  0.29322530450E+03  0.12509000000E+03 0.  0.
<mgrwt>
<rscale>  2 0.44542332E+03</rscale>
<asrwt>0</asrwt>
<pdfrwt beam="1">  1       21 0.88192441E-01 0.44542332E+03</pdfrwt>
<pdfrwt beam="2">  1       21 0.12162889E-01 0.44542332E+03</pdfrwt>
<totfact> 0.58128958E+04</totfact>
</mgrwt>
</event>
<event>
 7    0  0.4737014E-002  0.4504309E+03  0.7546771E-02  0.1027594E+00
         21   -1    0    0  502  501  0.00000000000E+00  0.00000000000E+00  0.83293579067E+03  0.83293579067E+03  0.00000000000E+00 0.  1.
         21   -1    0    0  501  502 -0.00000000000E+00 -0.00000000000E+00 -0.60895459005E+02  0.60895459005E+02  0.00000000000E+00 0.  1.
      99926    2    1    2    0    0  0.88817841970E-15  0.00000000000E+00  0.77204033167E+03  0.89383124968E+03  0.45043093719E+03 0.  0.
      99925    2    3    3    0    0  0.50270870347E+01 -0.10559977596E+03  0.43597709813E+03  0.51998289897E+03  0.26292508600E+03 0.  0.
         25    1    4    4    0    0 -0.81928692581E+01 -0.70010596103E+02  0.16235832730E+03  0.21674026211E+03  0.12509000000E+03 0.  0.
         25    1    3    3    0    0 -0.50270870347E+01  0.10559977596E+03  0.33606323354E+03  0.37384835071E+03  0.12509000000E+03 0.  0.
         25    1    4    4    0    0  0.13219956293E+02 -0.35589179853E+02  0.27361877082E+03  0.30324263686E+03  0.12509000000E+03 0.  0.
<mgrwt>
<rscale>  2 0.45043094E+03</rscale>
<asrwt>0</asrwt>
<pdfrwt beam="1">  1       21 0.12249055E+00 0.45043094E+03</pdfrwt>
<pdfrwt beam="2">  1       21 0.89552150E-02 0.45043094E+03</pdfrwt>
<totfact> 0.45093232E+04</totfact>
</mgrwt>
</event>
<event>
 7    0  0.4737014E-002  0.4519931E+03  0.7546771E-02  0.1027129E+00
         21   -1    0    0  502  501  0.00000000000E+00  0.00000000000E+00  0.33343048870E+03  0.33343048870E+03  0.00000000000E+00 0.  1.
         21   -1    0    0  501  502 -0.00000000000E+00 -0.00000000000E+00 -0.15317866340E+03  0.15317866340E+03  0.00000000000E+00 0.  1.
      99926    2    1    2    0    0  0.00000000000E+00  0.00000000000E+00  0.18025182529E+03  0.48660915210E+03  0.45199308223E+03 0.  0.
      99925    2    3    3    0    0  0.76855743799E+02  0.62940064329E+02  0.16547449722E+03  0.32619052919E+03  0.26296424671E+03 0.  0.
         25    1    4    4    0    0  0.17974971582E+02  0.31569381887E+02  0.12052962234E+03  0.17746724610E+03  0.12509000000E+03 0.  0.
         25    1    4    4    0    0  0.58880772217E+02  0.31370682442E+02  0.44944874882E+02  0.14872328309E+03  0.12509000000E+03 0.  0.
         25    1    3    3    0    0 -0.76855743799E+02 -0.62940064329E+02  0.14777328069E+02  0.16041862291E+03  0.12509000000E+03 0.  0.
<mgrwt>
<rscale>  2 0.45199308E+03</rscale>
<asrwt>0</asrwt>
<pdfrwt beam="1">  1       21 0.49033895E-01 0.45199308E+03</pdfrwt>
<pdfrwt beam="2">  1       21 0.22526274E-01 0.45199308E+03</pdfrwt>
<totfact> 0.67826737E+04</totfact>
</mgrwt>
</event>
<event>
 7    0  0.4737014E-002  0.4553357E+03  0.7546771E-02  0.1026143E+00
         21   -1    0    0  502  501  0.00000000000E+00  0.00000000000E+00  0.45749054525E+03  0.45749054525E+03  0.00000000000E+00 0.  1.
         21   -1    0    0  501  502 -0.00000000000E+00 -0.00000000000E+00 -0.11329775353E+03  0.11329775353E+03  0.00000000000E+00 0.  1.
      99926    2    1    2    0    0 -0.35527136788E-14 -0.14210854715E-13  0.34419279173E+03  0.57078829878E+03  0.45533570489E+03 0.  0.
      99925    2    3    3    0    0 -0.21969515813E+02 -0.10680412342E+03  0.25597491548E+03  0.38285298492E+03  0.26298948706E+03 0.  0.
         25    1    4    4    0    0  0.18173782130E+02 -0.28571215678E+02  0.93899487512E+02  0.16003506671E+03  0.12509000000E+03 0.  0.
         25    1    3    3    0    0  0.21969515813E+02  0.10680412342E+03  0.88217876242E+02  0.18793531386E+03  0.12509000000E+03 0.  0.
         25    1    4    4    0    0 -0.40143297942E+02 -0.78232907747E+02  0.16207542797E+03  0.22281791821E+03  0.12509000000E+03 0.  0.
<mgrwt>
<rscale>  2 0.45533570E+03</rscale>
<asrwt>0</asrwt>
<pdfrwt beam="1">  1       21 0.67278021E-01 0.45533570E+03</pdfrwt>
<pdfrwt beam="2">  1       21 0.16661435E-01 0.45533570E+03</pdfrwt>
<totfact> 0.60352970E+04</totfact>
</mgrwt>
</event>
<event>
 7    0  0.4737014E-002  0.4524003E+03  0.7546771E-02  0.1027009E+00
         21   -1    0    0  502  501  0.00000000000E+00  0.00000000000E+00  0.76827487261E+03  0.76827487261E+03  0.00000000000E+00 0.  1.
         21   -1    0    0  501  502 -0.00000000000E+00 -0.00000000000E+00 -0.66599208103E+02  0.66599208103E+02  0.00000000000E+00 0.  1.
      99926    2    1    2    0    0 -0.14210854715E-13 -0.35527136788E-14  0.70167566451E+03  0.83487408071E+03  0.45240025694E+03 0.  0.
      99925    2    3    3    0    0  0.10597734844E+03 -0.31447267499E+02  0.45358218572E+03  0.53584563502E+03  0.26300877620E+03 0.  0.
         25    1    4    4    0    0  0.28746738197E+02 -0.34025629316E+02  0.26787052242E+03  0.29897532221E+03  0.12509000000E+03 0.  0.
         25    1    3    3    0    0 -0.10597734844E+03  0.31447267499E+02  0.24809347879E+03  0.29902844569E+03  0.12509000000E+03 0.  0.
         25    1    4    4    0    0  0.77230610239E+02  0.25783618171E+01  0.18571166329E+03  0.23687031281E+03  0.12509000000E+03 0.  0.
<mgrwt>
<rscale>  2 0.45240026E+03</rscale>
<asrwt>0</asrwt>
<pdfrwt beam="1">  1       21 0.11298159E+00 0.45240026E+03</pdfrwt>
<pdfrwt beam="2">  1       21 0.97940017E-02 0.45240026E+03</pdfrwt>
<totfact> 0.47076676E+04</totfact>
</mgrwt>
</event>
<event>
 7    0  0.4737014E-002  0.4542332E+03  0.7546771E-02  0.1026467E+00
         21   -1    0    0  502  501  0.00000000000E+00  0.00000000000E+00  0.66276182549E+03  0.66276182549E+03  0.00000000000E+00 0.  1.
         21   -1    0    0  501  502 -0.00000000000E+00 -0.00000000000E+00 -0.77828790401E+02  0.77828790401E+02  0.00000000000E+00 0.  1.
      99926    2    1    2    0    0 -0.44408920985E-15  0.00000000000E+00  0.58493303508E+03  0.74059061589E+03  0.45423320531E+03 0.  0.
      99925    2    3    3    0    0  0.38880799682E+01  0.82336078828E+02  0.49309774935E+03  0.56487614623E+03  0.26295498306E+03 0.  0.
         25    1    3    3    0    0 -0.38880799682E+01 -0.82336078828E+02  0.91835285731E+02  0.17571446966E+03  0.12509000000E+03 0.  0.
         25    1    4    4    0    0  0.29685641453E+02  0.65912765488E+02  0.29700512783E+03  0.33028061405E+03  0.12509000000E+03 0.  0.
         25    1    4    4    0    0 -0.25797561485E+02  0.16423313340E+02  0.19609262153E+03  0.23459553218E+03  0.12509000000E+03 0.  0.
<mgrwt>
<rscale>  2 0.45423321E+03</rscale>
<asrwt>0</asrwt>
<pdfrwt beam="1">  1       21 0.97464972E-01 0.45423321E+03</pdfrwt>
<pdfrwt beam="2">  1       21 0.11445411E-01 0.45423321E+03</pdfrwt>
<totfact> 0.51061043E+04</totfact>
</mgrwt>
</event>
<event>
 7    0  0.4737014E-002  0.4525435E+03  0.7546771E-02  0.1026966E+00
         21   -1    0    0  502  501  0.00000000000E+00  0.00000000000E+00  0.33305937009E+03  0.33305937009E+03  0.00000000000E+00 0. -1.
         21   -1    0    0  501  502 -0.00000000000E+00 -0.00000000000E+00 -0.15372307369E+03  0.15372307369E+03  0.00000000000E+00 0. -1.
      99926    2    1    2    0    0 -0.71054273576E-14  0.00000000000E+00  0.17933629639E+03  0.48678244378E+03  0.45254352318E+03 0.  0.
      99925    2    3    3    0    0 -0.58677754438E+02 -0.90114862522E+02  0.14242867377E+03  0.31774561933E+03  0.26289272371E+03 0.  0.
         25    1    4    4    0    0  0.36590846238E+01 -0.21154542019E+02  0.78909879023E+02  0.14944959236E+03  0.12509000000E+03 0.  0.
         25    1    4    4    0    0 -0.62336839062E+02 -0.68960320503E+02  0.63518794746E+02  0.16829602697E+03  0.12509000000E+03 0.  0.
         25    1    3    3    0    0  0.58677754438E+02  0.90114862522E+02  0.36907622622E+02  0.16903682445E+03  0.12509000000E+03 0.  0.
<mgrwt>
<rscale>  2 0.45254352E+03</rscale>
<asrwt>0</asrwt>
<pdfrwt beam="1">  1       21 0.48979319E-01 0.45254352E+03</pdfrwt>
<pdfrwt beam="2">  1       21 0.22606334E-01 0.45254352E+03</pdfrwt>
<totfact> 0.67516677E+04</totfact>
</mgrwt>
</event>
<event>
 7    0  0.4737014E-002  0.4570118E+03  0.7546771E-02  0.1025651E+00
         21   -1    0    0  502  501  0.00000000000E+00  0.00000000000E+00  0.17969384244E+03  0.17969384244E+03  0.00000000000E+00 0.  1.
         21   -1    0    0  501  502 -0.00000000000E+00 -0.00000000000E+00 -0.29057728323E+03  0.29057728323E+03  0.00000000000E+00 0.  1.
      99926    2    1    2    0    0  0.00000000000E+00  0.14210854715E-13 -0.11088344079E+03  0.47027112568E+03  0.45701180970E+03 0.  0.
      99925    2    3    3    0    0 -0.17240965149E+02  0.11212914133E+03 -0.50232297521E+02  0.29083795011E+03  0.26304606877E+03 0.  0.
         25    1    4    4    0    0 -0.81552850697E+01  0.17958322250E+02 -0.16444517720E+01  0.12664605140E+03  0.12509000000E+03 0.  0.
         25    1    4    4    0    0 -0.90856800794E+01  0.94170819077E+02 -0.48587845749E+02  0.16419189871E+03  0.12509000000E+03 0.  0.
         25    1    3    3    0    0  0.17240965149E+02 -0.11212914133E+03 -0.60651143273E+02  0.17943317557E+03  0.12509000000E+03 0.  0.
<mgrwt>
<rscale>  2 0.45701181E+03</rscale>
<asrwt>0</asrwt>
<pdfrwt beam="1">  1       21 0.26425565E-01 0.45701181E+03</pdfrwt>
<pdfrwt beam="2">  1       21 0.42731954E-01 0.45701181E+03</pdfrwt>
<totfact> 0.66350401E+04</totfact>
</mgrwt>
</event>
<event>
 6    0  0.4737014E-002  0.4504051E+03  0.7546771E-02  0.1027601E+00
         21   -1    0    0  502  501  0.00000000000E+00  0.00000000000E+00  0.19149110224E+03  0.19149110224E+03  0.00000000000E+00 0. -1.
         21   -1    0    0  501  502 -0.00000000000E+00 -0.00000000000E+00 -0.26484883153E+03  0.26484883153E+03  0.00000000000E+00 0. -1.
      99926    2    1    2    0    0 -0.17763568394E-14 -0.14210854715E-13 -0.73357729291E+02  0.45633993377E+03  0.45040512731E+03 0.  0.
         25    1    3    3    0    0  0.14931530860E+02  0.45550111994E+02  0.52757283234E+01  0.13406380841E+03  0.12509000000E+03 0.  0.
         25    1    3    3    0    0 -0.86085648315E+01 -0.97512272403E+02  0.11812712505E+02  0.15927899715E+03  0.12509000000E+03 0.  0.
         25    1    3    3    0    0 -0.63229660285E+01  0.51962160409E+02 -0.90446170119E+02  0.16299712820E+03  0.12509000000E+03 0.  0.
<mgrwt>
<rscale>  2 0.45040513E+03</rscale>
<asrwt>0</asrwt>
<pdfrwt beam="1">  1       21 0.28160456E-01 0.45040513E+03</pdfrwt>
<pdfrwt beam="2">  1       21 0.38948358E-01 0.45040513E+03</pdfrwt>
<totfact> 0.71014729E+04</totfact>
</mgrwt>
</event>
<event>
 7    0  0.4737014E-002  0.4548269E+03  0.7546771E-02  0.1026292E+00
         21   -1    0    0  502  501  0.00000000000E+00  0.00000000000E+00  0.58288215685E+03  0.58288215685E+03  0.00000000000E+00 0. -1.
         21   -1    0    0  501  502 -0.00000000000E+00 -0.00000000000E+00 -0.88726110903E+02  0.88726110903E+02  0.00000000000E+00 0. -1.
      99926    2    1    2    0    0  0.00000000000E+00 -0.14210854715E-13  0.49415604595E+03  0.67160826775E+03  0.45482685449E+03 0.  0.
      99925    2    3    3    0    0 -0.64435765067E+02  0.92380564475E+02  0.32513870180E+03  0.43306999570E+03  0.26296066104E+03 0.  0.
         25    1    4    4    0    0 -0.29327350291E+02  0.75229541582E+02  0.12798693252E+03  0.19633578481E+03  0.12509000000E+03 0.  0.
         25    1    3    3    0    0  0.64435765067E+02 -0.92380564475E+02  0.16901734415E+03  0.23853827206E+03  0.12509000000E+03 0.  0.
         25    1    4    4    0    0 -0.35108414775E+02  0.17151022893E+02  0.19715176927E+03  0.23673421088E+03  0.12509000000E+03 0.  0.
<mgrwt>
<rscale>  2 0.45482685E+03</rscale>
<asrwt>0</asrwt>
<pdfrwt beam="1">  1       21 0.85717962E-01 0.45482685E+03</pdfrwt>
<pdfrwt beam="2">  1       21 0.13047958E-01 0.45482685E+03</pdfrwt>
<totfact> 0.54546300E+04</totfact>
</mgrwt>
</event>
<event>
 7    0  0.4737014E-002  0.4504707E+03  0.7546771E-02  0.1027582E+00
         21   -1    0    0  502  501  0.00000000000E+00  0.00000000000E+00  0.82938369291E+02  0.82938369291E+02  0.00000000000E+00 0. -1.
         21   -1    0    0  501  502 -0.00000000000E+00 -0.00000000000E+00 -0.61167055554E+03  0.61167055554E+03  0.00000000000E+00 0. -1.
      99926    2    1    2    0    0  0.00000000000E+00  0.88817841970E-15 -0.52873218624E+03  0.69460892483E+03  0.45047068015E+03 0.  0.
      99925    2    3    3    0    0  0.79245841917E+02  0.64198892140E+01 -0.21935234716E+03  0.35155716289E+03  0.26297503329E+03 0.  0.
         25    1    3    3    0    0 -0.79245841917E+02 -0.64198892140E+01 -0.30937983908E+03  0.34305176194E+03  0.12509000000E+03 0.  0.
         25    1    4    4    0    0  0.37849219071E+02  0.41532704965E+01 -0.16106991425E+03  0.20746286033E+03  0.12509000000E+03 0.  0.
         25    1    4    4    0    0  0.41396622847E+02  0.22666187176E+01 -0.58282432915E+02  0.14409430256E+03  0.12509000000E+03 0.  0.
<mgrwt>
<rscale>  2 0.45047068E+03</rscale>
<asrwt>0</asrwt>
<pdfrwt beam="1">  1       21 0.12196819E-01 0.45047068E+03</pdfrwt>
<pdfrwt beam="2">  1       21 0.89951552E-01 0.45047068E+03</pdfrwt>
<totfact> 0.55136120E+04</totfact>
</mgrwt>
</event>
<event>
 7    0  0.4737014E-002  0.4566120E+03  0.7546771E-02  0.1025768E+00
         21   -1    0    0  502  501  0.00000000000E+00  0.00000000000E+00  0.61823654884E+02  0.61823654884E+02  0.00000000000E+00 0.  1.
         21   -1    0    0  501  502 -0.00000000000E+00 -0.00000000000E+00 -0.84310154239E+03  0.84310154239E+03  0.00000000000E+00 0.  1.
      99926    2    1    2    0    0  0.88817841970E-15  0.00000000000E+00 -0.78127788751E+03  0.90492519727E+03  0.45661195249E+03 0.  0.
      99925    2    3    3    0    0 -0.37083850150E+01 -0.32821162166E+02 -0.27339248920E+03  0.38082018230E+03  0.26303911742E+03 0.  0.
         25    1    4    4    0    0 -0.23806262223E+02 -0.24589284691E+02 -0.90352646761E+02  0.15805846994E+03  0.12509000000E+03 0.  0.
         25    1    3    3    0    0  0.37083850150E+01  0.32821162166E+02 -0.50788539831E+03  0.52410501497E+03  0.12509000000E+03 0.  0.
         25    1    4    4    0    0  0.20097877208E+02 -0.82318774742E+01 -0.18303984244E+03  0.22276171236E+03  0.12509000000E+03 0.  0.
<mgrwt>
<rscale>  2 0.45661195E+03</rscale>
<asrwt>0</asrwt>
<pdfrwt beam="1">  1       21 0.90917147E-02 0.45661195E+03</pdfrwt>
<pdfrwt beam="2">  1       21 0.12398551E+00 0.45661195E+03</pdfrwt>
<totfact> 0.42482774E+04</totfact>
</mgrwt>
</event>
<event>
 7    0  0.4737014E-002  0.4538148E+03  0.7546771E-02  0.1026590E+00
         21   -1    0    0  502  501  0.00000000000E+00  0.00000000000E+00  0.93089150054E+03  0.93089150054E+03  0.00000000000E+00 0. -1.
         21   -1    0    0  501  502 -0.00000000000E+00 -0.00000000000E+00 -0.55309318030E+02  0.55309318030E+02  0.00000000000E+00 0. -1.
      99926    2    1    2    0    0  0.00000000000E+00  0.00000000000E+00  0.87558218251E+03  0.98620081857E+03  0.45381482591E+03 0.  0.
      99925    2    3    3    0    0 -0.13091549696E+02 -0.63354312377E+02  0.35317689561E+03  0.44514633938E+03  0.26312769961E+03 0.  0.
         25    1    4    4    0    0 -0.32430704098E+02 -0.90681564020E+01  0.13471775301E+03  0.18689666424E+03  0.12509000000E+03 0.  0.
         25    1    3    3    0    0  0.13091549696E+02  0.63354312377E+02  0.52240528690E+03  0.54105447919E+03  0.12509000000E+03 0.  0.
         25    1    4    4    0    0  0.19339154402E+02 -0.54286155975E+02  0.21845914260E+03  0.25824967514E+03  0.12509000000E+03 0.  0.
<mgrwt>
<rscale>  2 0.45381483E+03</rscale>
<asrwt>0</asrwt>
<pdfrwt beam="1">  1       21 0.13689580E+00 0.45381483E+03</pdfrwt>
<pdfrwt beam="2">  1       21 0.81337238E-02 0.45381483E+03</pdfrwt>
<totfact> 0.40077465E+04</totfact>
</mgrwt>
</event>
