<event>
 6    0  0.3219609E-005  0.4633777E+03  0.7546771E-02  0.1023806E+00
         21   -1    0    0  502  501  0.00000000000E+00  0.00000000000E+00  0.31401358867E+03  0.31401358867E+03  0.00000000000E+00 0. -1.
         21   -1    0    0  501  502 -0.00000000000E+00 -0.00000000000E+00 -0.17094712822E+03  0.17094712822E+03  0.00000000000E+00 0. -1.
      99925    2    1    2    0    0  0.43427965100E+02 -0.79182529821E+02  0.42310163392E+01  0.27740674844E+03  0.26226082704E+03 0.  0.
         25    1    3    3    0    0  0.43971344082E+02 -0.36658522081E+02  0.34574102514E+02  0.14184570140E+03  0.12509000000E+03 0.  0.
         25    1    1    2    0    0 -0.43427965100E+02  0.79182529821E+02  0.13883544410E+03  0.20755396845E+03  0.12509000000E+03 0.  0.
         25    1    3    3    0    0 -0.54337898201E+00 -0.42524007741E+02 -0.30343086174E+02  0.13556104704E+03  0.12509000000E+03 0.  0.
<mgrwt>
<rscale>  2 0.46337769E+03</rscale>
<asrwt>0</asrwt>
<pdfrwt beam="1">  1       21 0.46178469E-01 0.46337769E+03</pdfrwt>
<pdfrwt beam="2">  1       21 0.25139284E-01 0.46337769E+03</pdfrwt>
<totfact> 0.62106903E+04</totfact>
</mgrwt>
</event>
<event>
 5    0  0.3219609E-005  0.4046872E+03  0.7546771E-02  0.1042169E+00
         21   -1    0    0  502  501  0.00000000000E+00  0.00000000000E+00  0.89062395829E+02  0.89062395829E+02  0.00000000000E+00 0. -1.
         21   -1    0    0  501  502 -0.00000000000E+00 -0.00000000000E+00 -0.45971065432E+03  0.45971065432E+03  0.00000000000E+00 0. -1.
         25    1    1    2    0    0 -0.27861456935E+02 -0.45082234677E+02 -0.15415642107E+03  0.20547598137E+03  0.12509000000E+03 0.  0.
         25    1    1    2    0    0  0.22636985299E+02 -0.13609308266E+02 -0.11224773709E+03  0.17013144611E+03  0.12509000000E+03 0.  0.
         25    1    1    2    0    0  0.52244716360E+01  0.58691542943E+02 -0.10424410034E+03  0.17316562266E+03  0.12509000000E+03 0.  0.
<mgrwt>
<rscale>  2 0.40468720E+03</rscale>
<asrwt>0</asrwt>
<pdfrwt beam="1">  1       21 0.13097411E-01 0.40468720E+03</pdfrwt>
<pdfrwt beam="2">  1       21 0.67604508E-01 0.40468720E+03</pdfrwt>
<totfact> 0.94215883E+04</totfact>
</mgrwt>
</event>
<event>
 6    0  0.3219609E-005  0.4404164E+03  0.7546771E-02  0.1030619E+00
         21   -1    0    0  502  501  0.00000000000E+00  0.00000000000E+00  0.31336653501E+03  0.31336653501E+03  0.00000000000E+00 0.  1.
         21   -1    0    0  501  502 -0.00000000000E+00 -0.00000000000E+00 -0.15474419589E+03  0.15474419589E+03  0.00000000000E+00 0.  1.
      99925    2    1    2    0    0 -0.83970198530E+02 -0.25672988198E+02  0.14658380023E+03  0.31480537847E+03  0.26439651900E+03 0.  0.
         25    1    1    2    0    0  0.83970198530E+02  0.25672988198E+02  0.12038538879E+02  0.15330535243E+03  0.12509000000E+03 0.  0.
         25    1    3    3    0    0 -0.33998524328E+02  0.19175855321E+01  0.26656908452E+02  0.13235435640E+03  0.12509000000E+03 0.  0.
         25    1    3    3    0    0 -0.49971674202E+02 -0.27590573730E+02  0.11992689178E+03  0.18245102207E+03  0.12509000000E+03 0.  0.
<mgrwt>
<rscale>  2 0.44041641E+03</rscale>
<asrwt>0</asrwt>
<pdfrwt beam="1">  1       21 0.46083314E-01 0.44041641E+03</pdfrwt>
<pdfrwt beam="2">  1       21 0.22756499E-01 0.44041641E+03</pdfrwt>
<totfact> 0.75998726E+04</totfact>
</mgrwt>
</event>
<event>
 6    0  0.3219609E-005  0.4238624E+03  0.7546771E-02  0.1035817E+00
         21   -1    0    0  502  501  0.00000000000E+00  0.00000000000E+00  0.73622928698E+03  0.73622928698E+03  0.00000000000E+00 0. -1.
         21   -1    0    0  501  502 -0.00000000000E+00 -0.00000000000E+00 -0.61006583825E+02  0.61006583825E+02  0.00000000000E+00 0. -1.
      99925    2    1    2    0    0 -0.60343663982E+02  0.42932905545E+02  0.49448556311E+03  0.56529188177E+03  0.26373158192E+03 0.  0.
         25    1    3    3    0    0 -0.68696611612E+02  0.60703235045E+01  0.27375431205E+03  0.30877986453E+03  0.12509000000E+03 0.  0.
         25    1    3    3    0    0  0.83529476298E+01  0.36862582041E+02  0.22073125107E+03  0.25651201724E+03  0.12509000000E+03 0.  0.
         25    1    1    2    0    0  0.60343663982E+02 -0.42932905545E+02  0.18073714004E+03  0.23194398904E+03  0.12509000000E+03 0.  0.
<mgrwt>
<rscale>  2 0.42386240E+03</rscale>
<asrwt>0</asrwt>
<pdfrwt beam="1">  1       21 0.10826901E+00 0.42386240E+03</pdfrwt>
<pdfrwt beam="2">  1       21 0.89715569E-02 0.42386240E+03</pdfrwt>
<totfact> 0.61636751E+04</totfact>
</mgrwt>
</event>
<event>
 6    0  0.3219609E-005  0.4070013E+03  0.7546771E-02  0.1041382E+00
         21   -1    0    0  502  501  0.00000000000E+00  0.00000000000E+00  0.18192305496E+04  0.18192305496E+04  0.00000000000E+00 0. -1.
         21   -1    0    0  501  502 -0.00000000000E+00 -0.00000000000E+00 -0.22763752388E+02  0.22763752388E+02  0.00000000000E+00 0. -1.
      99925    2    1    2    0    0 -0.27525700474E+02 -0.45225929834E+02  0.10984962870E+04  0.11309293330E+04  0.26363614081E+03 0.  0.
         25    1    1    2    0    0  0.27525700474E+02  0.45225929834E+02  0.69797051026E+03  0.71106496905E+03  0.12509000000E+03 0.  0.
         25    1    3    3    0    0  0.10733570452E+02  0.68466695570E+00  0.62830385327E+03  0.64072530654E+03  0.12509000000E+03 0.  0.
         25    1    3    3    0    0 -0.38259270926E+02 -0.45910596789E+02  0.47019243371E+03  0.49020402643E+03  0.12509000000E+03 0.  0.
<mgrwt>
<rscale>  2 0.40700130E+03</rscale>
<asrwt>0</asrwt>
<pdfrwt beam="1">  1       21 0.26753380E+00 0.40700130E+03</pdfrwt>
<pdfrwt beam="2">  1       21 0.33476119E-02 0.40700130E+03</pdfrwt>
<totfact> 0.24353381E+04</totfact>
</mgrwt>
</event>
<event>
 5    0  0.3219609E-005  0.6179833E+03  0.7546771E-02  0.9868783E-01
         21   -1    0    0  502  501  0.00000000000E+00  0.00000000000E+00  0.22541152821E+03  0.22541152821E+03  0.00000000000E+00 0. -1.
         21   -1    0    0  501  502 -0.00000000000E+00 -0.00000000000E+00 -0.42356230605E+03  0.42356230605E+03  0.00000000000E+00 0. -1.
         25    1    1    2    0    0 -0.16767259465E+03  0.23808173481E+02  0.43959215131E+02  0.21508335318E+03  0.12509000000E+03 0.  0.
         25    1    1    2    0    0  0.15707565816E+03 -0.45721261234E+02 -0.65500634599E+02  0.21610422797E+03  0.12509000000E+03 0.  0.
         25    1    1    2    0    0  0.10596936491E+02  0.21913087753E+02 -0.17660935838E+03  0.21778625311E+03  0.12509000000E+03 0.  0.
<mgrwt>
<rscale>  2 0.61798326E+03</rscale>
<asrwt>0</asrwt>
<pdfrwt beam="1">  1       21 0.33148754E-01 0.61798326E+03</pdfrwt>
<pdfrwt beam="2">  1       21 0.62288574E-01 0.61798326E+03</pdfrwt>
<totfact> 0.18230561E+04</totfact>
</mgrwt>
</event>
<event>
 5    0  0.3219609E-005  0.4692311E+03  0.7546771E-02  0.1022137E+00
         21   -1    0    0  502  501  0.00000000000E+00  0.00000000000E+00  0.43867131112E+03  0.43867131112E+03  0.00000000000E+00 0. -1.
         21   -1    0    0  501  502 -0.00000000000E+00 -0.00000000000E+00 -0.12547994159E+03  0.12547994159E+03  0.00000000000E+00 0. -1.
         25    1    1    2    0    0 -0.34999288660E+02  0.55156098857E+02  0.10955282679E+03  0.17865182732E+03  0.12509000000E+03 0.  0.
         25    1    1    2    0    0  0.55703655708E+02 -0.10245173652E+03  0.44715365842E+02  0.17676602507E+03  0.12509000000E+03 0.  0.
         25    1    1    2    0    0 -0.20704367049E+02  0.47295637661E+02  0.15892317689E+03  0.20873340032E+03  0.12509000000E+03 0.  0.
<mgrwt>
<rscale>  2 0.46923108E+03</rscale>
<asrwt>0</asrwt>
<pdfrwt beam="1">  1       21 0.64510487E-01 0.46923108E+03</pdfrwt>
<pdfrwt beam="2">  1       21 0.18452933E-01 0.46923108E+03</pdfrwt>
<totfact> 0.54538032E+04</totfact>
</mgrwt>
</event>
<event>
 6    0  0.3219609E-005  0.3980292E+03  0.7546771E-02  0.1044464E+00
         21   -1    0    0  502  501  0.00000000000E+00  0.00000000000E+00  0.16249112357E+03  0.16249112357E+03  0.00000000000E+00 0. -1.
         21   -1    0    0  501  502 -0.00000000000E+00 -0.00000000000E+00 -0.24374756630E+03  0.24374756630E+03  0.00000000000E+00 0. -1.
      99925    2    1    2    0    0  0.23301651745E+02 -0.36473042002E+02 -0.49117900528E+02  0.27002692914E+03  0.26197084674E+03 0.  0.
         25    1    3    3    0    0  0.30997756619E+02 -0.39642232717E+02 -0.52297922814E+02  0.14462001369E+03  0.12509000000E+03 0.  0.
         25    1    3    3    0    0 -0.76961048739E+01  0.31691907153E+01  0.31800222857E+01  0.12540691545E+03  0.12509000000E+03 0.  0.
         25    1    1    2    0    0 -0.23301651745E+02  0.36473042002E+02 -0.32138542201E+02  0.13621176073E+03  0.12509000000E+03 0.  0.
<mgrwt>
<rscale>  2 0.39802922E+03</rscale>
<asrwt>0</asrwt>
<pdfrwt beam="1">  1       21 0.23895754E-01 0.39802922E+03</pdfrwt>
<pdfrwt beam="2">  1       21 0.35845230E-01 0.39802922E+03</pdfrwt>
<totfact> 0.11709532E+05</totfact>
</mgrwt>
</event>
<event>
 6    0  0.3219609E-005  0.3997114E+03  0.7546771E-02  0.1043880E+00
         21   -1    0    0  502  501  0.00000000000E+00  0.00000000000E+00  0.18632874452E+03  0.18632874452E+03  0.00000000000E+00 0.  1.
         21   -1    0    0  501  502 -0.00000000000E+00 -0.00000000000E+00 -0.21436462720E+03  0.21436462720E+03  0.00000000000E+00 0.  1.
      99925    2    1    2    0    0 -0.30801526081E+02  0.24423328710E+02 -0.37058706049E+01  0.26733411789E+03  0.26440227706E+03 0.  0.
         25    1    1    2    0    0  0.30801526081E+02 -0.24423328710E+02 -0.24330012078E+02  0.13335925383E+03  0.12509000000E+03 0.  0.
         25    1    3    3    0    0 -0.36147949276E+02  0.50071409865E+02 -0.21514206682E+01  0.13952045382E+03  0.12509000000E+03 0.  0.
         25    1    3    3    0    0  0.53464231955E+01 -0.25648081155E+02 -0.15544499367E+01  0.12781366407E+03  0.12509000000E+03 0.  0.
<mgrwt>
<rscale>  2 0.39971136E+03</rscale>
<asrwt>0</asrwt>
<pdfrwt beam="1">  1       21 0.27401286E-01 0.39971136E+03</pdfrwt>
<pdfrwt beam="2">  1       21 0.31524210E-01 0.39971136E+03</pdfrwt>
<totfact> 0.11608458E+05</totfact>
</mgrwt>
</event>
<event>
 6    0  0.3219609E-005  0.9027785E+03  0.7546771E-02  0.9422115E-01
         21   -1    0    0  502  501  0.00000000000E+00  0.00000000000E+00  0.17951247698E+03  0.17951247698E+03  0.00000000000E+00 0. -1.
         21   -1    0    0  501  502 -0.00000000000E+00 -0.00000000000E+00 -0.11350311341E+04  0.11350311341E+04  0.00000000000E+00 0.  1.
      99925    2    1    2    0    0  0.11997632189E+03 -0.34384697157E+03 -0.75833488917E+03  0.88193061530E+03  0.26477301300E+03 0.  0.
         25    1    3    3    0    0  0.66877179407E+02 -0.20708241946E+03 -0.35372362206E+03  0.43373216906E+03  0.12509000000E+03 0.  0.
         25    1    1    2    0    0 -0.11997632189E+03  0.34384697157E+03 -0.19718376797E+03  0.43261299578E+03  0.12509000000E+03 0.  0.
         25    1    3    3    0    0  0.53099142482E+02 -0.13676455211E+03 -0.40461126711E+03  0.44819844624E+03  0.12509000000E+03 0.  0.
<mgrwt>
<rscale>  2 0.90277849E+03</rscale>
<asrwt>0</asrwt>
<pdfrwt beam="1">  1       21 0.26398894E-01 0.90277849E+03</pdfrwt>
<pdfrwt beam="2">  1       21 0.16691634E+00 0.90277849E+03</pdfrwt>
<totfact> 0.23270868E+03</totfact>
</mgrwt>
</event>
<event>
 6    0  0.3219609E-005  0.4066488E+03  0.7546771E-02  0.1041501E+00
         21   -1    0    0  502  501  0.00000000000E+00  0.00000000000E+00  0.24183065612E+03  0.24183065612E+03  0.00000000000E+00 0.  1.
         21   -1    0    0  501  502 -0.00000000000E+00 -0.00000000000E+00 -0.17094945827E+03  0.17094945827E+03  0.00000000000E+00 0.  1.
      99925    2    1    2    0    0 -0.11614109306E+02  0.45755335249E+02  0.75753727589E+02  0.27899039922E+03  0.26432664901E+03 0.  0.
         25    1    1    2    0    0  0.11614109306E+02 -0.45755335249E+02 -0.48725297389E+01  0.13378971517E+03  0.12509000000E+03 0.  0.
         25    1    3    3    0    0 -0.15853449351E+02  0.38269168573E+02 -0.13834511099E+01  0.13177740002E+03  0.12509000000E+03 0.  0.
         25    1    3    3    0    0  0.42393400447E+01  0.74861666763E+01  0.77137178699E+02  0.14721299920E+03  0.12509000000E+03 0.  0.
<mgrwt>
<rscale>  2 0.40664884E+03</rscale>
<asrwt>0</asrwt>
<pdfrwt beam="1">  1       21 0.35563332E-01 0.40664884E+03</pdfrwt>
<pdfrwt beam="2">  1       21 0.25139626E-01 0.40664884E+03</pdfrwt>
<totfact> 0.10765610E+05</totfact>
</mgrwt>
</event>
<event>
 6    0  0.3219609E-005  0.4177008E+03  0.7546771E-02  0.1037817E+00
         21   -1    0    0  502  501  0.00000000000E+00  0.00000000000E+00  0.39580178375E+03  0.39580178375E+03  0.00000000000E+00 0. -1.
         21   -1    0    0  501  502 -0.00000000000E+00 -0.00000000000E+00 -0.11020283886E+03  0.11020283886E+03  0.00000000000E+00 0. -1.
      99925    2    1    2    0    0 -0.15927543953E+02  0.67506828732E+02  0.20997201539E+03  0.34420907524E+03  0.26378169316E+03 0.  0.
         25    1    3    3    0    0 -0.24472002101E+02 -0.14255063811E+01  0.12079472991E+03  0.17561260157E+03  0.12509000000E+03 0.  0.
         25    1    1    2    0    0  0.15927543953E+02 -0.67506828732E+02  0.75626929497E+02  0.16179554736E+03  0.12509000000E+03 0.  0.
         25    1    3    3    0    0  0.85444581480E+01  0.68932335113E+02  0.89177285479E+02  0.16859647367E+03  0.12509000000E+03 0.  0.
<mgrwt>
<rscale>  2 0.41770076E+03</rscale>
<asrwt>0</asrwt>
<pdfrwt beam="1">  1       21 0.58206144E-01 0.41770076E+03</pdfrwt>
<pdfrwt beam="2">  1       21 0.16206300E-01 0.41770076E+03</pdfrwt>
<totfact> 0.88174051E+04</totfact>
</mgrwt>
</event>
<event>
 6    0  0.3219609E-005  0.4057840E+03  0.7546771E-02  0.1041795E+00
         21   -1    0    0  502  501  0.00000000000E+00  0.00000000000E+00  0.11769291845E+02  0.11769291845E+02  0.00000000000E+00 0.  1.
         21   -1    0    0  501  502 -0.00000000000E+00 -0.00000000000E+00 -0.34976751631E+04  0.34976751631E+04  0.00000000000E+00 0.  1.
      99925    2    1    2    0    0  0.50714405136E+02 -0.13384501154E+02 -0.22041025150E+04  0.22204842352E+04  0.26406674646E+03 0.  0.
         25    1    3    3    0    0 -0.70612282462E+01  0.17755120072E+02 -0.11558789868E+04  0.11627849524E+04  0.12509000000E+03 0.  0.
         25    1    1    2    0    0 -0.50714405136E+02  0.13384501154E+02 -0.12818033563E+04  0.12889602197E+04  0.12509000000E+03 0.  0.
         25    1    3    3    0    0  0.57775633382E+02 -0.31139621227E+02 -0.10482235281E+04  0.10576992828E+04  0.12509000000E+03 0.  0.
<mgrwt>
<rscale>  2 0.40578398E+03</rscale>
<asrwt>0</asrwt>
<pdfrwt beam="1">  1       21 0.17307753E-02 0.40578398E+03</pdfrwt>
<pdfrwt beam="2">  1       21 0.51436486E+00 0.40578398E+03</pdfrwt>
<totfact> 0.18902933E+03</totfact>
</mgrwt>
</event>
<event>
 5    0  0.3219609E-005  0.6177665E+03  0.7546771E-02  0.9869217E-01
         21   -1    0    0  502  501  0.00000000000E+00  0.00000000000E+00  0.60640062905E+03  0.60640062905E+03  0.00000000000E+00 0. -1.
         21   -1    0    0  501  502 -0.00000000000E+00 -0.00000000000E+00 -0.15733632774E+03  0.15733632774E+03  0.00000000000E+00 0.  1.
         25    1    1    2    0    0 -0.14271401186E+03 -0.59890611118E+02  0.16464801028E+03  0.25828404881E+03  0.12509000000E+03 0.  0.
         25    1    1    2    0    0 -0.35674320661E+02 -0.37011010645E+02  0.22035186688E+03  0.25854385585E+03  0.12509000000E+03 0.  0.
         25    1    1    2    0    0  0.17838833252E+03  0.96901621763E+02  0.64064424160E+02  0.24690905213E+03  0.12509000000E+03 0.  0.
<mgrwt>
<rscale>  2 0.61776645E+03</rscale>
<asrwt>0</asrwt>
<pdfrwt beam="1">  1       21 0.89176562E-01 0.61776645E+03</pdfrwt>
<pdfrwt beam="2">  1       21 0.23137695E-01 0.61776645E+03</pdfrwt>
<totfact> 0.16301550E+04</totfact>
</mgrwt>
</event>
