<event>
 7    0  0.4737014E-002  0.4576430E+03  0.7546771E-02  0.1025467E+00
         21   -1    0    0  502  501  0.00000000000E+00  0.00000000000E+00  0.28017211178E+03  0.28017211178E+03  0.00000000000E+00 0. -1.
         21   -1    0    0  501  502 -0.00000000000E+00 -0.00000000000E+00 -0.18688259074E+03  0.18688259074E+03  0.00000000000E+00 0. -1.
      99926    2    1    2    0    0  0.00000000000E+00  0.00000000000E+00  0.93289521033E+02  0.46705470252E+03  0.45764304912E+03 0.  0.
      99925    2    3    3    0    0 -0.59033302223E+01  0.11377204465E+03  0.38446587654E+02  0.28919469326E+03  0.26301426398E+03 0.  0.
         25    1    4    4    0    0 -0.54468704845E+01  0.72517289737E+02  0.58285646343E+02  0.15599086633E+03  0.12509000000E+03 0.  0.
         25    1    3    3    0    0  0.59033302223E+01 -0.11377204465E+03  0.54842933379E+02  0.17786000926E+03  0.12509000000E+03 0.  0.
         25    1    4    4    0    0 -0.45645973783E+00  0.41254754917E+02 -0.19839058689E+02  0.13320382693E+03  0.12509000000E+03 0.  0.
<mgrwt>
<rscale>  2 0.45764305E+03</rscale>
<asrwt>0</asrwt>
<pdfrwt beam="1">  1       21 0.41201781E-01 0.45764305E+03</pdfrwt>
<pdfrwt beam="2">  1       21 0.27482734E-01 0.45764305E+03</pdfrwt>
<totfact> 0.66255012E+04</totfact>
</mgrwt>
</event>
<event>
 7    0  0.4737014E-002  0.4535596E+03  0.7546771E-02  0.1026666E+00
         21   -1    0    0  502  501  0.00000000000E+00  0.00000000000E+00  0.30161405760E+03  0.30161405760E+03  0.00000000000E+00 0. -1.
         21   -1    0    0  501  502 -0.00000000000E+00 -0.00000000000E+00 -0.17051285379E+03  0.17051285379E+03  0.00000000000E+00 0. -1.
      99926    2    1    2    0    0 -0.14210854715E-13 -0.88817841970E-15  0.13110120381E+03  0.47212691139E+03  0.45355958244E+03 0.  0.
      99925    2    3    3    0    0 -0.93926540179E+02 -0.53154884829E+01  0.19757754293E+02  0.28004536304E+03  0.26302963167E+03 0.  0.
         25    1    4    4    0    0 -0.13336319427E+02  0.40143622797E+01 -0.15569142529E+02  0.12682223314E+03  0.12509000000E+03 0.  0.
         25    1    3    3    0    0  0.93926540179E+02  0.53154884829E+01  0.11134344952E+03  0.19208154836E+03  0.12509000000E+03 0.  0.
         25    1    4    4    0    0 -0.80590220752E+02 -0.93298507626E+01  0.35326896823E+02  0.15322312990E+03  0.12509000000E+03 0.  0.
<mgrwt>
<rscale>  2 0.45355958E+03</rscale>
<asrwt>0</asrwt>
<pdfrwt beam="1">  1       21 0.44355009E-01 0.45355958E+03</pdfrwt>
<pdfrwt beam="2">  1       21 0.25075420E-01 0.45355958E+03</pdfrwt>
<totfact> 0.68052357E+04</totfact>
</mgrwt>
</event>
<event>
 7    0  0.4737014E-002  0.4569680E+03  0.7546771E-02  0.1025664E+00
         21   -1    0    0  502  501  0.00000000000E+00  0.00000000000E+00  0.13427280910E+04  0.13427280910E+04  0.00000000000E+00 0. -1.
         21   -1    0    0  501  502 -0.00000000000E+00 -0.00000000000E+00 -0.38879758064E+02  0.38879758064E+02  0.00000000000E+00 0. -1.
      99926    2    1    2    0    0  0.00000000000E+00  0.00000000000E+00  0.13038483330E+04  0.13816078491E+04  0.45696802219E+03 0.  0.
      99925    2    3    3    0    0  0.54800691794E+02 -0.77999006701E+02  0.62432377583E+03  0.68412086519E+03  0.26297190012E+03 0.  0.
         25    1    4    4    0    0  0.44355091227E+02 -0.61606031475E+02  0.25885269860E+03  0.29734643920E+03  0.12509000000E+03 0.  0.
         25    1    4    4    0    0  0.10445600566E+02 -0.16392975227E+02  0.36547107722E+03  0.38677442598E+03  0.12509000000E+03 0.  0.
         25    1    3    3    0    0 -0.54800691794E+02  0.77999006701E+02  0.67952455713E+03  0.69748698390E+03  0.12509000000E+03 0.  0.
<mgrwt>
<rscale>  2 0.45696802E+03</rscale>
<asrwt>0</asrwt>
<pdfrwt beam="1">  1       21 0.19745998E+00 0.45696802E+03</pdfrwt>
<pdfrwt beam="2">  1       21 0.57176124E-02 0.45696802E+03</pdfrwt>
<totfact> 0.26419863E+04</totfact>
</mgrwt>
</event>
<event>
 7    0  0.4737014E-002  0.4552760E+03  0.7546771E-02  0.1026160E+00
         21   -1    0    0  502  501  0.00000000000E+00  0.00000000000E+00  0.89321345121E+03  0.89321345121E+03  0.00000000000E+00 0. -1.
         21   -1    0    0  501  502 -0.00000000000E+00 -0.00000000000E+00 -0.58014201923E+02  0.58014201923E+02  0.00000000000E+00 0. -1.
      99926    2    1    2    0    0  0.00000000000E+00  0.00000000000E+00  0.83519924929E+03  0.95122765314E+03  0.45527602845E+03 0.  0.
      99925    2    3    3    0    0  0.38118226191E+02 -0.10633031622E+03  0.54618330851E+03  0.61665799306E+03  0.26304322573E+03 0.  0.
         25    1    4    4    0    0  0.11081237417E+00 -0.80035964565E+02  0.34117149162E+03  0.37209039587E+03  0.12509000000E+03 0.  0.
         25    1    3    3    0    0 -0.38118226191E+02  0.10633031622E+03  0.28901594078E+03  0.33456966007E+03  0.12509000000E+03 0.  0.
         25    1    4    4    0    0  0.38007413817E+02 -0.26294351655E+02  0.20501181689E+03  0.24456759720E+03  0.12509000000E+03 0.  0.
<mgrwt>
<rscale>  2 0.45527603E+03</rscale>
<asrwt>0</asrwt>
<pdfrwt beam="1">  1       21 0.13135491E+00 0.45527603E+03</pdfrwt>
<pdfrwt beam="2">  1       21 0.85315008E-02 0.45527603E+03</pdfrwt>
<totfact> 0.41002567E+04</totfact>
</mgrwt>
</event>
<event>
 7    0  0.4737014E-002  0.4580358E+03  0.7546771E-02  0.1025352E+00
         21   -1    0    0  502  501  0.00000000000E+00  0.00000000000E+00  0.13854640628E+04  0.13854640628E+04  0.00000000000E+00 0. -1.
         21   -1    0    0  501  502 -0.00000000000E+00 -0.00000000000E+00 -0.37856775510E+02  0.37856775510E+02  0.00000000000E+00 0. -1.
      99926    2    1    2    0    0 -0.95756735874E-15  0.00000000000E+00  0.13476072873E+04  0.14233208383E+04  0.45803581521E+03 0.  0.
      99925    2    3    3    0    0  0.37451008489E-01 -0.62676861594E+01  0.12054302927E+04  0.12338450056E+04  0.26319578643E+03 0.  0.
         25    1    4    4    0    0  0.25199994300E+02 -0.21965352202E+01  0.75344225105E+03  0.76417445538E+03  0.12509000000E+03 0.  0.
         25    1    3    3    0    0 -0.37451008489E-01  0.62676861594E+01  0.14217699461E+03  0.18947583273E+03  0.12509000000E+03 0.  0.
         25    1    4    4    0    0 -0.25162543291E+02 -0.40711509391E+01  0.45198804164E+03  0.46967055022E+03  0.12509000000E+03 0.  0.
<mgrwt>
<rscale>  2 0.45803582E+03</rscale>
<asrwt>0</asrwt>
<pdfrwt beam="1">  1       21 0.20374468E+00 0.45803582E+03</pdfrwt>
<pdfrwt beam="2">  1       21 0.55671738E-02 0.45803582E+03</pdfrwt>
<totfact> 0.25119344E+04</totfact>
</mgrwt>
</event>
<event>
 7    0  0.4737014E-002  0.4536859E+03  0.7546771E-02  0.1026629E+00
         21   -1    0    0  502  501  0.00000000000E+00  0.00000000000E+00  0.10011314250E+03  0.10011314250E+03  0.00000000000E+00 0.  1.
         21   -1    0    0  501  502 -0.00000000000E+00 -0.00000000000E+00 -0.51399564572E+03  0.51399564572E+03  0.00000000000E+00 0.  1.
      99926    2    1    2    0    0  0.00000000000E+00  0.00000000000E+00 -0.41388250321E+03  0.61410878822E+03  0.45368587955E+03 0.  0.
      99925    2    3    3    0    0  0.10584670423E+03  0.18090368920E+02 -0.30358737883E+03  0.41575731027E+03  0.26297919729E+03 0.  0.
         25    1    3    3    0    0 -0.10584670423E+03 -0.18090368920E+02 -0.11029512438E+03  0.19835147796E+03  0.12509000000E+03 0.  0.
         25    1    4    4    0    0  0.85234026346E+02  0.14575198953E+01 -0.20214312432E+03  0.25253972840E+03  0.12509000000E+03 0.  0.
         25    1    4    4    0    0  0.20612677887E+02  0.16632849025E+02 -0.10144425451E+03  0.16321758186E+03  0.12509000000E+03 0.  0.
<mgrwt>
<rscale>  2 0.45368588E+03</rscale>
<asrwt>0</asrwt>
<pdfrwt beam="1">  1       21 0.14722521E-01 0.45368588E+03</pdfrwt>
<pdfrwt beam="2">  1       21 0.75587595E-01 0.45368588E+03</pdfrwt>
<totfact> 0.58422127E+04</totfact>
</mgrwt>
</event>
<event>
 7    0  0.4737014E-002  0.4483189E+03  0.7546771E-02  0.1028225E+00
         21   -1    0    0  502  501  0.00000000000E+00  0.00000000000E+00  0.62607786856E+02  0.62607786856E+02  0.00000000000E+00 0. -1.
         21   -1    0    0  501  502 -0.00000000000E+00 -0.00000000000E+00 -0.80257538009E+03  0.80257538009E+03  0.00000000000E+00 0. -1.
      99926    2    1    2    0    0  0.00000000000E+00  0.00000000000E+00 -0.73996759323E+03  0.86518316695E+03  0.44831894152E+03 0.  0.
      99925    2    3    3    0    0  0.73010988007E+02 -0.67002334516E+02 -0.54543945601E+03  0.61357112138E+03  0.26295513614E+03 0.  0.
         25    1    4    4    0    0  0.68622363528E+02 -0.87780423111E+01 -0.27429727941E+03  0.30930985822E+03  0.12509000000E+03 0.  0.
         25    1    4    4    0    0  0.43886244790E+01 -0.58224292205E+02 -0.27114217660E+03  0.30426126316E+03  0.12509000000E+03 0.  0.
         25    1    3    3    0    0 -0.73010988007E+02  0.67002334516E+02 -0.19452813723E+03  0.25161204556E+03  0.12509000000E+03 0.  0.
<mgrwt>
<rscale>  2 0.44831894E+03</rscale>
<asrwt>0</asrwt>
<pdfrwt beam="1">  1       21 0.92070272E-02 0.44831894E+03</pdfrwt>
<pdfrwt beam="2">  1       21 0.11802579E+00 0.44831894E+03</pdfrwt>
<totfact> 0.47192137E+04</totfact>
</mgrwt>
</event>
<event>
 7    0  0.4737014E-002  0.4474973E+03  0.7546771E-02  0.1028471E+00
         21   -1    0    0  502  501  0.00000000000E+00  0.00000000000E+00  0.13329707511E+03  0.13329707511E+03  0.00000000000E+00 0.  1.
         21   -1    0    0  501  502 -0.00000000000E+00 -0.00000000000E+00 -0.37557806689E+03  0.37557806689E+03  0.00000000000E+00 0.  1.
      99926    2    1    2    0    0  0.00000000000E+00  0.00000000000E+00 -0.24228099178E+03  0.50887514199E+03  0.44749729738E+03 0.  0.
      99925    2    3    3    0    0 -0.74033791756E+02 -0.22277061303E+02 -0.23564388154E+03  0.36167178227E+03  0.26325115270E+03 0.  0.
         25    1    4    4    0    0 -0.96062496096E+01  0.39526308937E+01 -0.14706750609E+03  0.19335010413E+03  0.12509000000E+03 0.  0.
         25    1    4    4    0    0 -0.64427542146E+02 -0.26229692197E+02 -0.88576375459E+02  0.16832167813E+03  0.12509000000E+03 0.  0.
         25    1    3    3    0    0  0.74033791756E+02  0.22277061303E+02 -0.66371102369E+01  0.14720335973E+03  0.12509000000E+03 0.  0.
<mgrwt>
<rscale>  2 0.44749730E+03</rscale>
<asrwt>0</asrwt>
<pdfrwt beam="1">  1       21 0.19602511E-01 0.44749730E+03</pdfrwt>
<pdfrwt beam="2">  1       21 0.55232068E-01 0.44749730E+03</pdfrwt>
<totfact> 0.68648585E+04</totfact>
</mgrwt>
</event>
<event>
 7    0  0.4737014E-002  0.4447219E+03  0.7546771E-02  0.1029308E+00
         21   -1    0    0  502  501  0.00000000000E+00  0.00000000000E+00  0.23769684153E+03  0.23769684153E+03  0.00000000000E+00 0. -1.
         21   -1    0    0  501  502 -0.00000000000E+00 -0.00000000000E+00 -0.20801454726E+03  0.20801454726E+03  0.00000000000E+00 0. -1.
      99926    2    1    2    0    0 -0.35527136788E-14  0.00000000000E+00  0.29682294274E+02  0.44571138879E+03  0.44472193953E+03 0.  0.
      99925    2    3    3    0    0  0.11837669514E+02 -0.29805812353E+02 -0.79517391020E+02  0.27659428073E+03  0.26296932100E+03 0.  0.
         25    1    3    3    0    0 -0.11837669514E+02  0.29805812353E+02  0.10919968529E+03  0.16911710806E+03  0.12509000000E+03 0.  0.
         25    1    4    4    0    0  0.34182797929E+02 -0.16489210099E+02 -0.70477083103E+02  0.14850887201E+03  0.12509000000E+03 0.  0.
         25    1    4    4    0    0 -0.22345128415E+02 -0.13316602254E+02 -0.90403079164E+01  0.12808540872E+03  0.12509000000E+03 0.  0.
<mgrwt>
<rscale>  2 0.44472194E+03</rscale>
<asrwt>0</asrwt>
<pdfrwt beam="1">  1       21 0.34955418E-01 0.44472194E+03</pdfrwt>
<pdfrwt beam="2">  1       21 0.30590375E-01 0.44472194E+03</pdfrwt>
<totfact> 0.75213010E+04</totfact>
</mgrwt>
</event>
<event>
 7    0  0.4737014E-002  0.4505341E+03  0.7546771E-02  0.1027563E+00
         21   -1    0    0  502  501  0.00000000000E+00  0.00000000000E+00  0.96065671356E+02  0.96065671356E+02  0.00000000000E+00 0.  1.
         21   -1    0    0  501  502 -0.00000000000E+00 -0.00000000000E+00 -0.52823488797E+03  0.52823488797E+03  0.00000000000E+00 0.  1.
      99926    2    1    2    0    0  0.00000000000E+00  0.00000000000E+00 -0.43216921661E+03  0.62430055932E+03  0.45053407927E+03 0.  0.
      99925    2    3    3    0    0 -0.10004347349E+03  0.43026260799E+02 -0.27658906624E+03  0.39689641030E+03  0.26299295283E+03 0.  0.
         25    1    4    4    0    0 -0.99551051421E+01  0.34908962372E+02 -0.12950515987E+03  0.18367589473E+03  0.12509000000E+03 0.  0.
         25    1    4    4    0    0 -0.90088368345E+02  0.81172984271E+01 -0.14708390637E+03  0.21322051557E+03  0.12509000000E+03 0.  0.
         25    1    3    3    0    0  0.10004347349E+03 -0.43026260799E+02 -0.15558015037E+03  0.22740414903E+03  0.12509000000E+03 0.  0.
<mgrwt>
<rscale>  2 0.45053408E+03</rscale>
<asrwt>0</asrwt>
<pdfrwt beam="1">  1       21 0.14127305E-01 0.45053408E+03</pdfrwt>
<pdfrwt beam="2">  1       21 0.77681601E-01 0.45053408E+03</pdfrwt>
<totfact> 0.59269211E+04</totfact>
</mgrwt>
</event>
<event>
 7    0  0.4737014E-002  0.4540595E+03  0.7546771E-02  0.1026518E+00
         21   -1    0    0  502  501  0.00000000000E+00  0.00000000000E+00  0.11524542117E+03  0.11524542117E+03  0.00000000000E+00 0.  1.
         21   -1    0    0  501  502 -0.00000000000E+00 -0.00000000000E+00 -0.44724129188E+03  0.44724129188E+03  0.00000000000E+00 0.  1.
      99926    2    1    2    0    0  0.00000000000E+00  0.00000000000E+00 -0.33199587072E+03  0.56248671305E+03  0.45405951613E+03 0.  0.
      99925    2    3    3    0    0 -0.17658768545E+02  0.14269445879E+02 -0.34524358274E+03  0.43466473072E+03  0.26310615257E+03 0.  0.
         25    1    4    4    0    0 -0.16994597595E+02  0.19099998642E+02 -0.11149928134E+03  0.16950877303E+03  0.12509000000E+03 0.  0.
         25    1    4    4    0    0 -0.66417094970E+00 -0.48305527627E+01 -0.23374430140E+03  0.26515595769E+03  0.12509000000E+03 0.  0.
         25    1    3    3    0    0  0.17658768545E+02 -0.14269445879E+02  0.13247712020E+02  0.12782198233E+03  0.12509000000E+03 0.  0.
<mgrwt>
<rscale>  2 0.45405952E+03</rscale>
<asrwt>0</asrwt>
<pdfrwt beam="1">  1       21 0.16947856E-01 0.45405952E+03</pdfrwt>
<pdfrwt beam="2">  1       21 0.65770777E-01 0.45405952E+03</pdfrwt>
<totfact> 0.61505082E+04</totfact>
</mgrwt>
</event>
<event>
 7    0  0.4737014E-002  0.4515642E+03  0.7546771E-02  0.1027257E+00
         21   -1    0    0  502  501  0.00000000000E+00  0.00000000000E+00  0.20958857583E+04  0.20958857583E+04  0.00000000000E+00 0. -1.
         21   -1    0    0  501  502 -0.00000000000E+00 -0.00000000000E+00 -0.24322683203E+02  0.24322683203E+02  0.00000000000E+00 0. -1.
      99926    2    1    2    0    0  0.00000000000E+00  0.00000000000E+00  0.20715630751E+04  0.21202084415E+04  0.45156423830E+03 0.  0.
      99925    2    3    3    0    0 -0.10527254611E+03 -0.34047189764E+02  0.12609606305E+04  0.12925821059E+04  0.26173511177E+03 0.  0.
         25    1    4    4    0    0 -0.78126705604E+02  0.58011058431E+01  0.57477562372E+03  0.59342392998E+03  0.12509000000E+03 0.  0.
         25    1    3    3    0    0  0.10527254611E+03  0.34047189764E+02  0.81060244459E+03  0.82762633559E+03  0.12509000000E+03 0.  0.
         25    1    4    4    0    0 -0.27145840502E+02 -0.39848295607E+02  0.68618500679E+03  0.69915817593E+03  0.12509000000E+03 0.  0.
<mgrwt>
<rscale>  2 0.45156424E+03</rscale>
<asrwt>0</asrwt>
<pdfrwt beam="1">  1       21 0.30821837E+00 0.45156424E+03</pdfrwt>
<pdfrwt beam="2">  1       21 0.35768666E-02 0.45156424E+03</pdfrwt>
<totfact> 0.12166014E+04</totfact>
</mgrwt>
</event>
<event>
 7    0  0.4737014E-002  0.4532763E+03  0.7546771E-02  0.1026749E+00
         21   -1    0    0  502  501  0.00000000000E+00  0.00000000000E+00  0.41250292308E+02  0.41250292308E+02  0.00000000000E+00 0. -1.
         21   -1    0    0  501  502 -0.00000000000E+00 -0.00000000000E+00 -0.12451997299E+04  0.12451997299E+04  0.00000000000E+00 0. -1.
      99926    2    1    2    0    0  0.00000000000E+00  0.00000000000E+00 -0.12039494376E+04  0.12864500222E+04  0.45327630797E+03 0.  0.
      99925    2    3    3    0    0 -0.72381595174E+02  0.84554317584E+02 -0.73725143756E+03  0.79062438826E+03  0.26298044261E+03 0.  0.
         25    1    4    4    0    0 -0.47738079651E+02  0.83736223761E+02 -0.39515785198E+03  0.42554425798E+03  0.12509000000E+03 0.  0.
         25    1    3    3    0    0  0.72381595174E+02 -0.84554317584E+02 -0.46669800007E+03  0.49582563398E+03  0.12509000000E+03 0.  0.
         25    1    4    4    0    0 -0.24643515523E+02  0.81809382349E+00 -0.34209358558E+03  0.36508013029E+03  0.12509000000E+03 0.  0.
<mgrwt>
<rscale>  2 0.45327631E+03</rscale>
<asrwt>0</asrwt>
<pdfrwt beam="1">  1       21 0.60662195E-02 0.45327631E+03</pdfrwt>
<pdfrwt beam="2">  1       21 0.18311761E+00 0.45327631E+03</pdfrwt>
<totfact> 0.29909819E+04</totfact>
</mgrwt>
</event>
<event>
 7    0  0.4737014E-002  0.4591909E+03  0.7546771E-02  0.1025016E+00
         21   -1    0    0  502  501  0.00000000000E+00  0.00000000000E+00  0.16857441230E+03  0.16857441230E+03  0.00000000000E+00 0.  1.
         21   -1    0    0  501  502 -0.00000000000E+00 -0.00000000000E+00 -0.31270512050E+03  0.31270512050E+03  0.00000000000E+00 0.  1.
      99926    2    1    2    0    0  0.00000000000E+00  0.71054273576E-14 -0.14413070820E+03  0.48127953280E+03  0.45919094901E+03 0.  0.
      99925    2    3    3    0    0  0.69105498690E+02  0.62155442482E+02 -0.16003622145E+02  0.27952986797E+03  0.26313867483E+03 0.  0.
         25    1    3    3    0    0 -0.69105498690E+02 -0.62155442482E+02 -0.12812708605E+03  0.20174966483E+03  0.12509000000E+03 0.  0.
         25    1    4    4    0    0  0.29586941372E+01  0.53446156320E+02  0.53176293566E+01  0.13616545369E+03  0.12509000000E+03 0.  0.
         25    1    4    4    0    0  0.66146804552E+02  0.87092861625E+01 -0.21321251502E+02  0.14336441429E+03  0.12509000000E+03 0.  0.
<mgrwt>
<rscale>  2 0.45919095E+03</rscale>
<asrwt>0</asrwt>
<pdfrwt beam="1">  1       21 0.24790355E-01 0.45919095E+03</pdfrwt>
<pdfrwt beam="2">  1       21 0.45986047E-01 0.45919095E+03</pdfrwt>
<totfact> 0.64436818E+04</totfact>
</mgrwt>
</event>
<event>
 7    0  0.4737014E-002  0.4522908E+03  0.7546771E-02  0.1027041E+00
         21   -1    0    0  502  501  0.00000000000E+00  0.00000000000E+00  0.23149797190E+03  0.23149797190E+03  0.00000000000E+00 0.  1.
         21   -1    0    0  501  502 -0.00000000000E+00 -0.00000000000E+00 -0.22091662054E+03  0.22091662054E+03  0.00000000000E+00 0.  1.
      99926    2    1    2    0    0  0.00000000000E+00  0.00000000000E+00  0.10581351368E+02  0.45241459244E+03  0.45229083393E+03 0.  0.
      99925    2    3    3    0    0  0.99291501489E+02 -0.46627339001E+02  0.22147138876E+02  0.28563873522E+03  0.26280426231E+03 0.  0.
         25    1    3    3    0    0 -0.99291501489E+02  0.46627339001E+02 -0.11565787509E+02  0.16677585722E+03  0.12509000000E+03 0.  0.
         25    1    4    4    0    0  0.13472215564E+02 -0.42167294868E+02  0.17117914463E+02  0.13379130183E+03  0.12509000000E+03 0.  0.
         25    1    4    4    0    0  0.85819285926E+02 -0.44600441326E+01  0.50292244137E+01  0.15184743340E+03  0.12509000000E+03 0.  0.
<mgrwt>
<rscale>  2 0.45229083E+03</rscale>
<asrwt>0</asrwt>
<pdfrwt beam="1">  1       21 0.34043819E-01 0.45229083E+03</pdfrwt>
<pdfrwt beam="2">  1       21 0.32487738E-01 0.45229083E+03</pdfrwt>
<totfact> 0.70241748E+04</totfact>
</mgrwt>
</event>
<event>
 7    0  0.4737014E-002  0.4491835E+03  0.7546771E-02  0.1027966E+00
         21   -1    0    0  502  501  0.00000000000E+00  0.00000000000E+00  0.49154168301E+02  0.49154168301E+02  0.00000000000E+00 0. -1.
         21   -1    0    0  501  502 -0.00000000000E+00 -0.00000000000E+00 -0.10261887566E+04  0.10261887566E+04  0.00000000000E+00 0. -1.
      99926    2    1    2    0    0  0.00000000000E+00  0.00000000000E+00 -0.97703458826E+03  0.10753429249E+04  0.44918350303E+03 0.  0.
      99925    2    3    3    0    0  0.81273232217E+02 -0.32423222335E+02 -0.76773380084E+03  0.81628514880E+03  0.26315328534E+03 0.  0.
         25    1    4    4    0    0  0.57827297241E+02 -0.38489123616E+02 -0.31518800124E+03  0.34614504643E+03  0.12509000000E+03 0.  0.
         25    1    3    3    0    0 -0.81273232217E+02  0.32423222335E+02 -0.20930078743E+03  0.25905777606E+03  0.12509000000E+03 0.  0.
         25    1    4    4    0    0  0.23445934976E+02  0.60659012807E+01 -0.45254579960E+03  0.47014010238E+03  0.12509000000E+03 0.  0.
<mgrwt>
<rscale>  2 0.44918350E+03</rscale>
<asrwt>0</asrwt>
<pdfrwt beam="1">  1       21 0.72285541E-02 0.44918350E+03</pdfrwt>
<pdfrwt beam="2">  1       21 0.15091011E+00 0.44918350E+03</pdfrwt>
<totfact> 0.38059271E+04</totfact>
</mgrwt>
</event>
<event>
 7    0  0.4737014E-002  0.4531549E+03  0.7546771E-02  0.1026785E+00
         21   -1    0    0  502  501  0.00000000000E+00  0.00000000000E+00  0.49263666500E+02  0.49263666500E+02  0.00000000000E+00 0. -1.
         21   -1    0    0  501  502 -0.00000000000E+00 -0.00000000000E+00 -0.10420932543E+04  0.10420932543E+04  0.00000000000E+00 0. -1.
      99926    2    1    2    0    0  0.14210854715E-13  0.14210854715E-13 -0.99282958776E+03  0.10913569208E+04  0.45315487216E+03 0.  0.
      99925    2    3    3    0    0  0.76032933414E+02 -0.77678830745E+02 -0.56668830204E+03  0.63412731629E+03  0.26299584386E+03 0.  0.
         25    1    4    4    0    0  0.88858595289E+01 -0.15920217791E+02 -0.20721023266E+03  0.24272618411E+03  0.12509000000E+03 0.  0.
         25    1    4    4    0    0  0.67147073886E+02 -0.61758612954E+02 -0.35947806938E+03  0.39140113218E+03  0.12509000000E+03 0.  0.
         25    1    3    3    0    0 -0.76032933414E+02  0.77678830745E+02 -0.42614128572E+03  0.45722960447E+03  0.12509000000E+03 0.  0.
<mgrwt>
<rscale>  2 0.45315487E+03</rscale>
<asrwt>0</asrwt>
<pdfrwt beam="1">  1       21 0.72446562E-02 0.45315487E+03</pdfrwt>
<pdfrwt beam="2">  1       21 0.15324902E+00 0.45315487E+03</pdfrwt>
<totfact> 0.36315362E+04</totfact>
</mgrwt>
</event>
<event>
 7    0  0.4737014E-002  0.4535247E+03  0.7546771E-02  0.1026676E+00
         21   -1    0    0  502  501  0.00000000000E+00  0.00000000000E+00  0.64768036179E+03  0.64768036179E+03  0.00000000000E+00 0.  1.
         21   -1    0    0  501  502 -0.00000000000E+00 -0.00000000000E+00 -0.79392809451E+02  0.79392809451E+02  0.00000000000E+00 0.  1.
      99926    2    1    2    0    0  0.00000000000E+00 -0.35527136788E-14  0.56828755234E+03  0.72707317124E+03  0.45352470075E+03 0.  0.
      99925    2    3    3    0    0  0.72332545564E+02 -0.24602864519E+02  0.22745455001E+03  0.35605842536E+03  0.26306792251E+03 0.  0.
         25    1    3    3    0    0 -0.72332545564E+02  0.24602864519E+02  0.34083300232E+03  0.37101474588E+03  0.12509000000E+03 0.  0.
         25    1    4    4    0    0  0.38193728312E+02  0.13290071464E+02  0.71207113480E+02  0.14951036082E+03  0.12509000000E+03 0.  0.
         25    1    4    4    0    0  0.34138817252E+02 -0.37892935983E+02  0.15624743653E+03  0.20654806454E+03  0.12509000000E+03 0.  0.
<mgrwt>
<rscale>  2 0.45352470E+03</rscale>
<asrwt>0</asrwt>
<pdfrwt beam="1">  1       21 0.95247109E-01 0.45352470E+03</pdfrwt>
<pdfrwt beam="2">  1       21 0.11675413E-01 0.45352470E+03</pdfrwt>
<totfact> 0.52058988E+04</totfact>
</mgrwt>
</event>
<event>
 7    0  0.4737014E-002  0.4555830E+03  0.7546771E-02  0.1026070E+00
         21   -1    0    0  502  501  0.00000000000E+00  0.00000000000E+00  0.17893323368E+03  0.17893323368E+03  0.00000000000E+00 0. -1.
         21   -1    0    0  501  502 -0.00000000000E+00 -0.00000000000E+00 -0.28999068048E+03  0.28999068048E+03  0.00000000000E+00 0. -1.
      99926    2    1    2    0    0  0.00000000000E+00  0.00000000000E+00 -0.11105744680E+03  0.46892391416E+03  0.45558301195E+03 0.  0.
      99925    2    3    3    0    0 -0.20730150819E+02 -0.97143767794E+02 -0.12685154142E+03  0.30841344005E+03  0.26298457306E+03 0.  0.
         25    1    4    4    0    0  0.28266509734E+02 -0.60578495902E+02 -0.67085524050E+02  0.15689718090E+03  0.12509000000E+03 0.  0.
         25    1    4    4    0    0 -0.48996660553E+02 -0.36565271892E+02 -0.59766017366E+02  0.15151625915E+03  0.12509000000E+03 0.  0.
         25    1    3    3    0    0  0.20730150819E+02  0.97143767794E+02  0.15794094618E+02  0.16051047411E+03  0.12509000000E+03 0.  0.
<mgrwt>
<rscale>  2 0.45558301E+03</rscale>
<asrwt>0</asrwt>
<pdfrwt beam="1">  1       21 0.26313711E-01 0.45558301E+03</pdfrwt>
<pdfrwt beam="2">  1       21 0.42645688E-01 0.45558301E+03</pdfrwt>
<totfact> 0.67204568E+04</totfact>
</mgrwt>
</event>
<event>
 7    0  0.4737014E-002  0.4588544E+03  0.7546771E-02  0.1025114E+00
         21   -1    0    0  502  501  0.00000000000E+00  0.00000000000E+00  0.91761671125E+02  0.91761671125E+02  0.00000000000E+00 0.  1.
         21   -1    0    0  501  502 -0.00000000000E+00 -0.00000000000E+00 -0.57362558393E+03  0.57362558393E+03  0.00000000000E+00 0.  1.
      99926    2    1    2    0    0  0.13322676296E-14  0.17763568394E-14 -0.48186391281E+03  0.66538725506E+03  0.45885440908E+03 0.  0.
      99925    2    3    3    0    0  0.25951975661E+01  0.23169789367E+01 -0.13294292166E+03  0.29470481737E+03  0.26299240583E+03 0.  0.
         25    1    3    3    0    0 -0.25951975661E+01 -0.23169789367E+01 -0.34892099115E+03  0.37068243769E+03  0.12509000000E+03 0.  0.
         25    1    4    4    0    0  0.11246044231E+02  0.38126685206E+02 -0.51723798879E+02  0.14107791148E+03  0.12509000000E+03 0.  0.
         25    1    4    4    0    0 -0.86508466651E+01 -0.35809706270E+02 -0.81219122776E+02  0.15362690590E+03  0.12509000000E+03 0.  0.
<mgrwt>
<rscale>  2 0.45885441E+03</rscale>
<asrwt>0</asrwt>
<pdfrwt beam="1">  1       21 0.13494363E-01 0.45885441E+03</pdfrwt>
<pdfrwt beam="2">  1       21 0.84356705E-01 0.45885441E+03</pdfrwt>
<totfact> 0.53187735E+04</totfact>
</mgrwt>
</event>
<event>
 7    0  0.4737014E-002  0.4457953E+03  0.7546771E-02  0.1028983E+00
         21   -1    0    0  502  501  0.00000000000E+00  0.00000000000E+00  0.10520153991E+03  0.10520153991E+03  0.00000000000E+00 0.  1.
         21   -1    0    0  501  502 -0.00000000000E+00 -0.00000000000E+00 -0.47226848740E+03  0.47226848740E+03  0.00000000000E+00 0.  1.
      99926    2    1    2    0    0  0.00000000000E+00 -0.35527136788E-14 -0.36706694748E+03  0.57747002731E+03  0.44579534374E+03 0.  0.
      99925    2    3    3    0    0 -0.61790871967E+02  0.29386746858E+02 -0.33487727687E+03  0.43130103010E+03  0.26305150685E+03 0.  0.
         25    1    4    4    0    0 -0.31160995813E+02  0.54524197412E+02 -0.18736369619E+03  0.23387295379E+03  0.12509000000E+03 0.  0.
         25    1    3    3    0    0  0.61790871967E+02 -0.29386746858E+02 -0.32189670617E+02  0.14616899720E+03  0.12509000000E+03 0.  0.
         25    1    4    4    0    0 -0.30629876153E+02 -0.25137450554E+02 -0.14751358068E+03  0.19742807632E+03  0.12509000000E+03 0.  0.
<mgrwt>
<rscale>  2 0.44579534E+03</rscale>
<asrwt>0</asrwt>
<pdfrwt beam="1">  1       21 0.15470815E-01 0.44579534E+03</pdfrwt>
<pdfrwt beam="2">  1       21 0.69451246E-01 0.44579534E+03</pdfrwt>
<totfact> 0.64665892E+04</totfact>
</mgrwt>
</event>
<event>
 7    0  0.4737014E-002  0.4545075E+03  0.7546771E-02  0.1026386E+00
         21   -1    0    0  502  501  0.00000000000E+00  0.00000000000E+00  0.16676091399E+03  0.16676091399E+03  0.00000000000E+00 0. -1.
         21   -1    0    0  501  502 -0.00000000000E+00 -0.00000000000E+00 -0.30969041249E+03  0.30969041249E+03  0.00000000000E+00 0. -1.
      99926    2    1    2    0    0  0.00000000000E+00  0.00000000000E+00 -0.14292949850E+03  0.47645132647E+03  0.45450745314E+03 0.  0.
      99925    2    3    3    0    0  0.20408932230E+01 -0.45356301468E+02  0.18189258037E+02  0.26748213942E+03  0.26297240630E+03 0.  0.
         25    1    3    3    0    0 -0.20408932230E+01  0.45356301468E+02 -0.16111875654E+03  0.20896918705E+03  0.12509000000E+03 0.  0.
         25    1    4    4    0    0  0.31776960299E+02 -0.45994674024E+02 -0.36537975899E+01  0.13706255353E+03  0.12509000000E+03 0.  0.
         25    1    4    4    0    0 -0.29736067076E+02  0.63837255541E+00  0.21843055627E+02  0.13041958589E+03  0.12509000000E+03 0.  0.
<mgrwt>
<rscale>  2 0.45450745E+03</rscale>
<asrwt>0</asrwt>
<pdfrwt beam="1">  1       21 0.24523664E-01 0.45450745E+03</pdfrwt>
<pdfrwt beam="2">  1       21 0.45542707E-01 0.45450745E+03</pdfrwt>
<totfact> 0.67221725E+04</totfact>
</mgrwt>
</event>
<event>
 7    0  0.4737014E-002  0.4596421E+03  0.7546771E-02  0.1024885E+00
         21   -1    0    0  502  501  0.00000000000E+00  0.00000000000E+00  0.31245141756E+03  0.31245141756E+03  0.00000000000E+00 0.  1.
         21   -1    0    0  501  502 -0.00000000000E+00 -0.00000000000E+00 -0.16904299358E+03  0.16904299358E+03  0.00000000000E+00 0.  1.
      99926    2    1    2    0    0 -0.71054273576E-14  0.14210854715E-13  0.14340842398E+03  0.48149441114E+03  0.45964213459E+03 0.  0.
      99925    2    3    3    0    0  0.25695051525E+02 -0.69532859988E+02 -0.57007607124E+01  0.27322508707E+03  0.26291518640E+03 0.  0.
         25    1    4    4    0    0 -0.97461732783E+01 -0.22116013421E+02  0.28758587208E+02  0.13060884496E+03  0.12509000000E+03 0.  0.
         25    1    4    4    0    0  0.35441224803E+02 -0.47416846567E+02 -0.34459347921E+02  0.14261624211E+03  0.12509000000E+03 0.  0.
         25    1    3    3    0    0 -0.25695051525E+02  0.69532859988E+02  0.14910918470E+03  0.20826932408E+03  0.12509000000E+03 0.  0.
<mgrwt>
<rscale>  2 0.45964213E+03</rscale>
<asrwt>0</asrwt>
<pdfrwt beam="1">  1       21 0.45948738E-01 0.45964213E+03</pdfrwt>
<pdfrwt beam="2">  1       21 0.24859264E-01 0.45964213E+03</pdfrwt>
<totfact> 0.64193454E+04</totfact>
</mgrwt>
</event>
<event>
 7    0  0.4737014E-002  0.4661585E+03  0.7546771E-02  0.1023010E+00
         21   -1    0    0  502  501  0.00000000000E+00  0.00000000000E+00  0.10380696693E+03  0.10380696693E+03  0.00000000000E+00 0. -1.
         21   -1    0    0  501  502 -0.00000000000E+00 -0.00000000000E+00 -0.52333608457E+03  0.52333608457E+03  0.00000000000E+00 0. -1.
      99926    2    1    2    0    0  0.00000000000E+00  0.00000000000E+00 -0.41952911764E+03  0.62714305150E+03  0.46615847788E+03 0.  0.
      99925    2    3    3    0    0  0.91147657645E+02 -0.69192490781E+02 -0.19925444357E+03  0.34917913944E+03  0.26292250163E+03 0.  0.
         25    1    4    4    0    0  0.12627195943E+02 -0.21582469901E+02 -0.11911354823E+03  0.17453021101E+03  0.12509000000E+03 0.  0.
         25    1    3    3    0    0 -0.91147657645E+02  0.69192490781E+02 -0.22027467407E+03  0.27796391206E+03  0.12509000000E+03 0.  0.
         25    1    4    4    0    0  0.78520461702E+02 -0.47610020880E+02 -0.80140895346E+02  0.17464892843E+03  0.12509000000E+03 0.  0.
<mgrwt>
<rscale>  2 0.46615848E+03</rscale>
<asrwt>0</asrwt>
<pdfrwt beam="1">  1       21 0.15265730E-01 0.46615848E+03</pdfrwt>
<pdfrwt beam="2">  1       21 0.76961190E-01 0.46615848E+03</pdfrwt>
<totfact> 0.52277701E+04</totfact>
</mgrwt>
</event>
<event>
 7    0  0.4737014E-002  0.4562784E+03  0.7546771E-02  0.1025866E+00
         21   -1    0    0  502  501  0.00000000000E+00  0.00000000000E+00  0.33097724436E+03  0.33097724436E+03  0.00000000000E+00 0. -1.
         21   -1    0    0  501  502 -0.00000000000E+00 -0.00000000000E+00 -0.15725402540E+03  0.15725402540E+03  0.00000000000E+00 0. -1.
      99926    2    1    2    0    0 -0.71054273576E-14 -0.71054273576E-14  0.17372321896E+03  0.48823126977E+03  0.45627844128E+03 0.  0.
      99925    2    3    3    0    0  0.46074731780E+02 -0.32522098137E+02  0.27840516524E+01  0.26903210281E+03  0.26303983277E+03 0.  0.
         25    1    4    4    0    0  0.81255924517E+00  0.17891467600E+02 -0.59438644413E+01  0.12650534570E+03  0.12509000000E+03 0.  0.
         25    1    3    3    0    0 -0.46074731780E+02  0.32522098137E+02  0.17093916731E+03  0.21919916696E+03  0.12509000000E+03 0.  0.
         25    1    4    4    0    0  0.45262172535E+02 -0.50413565737E+02  0.87279160937E+01  0.14252675711E+03  0.12509000000E+03 0.  0.
<mgrwt>
<rscale>  2 0.45627844E+03</rscale>
<asrwt>0</asrwt>
<pdfrwt beam="1">  1       21 0.48673124E-01 0.45627844E+03</pdfrwt>
<pdfrwt beam="2">  1       21 0.23125592E-01 0.45627844E+03</pdfrwt>
<totfact> 0.65438964E+04</totfact>
</mgrwt>
</event>
<event>
 6    0  0.4737014E-002  0.4286669E+03  0.7546771E-02  0.1034282E+00
         21   -1    0    0  502  501  0.00000000000E+00  0.00000000000E+00  0.28177309850E+03  0.28177309850E+03  0.00000000000E+00 0.  1.
         21   -1    0    0  501  502 -0.00000000000E+00 -0.00000000000E+00 -0.16303483458E+03  0.16303483458E+03  0.00000000000E+00 0.  1.
      99926    2    1    2    0    0  0.35527136788E-14 -0.88817841970E-15  0.11873826392E+03  0.44480793307E+03  0.42866691266E+03 0.  0.
         25    1    3    3    0    0  0.22077139247E+02  0.33254274242E+02  0.10762332383E+03  0.16977495329E+03  0.12509000000E+03 0.  0.
         25    1    3    3    0    0 -0.24234500564E+02  0.40478860420E+01 -0.41810722535E+02  0.13416162275E+03  0.12509000000E+03 0.  0.
         25    1    3    3    0    0  0.21573613169E+01 -0.37302160284E+02  0.52925662626E+02  0.14087135704E+03  0.12509000000E+03 0.  0.
<mgrwt>
<rscale>  2 0.42866691E+03</rscale>
<asrwt>0</asrwt>
<pdfrwt beam="1">  1       21 0.41437221E-01 0.42866691E+03</pdfrwt>
<pdfrwt beam="2">  1       21 0.23975711E-01 0.42866691E+03</pdfrwt>
<totfact> 0.85955567E+04</totfact>
</mgrwt>
</event>
<event>
 7    0  0.4737014E-002  0.4651066E+03  0.7546771E-02  0.1023310E+00
         21   -1    0    0  502  501  0.00000000000E+00  0.00000000000E+00  0.74341065011E+02  0.74341065011E+02  0.00000000000E+00 0. -1.
         21   -1    0    0  501  502 -0.00000000000E+00 -0.00000000000E+00 -0.72747191574E+03  0.72747191574E+03  0.00000000000E+00 0. -1.
      99926    2    1    2    0    0  0.00000000000E+00  0.00000000000E+00 -0.65313085073E+03  0.80181298075E+03  0.46510659845E+03 0.  0.
      99925    2    3    3    0    0 -0.99356143327E+02 -0.51191179714E+02 -0.49350185418E+03  0.57025066789E+03  0.26296304694E+03 0.  0.
         25    1    4    4    0    0 -0.76333145092E+02 -0.27894504507E+02 -0.19979935587E+03  0.24934342407E+03  0.12509000000E+03 0.  0.
         25    1    4    4    0    0 -0.23022998235E+02 -0.23296675208E+02 -0.29370249831E+03  0.32090724382E+03  0.12509000000E+03 0.  0.
         25    1    3    3    0    0  0.99356143327E+02  0.51191179714E+02 -0.15962899655E+03  0.23156231286E+03  0.12509000000E+03 0.  0.
<mgrwt>
<rscale>  2 0.46510660E+03</rscale>
<asrwt>0</asrwt>
<pdfrwt beam="1">  1       21 0.10932510E-01 0.46510660E+03</pdfrwt>
<pdfrwt beam="2">  1       21 0.10698116E+00 0.46510660E+03</pdfrwt>
<totfact> 0.44076067E+04</totfact>
</mgrwt>
</event>
<event>
 7    0  0.4737014E-002  0.4579259E+03  0.7546771E-02  0.1025384E+00
         21   -1    0    0  502  501  0.00000000000E+00  0.00000000000E+00  0.17539471816E+03  0.17539471816E+03  0.00000000000E+00 0. -1.
         21   -1    0    0  501  502 -0.00000000000E+00 -0.00000000000E+00 -0.29889174058E+03  0.29889174058E+03  0.00000000000E+00 0. -1.
      99926    2    1    2    0    0  0.00000000000E+00  0.00000000000E+00 -0.12349702243E+03  0.47428645874E+03  0.45792590055E+03 0.  0.
      99925    2    3    3    0    0 -0.50616126400E+02 -0.39421673268E+02 -0.17745932160E+03  0.32370260035E+03  0.26301236107E+03 0.  0.
         25    1    3    3    0    0  0.50616126400E+02  0.39421673268E+02  0.53962299175E+02  0.15058385839E+03  0.12509000000E+03 0.  0.
         25    1    4    4    0    0 -0.30908988397E+02 -0.48198465595E+02 -0.57678490216E+02  0.14917363702E+03  0.12509000000E+03 0.  0.
         25    1    4    4    0    0 -0.19707138004E+02  0.87767923277E+01 -0.11978083139E+03  0.17452896333E+03  0.12509000000E+03 0.  0.
<mgrwt>
<rscale>  2 0.45792590E+03</rscale>
<asrwt>0</asrwt>
<pdfrwt beam="1">  1       21 0.25793342E-01 0.45792590E+03</pdfrwt>
<pdfrwt beam="2">  1       21 0.43954667E-01 0.45792590E+03</pdfrwt>
<totfact> 0.65582611E+04</totfact>
</mgrwt>
</event>
<event>
 7    0  0.4737014E-002  0.4580198E+03  0.7546771E-02  0.1025357E+00
         21   -1    0    0  502  501  0.00000000000E+00  0.00000000000E+00  0.70387431758E+02  0.70387431758E+02  0.00000000000E+00 0.  1.
         21   -1    0    0  501  502 -0.00000000000E+00 -0.00000000000E+00 -0.74509783410E+03  0.74509783410E+03  0.00000000000E+00 0.  1.
      99926    2    1    2    0    0  0.00000000000E+00  0.17763568394E-14 -0.67471040234E+03  0.81548526586E+03  0.45801975045E+03 0.  0.
      99925    2    3    3    0    0 -0.10225344737E+03 -0.80404308941E+01 -0.51980110012E+03  0.59151023144E+03  0.26300333492E+03 0.  0.
         25    1    4    4    0    0 -0.65780146257E+02  0.29827776070E+02 -0.23138672793E+03  0.27277105753E+03  0.12509000000E+03 0.  0.
         25    1    3    3    0    0  0.10225344737E+03  0.80404308941E+01 -0.15490930222E+03  0.22397503442E+03  0.12509000000E+03 0.  0.
         25    1    4    4    0    0 -0.36473301116E+02 -0.37868206964E+02 -0.28841437219E+03  0.31873917390E+03  0.12509000000E+03 0.  0.
<mgrwt>
<rscale>  2 0.45801975E+03</rscale>
<asrwt>0</asrwt>
<pdfrwt beam="1">  1       21 0.10351093E-01 0.45801975E+03</pdfrwt>
<pdfrwt beam="2">  1       21 0.10957321E+00 0.45801975E+03</pdfrwt>
<totfact> 0.45926932E+04</totfact>
</mgrwt>
</event>
<event>
 7    0  0.4737014E-002  0.4536192E+03  0.7546771E-02  0.1026648E+00
         21   -1    0    0  502  501  0.00000000000E+00  0.00000000000E+00  0.64196306108E+02  0.64196306108E+02  0.00000000000E+00 0.  1.
         21   -1    0    0  501  502 -0.00000000000E+00 -0.00000000000E+00 -0.80133255319E+03  0.80133255319E+03  0.00000000000E+00 0.  1.
      99926    2    1    2    0    0  0.00000000000E+00  0.00000000000E+00 -0.73713624708E+03  0.86552885930E+03  0.45361917896E+03 0.  0.
      99925    2    3    3    0    0  0.11023055568E+03  0.18617594024E+02 -0.47495585261E+03  0.55426778310E+03  0.26293026307E+03 0.  0.
         25    1    4    4    0    0  0.15803068868E+02 -0.87052611192E+01 -0.22139738690E+03  0.25493102907E+03  0.12509000000E+03 0.  0.
         25    1    3    3    0    0 -0.11023055568E+03 -0.18617594024E+02 -0.26218039447E+03  0.31126107620E+03  0.12509000000E+03 0.  0.
         25    1    4    4    0    0  0.94427486810E+02  0.27322855143E+02 -0.25355846571E+03  0.29933675403E+03  0.12509000000E+03 0.  0.
<mgrwt>
<rscale>  2 0.45361918E+03</rscale>
<asrwt>0</asrwt>
<pdfrwt beam="1">  1       21 0.94406333E-02 0.45361918E+03</pdfrwt>
<pdfrwt beam="2">  1       21 0.11784302E+00 0.45361918E+03</pdfrwt>
<totfact> 0.45240364E+04</totfact>
</mgrwt>
</event>
<event>
 6    0  0.4737014E-002  0.4638752E+03  0.7546771E-02  0.1023663E+00
         21   -1    0    0  502  501  0.00000000000E+00  0.00000000000E+00  0.18762315444E+03  0.18762315444E+03  0.00000000000E+00 0. -1.
         21   -1    0    0  501  502 -0.00000000000E+00 -0.00000000000E+00 -0.28671861335E+03  0.28671861335E+03  0.00000000000E+00 0. -1.
      99926    2    1    2    0    0  0.14210854715E-13 -0.35527136788E-14 -0.99095458915E+02  0.47434176779E+03  0.46387520163E+03 0.  0.
         25    1    3    3    0    0 -0.13223166708E+02  0.27383409817E+02 -0.27163330484E+02  0.13156769320E+03  0.12509000000E+03 0.  0.
         25    1    3    3    0    0 -0.89146256096E+02 -0.19073894095E+01  0.20274861119E+02  0.15494925364E+03  0.12509000000E+03 0.  0.
         25    1    3    3    0    0  0.10236942280E+03 -0.25476020407E+02 -0.92206989550E+02  0.18782482094E+03  0.12509000000E+03 0.  0.
<mgrwt>
<rscale>  2 0.46387520E+03</rscale>
<asrwt>0</asrwt>
<pdfrwt beam="1">  1       21 0.27591641E-01 0.46387520E+03</pdfrwt>
<pdfrwt beam="2">  1       21 0.42164501E-01 0.46387520E+03</pdfrwt>
<totfact> 0.62588919E+04</totfact>
</mgrwt>
</event>
<event>
 7    0  0.4737014E-002  0.4488824E+03  0.7546771E-02  0.1028056E+00
         21   -1    0    0  502  501  0.00000000000E+00  0.00000000000E+00  0.80662194317E+03  0.80662194317E+03  0.00000000000E+00 0. -1.
         21   -1    0    0  501  502 -0.00000000000E+00 -0.00000000000E+00 -0.62450392978E+02  0.62450392978E+02  0.00000000000E+00 0. -1.
      99926    2    1    2    0    0  0.00000000000E+00  0.00000000000E+00  0.74417155019E+03  0.86907233615E+03  0.44888242263E+03 0.  0.
      99925    2    3    3    0    0 -0.52162653428E+01  0.77229089616E+02  0.32714647605E+03  0.42686315231E+03  0.26305093100E+03 0.  0.
         25    1    4    4    0    0 -0.30257890348E+02  0.21778411410E+02  0.19734490341E+03  0.23660591314E+03  0.12509000000E+03 0.  0.
         25    1    3    3    0    0  0.52162653428E+01 -0.77229089616E+02  0.41702507414E+03  0.44220918383E+03  0.12509000000E+03 0.  0.
         25    1    4    4    0    0  0.25041625005E+02  0.55450678206E+02  0.12980157264E+03  0.19025723917E+03  0.12509000000E+03 0.  0.
<mgrwt>
<rscale>  2 0.44888242E+03</rscale>
<asrwt>0</asrwt>
<pdfrwt beam="1">  1       21 0.11862087E+00 0.44888242E+03</pdfrwt>
<pdfrwt beam="2">  1       21 0.91838818E-02 0.44888242E+03</pdfrwt>
<totfact> 0.46800676E+04</totfact>
</mgrwt>
</event>
<event>
 7    0  0.4737014E-002  0.4584769E+03  0.7546771E-02  0.1025224E+00
         21   -1    0    0  502  501  0.00000000000E+00  0.00000000000E+00  0.16348303992E+03  0.16348303992E+03  0.00000000000E+00 0. -1.
         21   -1    0    0  501  502 -0.00000000000E+00 -0.00000000000E+00 -0.32144169141E+03  0.32144169141E+03  0.00000000000E+00 0. -1.
      99926    2    1    2    0    0  0.00000000000E+00  0.00000000000E+00 -0.15795865149E+03  0.48492473133E+03  0.45847689089E+03 0.  0.
      99925    2    3    3    0    0  0.87417687441E+02  0.62549958505E+02 -0.51584005291E+02  0.28866617014E+03  0.26289332208E+03 0.  0.
         25    1    4    4    0    0  0.37679829810E+02  0.58688363215E+01  0.77721441474E+01  0.13100430199E+03  0.12509000000E+03 0.  0.
         25    1    3    3    0    0 -0.87417687441E+02 -0.62549958505E+02 -0.10637464620E+03  0.19625856119E+03  0.12509000000E+03 0.  0.
         25    1    4    4    0    0  0.49737857632E+02  0.56681122183E+02 -0.59356149439E+02  0.15766186815E+03  0.12509000000E+03 0.  0.
<mgrwt>
<rscale>  2 0.45847689E+03</rscale>
<asrwt>0</asrwt>
<pdfrwt beam="1">  1       21 0.24041624E-01 0.45847689E+03</pdfrwt>
<pdfrwt beam="2">  1       21 0.47270836E-01 0.45847689E+03</pdfrwt>
<totfact> 0.64543468E+04</totfact>
</mgrwt>
</event>
<event>
 7    0  0.4737014E-002  0.4579029E+03  0.7546771E-02  0.1025391E+00
         21   -1    0    0  502  501  0.00000000000E+00  0.00000000000E+00  0.37171964407E+03  0.37171964407E+03  0.00000000000E+00 0. -1.
         21   -1    0    0  501  502 -0.00000000000E+00 -0.00000000000E+00 -0.14101693705E+03  0.14101693705E+03  0.00000000000E+00 0. -1.
      99926    2    1    2    0    0  0.00000000000E+00  0.00000000000E+00  0.23070270702E+03  0.51273658112E+03  0.45790289647E+03 0.  0.
      99925    2    3    3    0    0  0.84764947603E+02 -0.65504371625E+02  0.19425993945E+03  0.34406084946E+03  0.26299244288E+03 0.  0.
         25    1    3    3    0    0 -0.84764947603E+02  0.65504371625E+02  0.36442767567E+02  0.16867573166E+03  0.12509000000E+03 0.  0.
         25    1    4    4    0    0  0.29787436661E+02 -0.71427071917E+02  0.10550856201E+03  0.18102122180E+03  0.12509000000E+03 0.  0.
         25    1    4    4    0    0  0.54977510942E+02  0.59227002918E+01  0.88751377441E+02  0.16303962766E+03  0.12509000000E+03 0.  0.
<mgrwt>
<rscale>  2 0.45790290E+03</rscale>
<asrwt>0</asrwt>
<pdfrwt beam="1">  1       21 0.54664653E-01 0.45790290E+03</pdfrwt>
<pdfrwt beam="2">  1       21 0.20737785E-01 0.45790290E+03</pdfrwt>
<totfact> 0.62922698E+04</totfact>
</mgrwt>
</event>
<event>
 7    0  0.4737014E-002  0.4562391E+03  0.7546771E-02  0.1025878E+00
         21   -1    0    0  502  501  0.00000000000E+00  0.00000000000E+00  0.70976500437E+02  0.70976500437E+02  0.00000000000E+00 0. -1.
         21   -1    0    0  501  502 -0.00000000000E+00 -0.00000000000E+00 -0.73317963084E+03  0.73317963084E+03  0.00000000000E+00 0. -1.
      99926    2    1    2    0    0  0.00000000000E+00  0.00000000000E+00 -0.66220313040E+03  0.80415613128E+03  0.45623907938E+03 0.  0.
      99925    2    3    3    0    0 -0.65427713092E+02 -0.90745403158E+02 -0.37509662242E+03  0.47160061883E+03  0.26304781636E+03 0.  0.
         25    1    4    4    0    0 -0.45684172442E+02 -0.80676948557E+02 -0.17164698070E+03  0.23174556678E+03  0.12509000000E+03 0.  0.
         25    1    4    4    0    0 -0.19743540650E+02 -0.10068454601E+02 -0.20344964172E+03  0.23985505205E+03  0.12509000000E+03 0.  0.
         25    1    3    3    0    0  0.65427713092E+02  0.90745403158E+02 -0.28710650798E+03  0.33255551245E+03  0.12509000000E+03 0.  0.
<mgrwt>
<rscale>  2 0.45623908E+03</rscale>
<asrwt>0</asrwt>
<pdfrwt beam="1">  1       21 0.10437721E-01 0.45623908E+03</pdfrwt>
<pdfrwt beam="2">  1       21 0.10782053E+00 0.45623908E+03</pdfrwt>
<totfact> 0.47104728E+04</totfact>
</mgrwt>
</event>
<event>
 7    0  0.4737014E-002  0.4674814E+03  0.7546771E-02  0.1022633E+00
         21   -1    0    0  502  501  0.00000000000E+00  0.00000000000E+00  0.22250583838E+03  0.22250583838E+03  0.00000000000E+00 0.  1.
         21   -1    0    0  501  502 -0.00000000000E+00 -0.00000000000E+00 -0.24554278941E+03  0.24554278941E+03  0.00000000000E+00 0.  1.
      99926    2    1    2    0    0  0.00000000000E+00  0.00000000000E+00 -0.23036951026E+02  0.46804862779E+03  0.46748135456E+03 0.  0.
      99925    2    3    3    0    0  0.86356107595E+02  0.64147825994E+02  0.48679126216E+02  0.28815136618E+03  0.26284830531E+03 0.  0.
         25    1    4    4    0    0  0.12047937905E+02  0.26599615765E+01  0.14401766284E+02  0.12651935494E+03  0.12509000000E+03 0.  0.
         25    1    4    4    0    0  0.74308169689E+02  0.61487864417E+02  0.34277359932E+02  0.16163201124E+03  0.12509000000E+03 0.  0.
         25    1    3    3    0    0 -0.86356107595E+02 -0.64147825994E+02 -0.71716077243E+02  0.17989726161E+03  0.12509000000E+03 0.  0.
<mgrwt>
<rscale>  2 0.46748135E+03</rscale>
<asrwt>0</asrwt>
<pdfrwt beam="1">  1       21 0.32721447E-01 0.46748135E+03</pdfrwt>
<pdfrwt beam="2">  1       21 0.36109234E-01 0.46748135E+03</pdfrwt>
<totfact> 0.61267669E+04</totfact>
</mgrwt>
</event>
<event>
 7    0  0.4737014E-002  0.4557743E+03  0.7546771E-02  0.1026014E+00
         21   -1    0    0  502  501  0.00000000000E+00  0.00000000000E+00  0.19131751780E+03  0.19131751780E+03  0.00000000000E+00 0. -1.
         21   -1    0    0  501  502 -0.00000000000E+00 -0.00000000000E+00 -0.27144688362E+03  0.27144688362E+03  0.00000000000E+00 0. -1.
      99926    2    1    2    0    0  0.71054273576E-14  0.00000000000E+00 -0.80129365814E+02  0.46276440142E+03  0.45577425986E+03 0.  0.
      99925    2    3    3    0    0 -0.26716900607E+02  0.89846115526E+01  0.61678726809E+02  0.27157978055E+03  0.26297679715E+03 0.  0.
         25    1    4    4    0    0  0.11987663891E+02 -0.26861416233E+02  0.35557139541E+02  0.13333063429E+03  0.12509000000E+03 0.  0.
         25    1    4    4    0    0 -0.38704564498E+02  0.35846027786E+02  0.26121587268E+02  0.13824914626E+03  0.12509000000E+03 0.  0.
         25    1    3    3    0    0  0.26716900607E+02 -0.89846115526E+01 -0.14180809262E+03  0.19118462087E+03  0.12509000000E+03 0.  0.
<mgrwt>
<rscale>  2 0.45577426E+03</rscale>
<asrwt>0</asrwt>
<pdfrwt beam="1">  1       21 0.28134929E-01 0.45577426E+03</pdfrwt>
<pdfrwt beam="2">  1       21 0.39918659E-01 0.45577426E+03</pdfrwt>
<totfact> 0.67559602E+04</totfact>
</mgrwt>
</event>
<event>
 7    0  0.4737014E-002  0.4525468E+03  0.7546771E-02  0.1026965E+00
         21   -1    0    0  502  501  0.00000000000E+00  0.00000000000E+00  0.31667945646E+03  0.31667945646E+03  0.00000000000E+00 0.  1.
         21   -1    0    0  501  502 -0.00000000000E+00 -0.00000000000E+00 -0.16167659998E+03  0.16167659998E+03  0.00000000000E+00 0.  1.
      99926    2    1    2    0    0  0.00000000000E+00  0.00000000000E+00  0.15500285649E+03  0.47835605644E+03  0.45254682765E+03 0.  0.
      99925    2    3    3    0    0  0.10842296347E+03  0.95682084133E+01  0.75614773610E+02  0.29451627450E+03  0.26301169620E+03 0.  0.
         25    1    3    3    0    0 -0.10842296347E+03 -0.95682084133E+01  0.79388082875E+02  0.18383978194E+03  0.12509000000E+03 0.  0.
         25    1    4    4    0    0  0.62604885172E+02  0.56002637444E+01 -0.25361768947E+01  0.14001669506E+03  0.12509000000E+03 0.  0.
         25    1    4    4    0    0  0.45818078302E+02  0.39679446688E+01  0.78150950505E+02  0.15449957945E+03  0.12509000000E+03 0.  0.
<mgrwt>
<rscale>  2 0.45254683E+03</rscale>
<asrwt>0</asrwt>
<pdfrwt beam="1">  1       21 0.46570508E-01 0.45254683E+03</pdfrwt>
<pdfrwt beam="2">  1       21 0.23775971E-01 0.45254683E+03</pdfrwt>
<totfact> 0.68137074E+04</totfact>
</mgrwt>
</event>
<event>
 7    0  0.4737014E-002  0.4525747E+03  0.7546771E-02  0.1026957E+00
         21   -1    0    0  502  501  0.00000000000E+00  0.00000000000E+00  0.12597576249E+03  0.12597576249E+03  0.00000000000E+00 0.  1.
         21   -1    0    0  501  502 -0.00000000000E+00 -0.00000000000E+00 -0.40647478538E+03  0.40647478538E+03  0.00000000000E+00 0.  1.
      99926    2    1    2    0    0  0.00000000000E+00  0.71054273576E-14 -0.28049902290E+03  0.53245054787E+03  0.45257472762E+03 0.  0.
      99925    2    3    3    0    0  0.83506437350E+02 -0.49159040016E+02 -0.23986670102E+03  0.36908460903E+03  0.26324414156E+03 0.  0.
         25    1    4    4    0    0  0.30887050857E+02  0.13668521060E+02 -0.12979175899E+03  0.18339642085E+03  0.12509000000E+03 0.  0.
         25    1    3    3    0    0 -0.83506437350E+02  0.49159040016E+02 -0.40632321877E+02  0.16336593885E+03  0.12509000000E+03 0.  0.
         25    1    4    4    0    0  0.52619386493E+02 -0.62827561076E+02 -0.11007494203E+03  0.18568818818E+03  0.12509000000E+03 0.  0.
<mgrwt>
<rscale>  2 0.45257473E+03</rscale>
<asrwt>0</asrwt>
<pdfrwt beam="1">  1       21 0.18525848E-01 0.45257473E+03</pdfrwt>
<pdfrwt beam="2">  1       21 0.59775703E-01 0.45257473E+03</pdfrwt>
<totfact> 0.64266164E+04</totfact>
</mgrwt>
</event>
<event>
 7    0  0.4737014E-002  0.4517462E+03  0.7546771E-02  0.1027203E+00
         21   -1    0    0  502  501  0.00000000000E+00  0.00000000000E+00  0.74676850212E+03  0.74676850212E+03  0.00000000000E+00 0. -1.
         21   -1    0    0  501  502 -0.00000000000E+00 -0.00000000000E+00 -0.68319256163E+02  0.68319256163E+02  0.00000000000E+00 0. -1.
      99926    2    1    2    0    0 -0.17763568394E-14  0.00000000000E+00  0.67844924595E+03  0.81508775828E+03  0.45174624997E+03 0.  0.
      99925    2    3    3    0    0 -0.11862972176E+02 -0.10750553759E+03  0.39138256831E+03  0.48379792107E+03  0.26302460519E+03 0.  0.
         25    1    4    4    0    0 -0.10060530543E+02 -0.61211955172E+02  0.26751890390E+03  0.30176479214E+03  0.12509000000E+03 0.  0.
         25    1    4    4    0    0 -0.18024416331E+01 -0.46293582421E+02  0.12386366441E+03  0.18203312894E+03  0.12509000000E+03 0.  0.
         25    1    3    3    0    0  0.11862972176E+02  0.10750553759E+03  0.28706667764E+03  0.33128983721E+03  0.12509000000E+03 0.  0.
<mgrwt>
<rscale>  2 0.45174625E+03</rscale>
<asrwt>0</asrwt>
<pdfrwt beam="1">  1       21 0.10981889E+00 0.45174625E+03</pdfrwt>
<pdfrwt beam="2">  1       21 0.10046950E-01 0.45174625E+03</pdfrwt>
<totfact> 0.48264215E+04</totfact>
</mgrwt>
</event>
<event>
 7    0  0.4737014E-002  0.4684843E+03  0.7546771E-02  0.1022349E+00
         21   -1    0    0  502  501  0.00000000000E+00  0.00000000000E+00  0.37172234095E+03  0.37172234095E+03  0.00000000000E+00 0. -1.
         21   -1    0    0  501  502 -0.00000000000E+00 -0.00000000000E+00 -0.14760851054E+03  0.14760851054E+03  0.00000000000E+00 0. -1.
      99926    2    1    2    0    0  0.00000000000E+00  0.00000000000E+00  0.22411383041E+03  0.51933085149E+03  0.46848428397E+03 0.  0.
      99925    2    3    3    0    0  0.65884633054E+02  0.17343694635E+02  0.22727599110E+02  0.27266202315E+03  0.26303316615E+03 0.  0.
         25    1    4    4    0    0  0.45675253731E+02  0.47623658658E+02  0.12727242570E+02  0.14199905799E+03  0.12509000000E+03 0.  0.
         25    1    3    3    0    0 -0.65884633054E+02 -0.17343694635E+02  0.20138623130E+03  0.24666882834E+03  0.12509000000E+03 0.  0.
         25    1    4    4    0    0  0.20209379323E+02 -0.30279964023E+02  0.10000356540E+02  0.13066296516E+03  0.12509000000E+03 0.  0.
<mgrwt>
<rscale>  2 0.46848428E+03</rscale>
<asrwt>0</asrwt>
<pdfrwt beam="1">  1       21 0.54665050E-01 0.46848428E+03</pdfrwt>
<pdfrwt beam="2">  1       21 0.21707134E-01 0.46848428E+03</pdfrwt>
<totfact> 0.57526128E+04</totfact>
</mgrwt>
</event>
<event>
 7    0  0.4737014E-002  0.4554605E+03  0.7546771E-02  0.1026106E+00
         21   -1    0    0  502  501  0.00000000000E+00  0.00000000000E+00  0.10268813173E+03  0.10268813173E+03  0.00000000000E+00 0. -1.
         21   -1    0    0  501  502 -0.00000000000E+00 -0.00000000000E+00 -0.50503475314E+03  0.50503475314E+03  0.00000000000E+00 0. -1.
      99926    2    1    2    0    0  0.00000000000E+00  0.00000000000E+00 -0.40234662141E+03  0.60772288488E+03  0.45546053731E+03 0.  0.
      99925    2    3    3    0    0  0.18150106225E+02  0.25997475547E+02 -0.39872968025E+03  0.47862646566E+03  0.26285479000E+03 0.  0.
         25    1    4    4    0    0  0.35101520067E+02  0.10013075362E+02 -0.14613834928E+03  0.19579658736E+03  0.12509000000E+03 0.  0.
         25    1    4    4    0    0 -0.16951413842E+02  0.15984400186E+02 -0.25259133097E+03  0.28282987830E+03  0.12509000000E+03 0.  0.
         25    1    3    3    0    0 -0.18150106225E+02 -0.25997475547E+02 -0.36169411558E+01  0.12909641922E+03  0.12509000000E+03 0.  0.
<mgrwt>
<rscale>  2 0.45546054E+03</rscale>
<asrwt>0</asrwt>
<pdfrwt beam="1">  1       21 0.15101196E-01 0.45546054E+03</pdfrwt>
<pdfrwt beam="2">  1       21 0.74269814E-01 0.45546054E+03</pdfrwt>
<totfact> 0.57994136E+04</totfact>
</mgrwt>
</event>
<event>
 7    0  0.4737014E-002  0.4527153E+03  0.7546771E-02  0.1026915E+00
         21   -1    0    0  502  501  0.00000000000E+00  0.00000000000E+00  0.68746474646E+02  0.68746474646E+02  0.00000000000E+00 0.  1.
         21   -1    0    0  501  502 -0.00000000000E+00 -0.00000000000E+00 -0.74531507713E+03  0.74531507713E+03  0.00000000000E+00 0.  1.
      99926    2    1    2    0    0  0.00000000000E+00 -0.44408920985E-15 -0.67656860249E+03  0.81406155178E+03  0.45271529267E+03 0.  0.
      99925    2    3    3    0    0  0.10887659632E+03  0.28730574703E+01 -0.46534532348E+03  0.54550029363E+03  0.26298656349E+03 0.  0.
         25    1    4    4    0    0  0.32642029224E+02  0.40836259504E+01 -0.28629653415E+03  0.31415822708E+03  0.12509000000E+03 0.  0.
         25    1    4    4    0    0  0.76234567095E+02 -0.12105684801E+01 -0.17904878933E+03  0.23134206655E+03  0.12509000000E+03 0.  0.
         25    1    3    3    0    0 -0.10887659632E+03 -0.28730574703E+01 -0.21122327900E+03  0.26856125815E+03  0.12509000000E+03 0.  0.
<mgrwt>
<rscale>  2 0.45271529E+03</rscale>
<asrwt>0</asrwt>
<pdfrwt beam="1">  1       21 0.10109777E-01 0.45271529E+03</pdfrwt>
<pdfrwt beam="2">  1       21 0.10960515E+00 0.45271529E+03</pdfrwt>
<totfact> 0.47946003E+04</totfact>
</mgrwt>
</event>
<event>
 7    0  0.4737014E-002  0.4694396E+03  0.7546771E-02  0.1022078E+00
         21   -1    0    0  502  501  0.00000000000E+00  0.00000000000E+00  0.37495499416E+02  0.37495499416E+02  0.00000000000E+00 0.  1.
         21   -1    0    0  501  502 -0.00000000000E+00 -0.00000000000E+00 -0.14693333147E+04  0.14693333147E+04  0.00000000000E+00 0.  1.
      99926    2    1    2    0    0  0.00000000000E+00  0.00000000000E+00 -0.14318378153E+04  0.15068288141E+04  0.46943960823E+03 0.  0.
      99925    2    3    3    0    0 -0.30736015685E+02  0.57160430140E+02 -0.12372930434E+04  0.12666055975E+04  0.26302784437E+03 0.  0.
         25    1    4    4    0    0 -0.13513110919E+02  0.61137827198E+02 -0.53177449917E+03  0.54986549642E+03  0.12509000000E+03 0.  0.
         25    1    3    3    0    0  0.30736015685E+02 -0.57160430140E+02 -0.19454477183E+03  0.24022321657E+03  0.12509000000E+03 0.  0.
         25    1    4    4    0    0 -0.17222904766E+02 -0.39773970580E+01 -0.70551854426E+03  0.71674010111E+03  0.12509000000E+03 0.  0.
<mgrwt>
<rscale>  2 0.46943961E+03</rscale>
<asrwt>0</asrwt>
<pdfrwt beam="1">  1       21 0.55140434E-02 0.46943961E+03</pdfrwt>
<pdfrwt beam="2">  1       21 0.21607845E+00 0.46943961E+03</pdfrwt>
<totfact> 0.21140071E+04</totfact>
</mgrwt>
</event>
<event>
 7    0  0.4737014E-002  0.4499246E+03  0.7546771E-02  0.1027745E+00
         21   -1    0    0  502  501  0.00000000000E+00  0.00000000000E+00  0.22619114333E+03  0.22619114333E+03  0.00000000000E+00 0.  1.
         21   -1    0    0  501  502 -0.00000000000E+00 -0.00000000000E+00 -0.22374013294E+03  0.22374013294E+03  0.00000000000E+00 0.  1.
      99926    2    1    2    0    0  0.00000000000E+00  0.00000000000E+00  0.24510103957E+01  0.44993127627E+03  0.44992460025E+03 0.  0.
      99925    2    3    3    0    0  0.36056798511E+02 -0.65133098024E+02 -0.77138788929E+02  0.28402631120E+03  0.26301737494E+03 0.  0.
         25    1    3    3    0    0 -0.36056798511E+02  0.65133098024E+02  0.79589799325E+02  0.16590496507E+03  0.12509000000E+03 0.  0.
         25    1    4    4    0    0  0.11476521663E+02 -0.51316181427E+02 -0.76549972265E+02  0.15579623673E+03  0.12509000000E+03 0.  0.
         25    1    4    4    0    0  0.24580276848E+02 -0.13816916597E+02 -0.58881666477E+00  0.12823007447E+03  0.12509000000E+03 0.  0.
<mgrwt>
<rscale>  2 0.44992460E+03</rscale>
<asrwt>0</asrwt>
<pdfrwt beam="1">  1       21 0.33263404E-01 0.44992460E+03</pdfrwt>
<pdfrwt beam="2">  1       21 0.32902961E-01 0.44992460E+03</pdfrwt>
<totfact> 0.71781890E+04</totfact>
</mgrwt>
</event>
<event>
 7    0  0.4737014E-002  0.4292785E+03  0.7546771E-02  0.1034088E+00
         21   -1    0    0  502  501  0.00000000000E+00  0.00000000000E+00  0.14574100411E+04  0.14574100411E+04  0.00000000000E+00 0.  1.
         21   -1    0    0  501  502 -0.00000000000E+00 -0.00000000000E+00 -0.31610869665E+02  0.31610869665E+02  0.00000000000E+00 0.  1.
      99926    2    1    2    0    0  0.00000000000E+00  0.00000000000E+00  0.14257991715E+04  0.14890209108E+04  0.42927845908E+03 0.  0.
      99925    2    3    3    0    0 -0.50147988418E+02  0.56848879628E+02  0.10674331191E+04  0.11019545709E+04  0.26295208084E+03 0.  0.
         25    1    4    4    0    0  0.52669078118E+01  0.55039767720E+02  0.54600422055E+03  0.56287230639E+03  0.12509000000E+03 0.  0.
         25    1    4    4    0    0 -0.55414896230E+02  0.18091119081E+01  0.52142889851E+03  0.53908226451E+03  0.12509000000E+03 0.  0.
         25    1    3    3    0    0  0.50147988418E+02 -0.56848879628E+02  0.35836605241E+03  0.38706633989E+03  0.12509000000E+03 0.  0.
<mgrwt>
<rscale>  2 0.42927846E+03</rscale>
<asrwt>0</asrwt>
<pdfrwt beam="1">  1       21 0.21432496E+00 0.42927846E+03</pdfrwt>
<pdfrwt beam="2">  1       21 0.46486583E-02 0.42927846E+03</pdfrwt>
<totfact> 0.29522229E+04</totfact>
</mgrwt>
</event>
<event>
 7    0  0.4737014E-002  0.4565778E+03  0.7546771E-02  0.1025778E+00
         21   -1    0    0  502  501  0.00000000000E+00  0.00000000000E+00  0.40269811410E+03  0.40269811410E+03  0.00000000000E+00 0.  1.
         21   -1    0    0  501  502 -0.00000000000E+00 -0.00000000000E+00 -0.12941660277E+03  0.12941660277E+03  0.00000000000E+00 0.  1.
      99926    2    1    2    0    0  0.00000000000E+00  0.35527136788E-14  0.27328151133E+03  0.53211471687E+03  0.45657780003E+03 0.  0.
      99925    2    3    3    0    0 -0.11002166489E+03  0.27884527433E+02  0.18250669526E+03  0.34035995436E+03  0.26392023624E+03 0.  0.
         25    1    4    4    0    0 -0.58701853067E+02 -0.96827486131E+01  0.49740707444E+02  0.14717781508E+03  0.12509000000E+03 0.  0.
         25    1    3    3    0    0  0.11002166489E+03 -0.27884527433E+02  0.90774816066E+02  0.19175476252E+03  0.12509000000E+03 0.  0.
         25    1    4    4    0    0 -0.51319811824E+02  0.37567276047E+02  0.13276598782E+03  0.19318213928E+03  0.12509000000E+03 0.  0.
<mgrwt>
<rscale>  2 0.45657780E+03</rscale>
<asrwt>0</asrwt>
<pdfrwt beam="1">  1       21 0.59220310E-01 0.45657780E+03</pdfrwt>
<pdfrwt beam="2">  1       21 0.19031854E-01 0.45657780E+03</pdfrwt>
<totfact> 0.62281098E+04</totfact>
</mgrwt>
</event>
<event>
 7    0  0.4737014E-002  0.4508932E+03  0.7546771E-02  0.1027456E+00
         21   -1    0    0  502  501  0.00000000000E+00  0.00000000000E+00  0.28402601993E+03  0.28402601993E+03  0.00000000000E+00 0.  1.
         21   -1    0    0  501  502 -0.00000000000E+00 -0.00000000000E+00 -0.17894899103E+03  0.17894899103E+03  0.00000000000E+00 0.  1.
      99926    2    1    2    0    0  0.00000000000E+00  0.00000000000E+00  0.10507702890E+03  0.46297501096E+03  0.45089320107E+03 0.  0.
      99925    2    3    3    0    0  0.94610591194E+02  0.40284673357E+02  0.10331828814E+03  0.30103483638E+03  0.26338808853E+03 0.  0.
         25    1    4    4    0    0  0.85993483737E+02  0.16260878829E+02  0.75747890925E+02  0.17042460651E+03  0.12509000000E+03 0.  0.
         25    1    4    4    0    0  0.86171074575E+01  0.24023794528E+02  0.27570397217E+02  0.13061022987E+03  0.12509000000E+03 0.  0.
         25    1    3    3    0    0 -0.94610591194E+02 -0.40284673357E+02  0.17587407535E+01  0.16194017458E+03  0.12509000000E+03 0.  0.
<mgrwt>
<rscale>  2 0.45089320E+03</rscale>
<asrwt>0</asrwt>
<pdfrwt beam="1">  1       21 0.41768532E-01 0.45089320E+03</pdfrwt>
<pdfrwt beam="2">  1       21 0.26316028E-01 0.45089320E+03</pdfrwt>
<totfact> 0.70221840E+04</totfact>
</mgrwt>
</event>
<event>
 7    0  0.4737014E-002  0.4532163E+03  0.7546771E-02  0.1026767E+00
         21   -1    0    0  502  501  0.00000000000E+00  0.00000000000E+00  0.29664902529E+03  0.29664902529E+03  0.00000000000E+00 0. -1.
         21   -1    0    0  501  502 -0.00000000000E+00 -0.00000000000E+00 -0.17310440117E+03  0.17310440117E+03  0.00000000000E+00 0. -1.
      99926    2    1    2    0    0  0.00000000000E+00  0.00000000000E+00  0.12354462412E+03  0.46975342646E+03  0.45321629221E+03 0.  0.
      99925    2    3    3    0    0  0.47998788347E+02  0.29460084253E+02 -0.21901972114E+02  0.26981843527E+03  0.26296484819E+03 0.  0.
         25    1    4    4    0    0  0.16327259917E+02  0.47470001489E+01 -0.49448337251E+02  0.13557934792E+03  0.12509000000E+03 0.  0.
         25    1    3    3    0    0 -0.47998788347E+02 -0.29460084253E+02  0.14544659624E+03  0.19993499119E+03  0.12509000000E+03 0.  0.
         25    1    4    4    0    0  0.31671528431E+02  0.24713084104E+02  0.27546365137E+02  0.13423908735E+03  0.12509000000E+03 0.  0.
<mgrwt>
<rscale>  2 0.45321629E+03</rscale>
<asrwt>0</asrwt>
<pdfrwt beam="1">  1       21 0.43624857E-01 0.45321629E+03</pdfrwt>
<pdfrwt beam="2">  1       21 0.25456530E-01 0.45321629E+03</pdfrwt>
<totfact> 0.68417101E+04</totfact>
</mgrwt>
</event>
<event>
 7    0  0.4737014E-002  0.4576677E+03  0.7546771E-02  0.1025460E+00
         21   -1    0    0  502  501  0.00000000000E+00  0.00000000000E+00  0.73026400266E+02  0.73026400266E+02  0.00000000000E+00 0.  1.
         21   -1    0    0  501  502 -0.00000000000E+00 -0.00000000000E+00 -0.71706862740E+03  0.71706862740E+03  0.00000000000E+00 0.  1.
      99926    2    1    2    0    0  0.00000000000E+00 -0.44408920985E-15 -0.64404222713E+03  0.79009502766E+03  0.45766774238E+03 0.  0.
      99925    2    3    3    0    0  0.91128011345E+01  0.35406807366E+01 -0.60340121814E+03  0.65820575867E+03  0.26276645739E+03 0.  0.
         25    1    4    4    0    0  0.15139296625E+02 -0.34755569807E+02 -0.33385079808E+03  0.35852616559E+03  0.12509000000E+03 0.  0.
         25    1    4    4    0    0 -0.60264954906E+01  0.38296250544E+02 -0.26955042006E+03  0.29967959308E+03  0.12509000000E+03 0.  0.
         25    1    3    3    0    0 -0.91128011345E+01 -0.35406807366E+01 -0.40641008997E+02  0.13188926900E+03  0.12509000000E+03 0.  0.
<mgrwt>
<rscale>  2 0.45766774E+03</rscale>
<asrwt>0</asrwt>
<pdfrwt beam="1">  1       21 0.10739176E-01 0.45766774E+03</pdfrwt>
<pdfrwt beam="2">  1       21 0.10545127E+00 0.45766774E+03</pdfrwt>
<totfact> 0.47250547E+04</totfact>
</mgrwt>
</event>
<event>
 7    0  0.4737014E-002  0.4242431E+03  0.7546771E-02  0.1035694E+00
         21   -1    0    0  502  501  0.00000000000E+00  0.00000000000E+00  0.21938071088E+03  0.21938071088E+03  0.00000000000E+00 0.  1.
         21   -1    0    0  501  502 -0.00000000000E+00 -0.00000000000E+00 -0.20510256685E+03  0.20510256685E+03  0.00000000000E+00 0.  1.
      99926    2    1    2    0    0  0.00000000000E+00 -0.17763568394E-14  0.14278144023E+02  0.42448327773E+03  0.42424307617E+03 0.  0.
      99925    2    3    3    0    0  0.67921860184E+02  0.92063404668E+01 -0.34068137230E+02  0.27387449045E+03  0.26296095290E+03 0.  0.
         25    1    4    4    0    0  0.66686999528E+02  0.22344257579E+02  0.20003206141E+00  0.14350599244E+03  0.12509000000E+03 0.  0.
         25    1    3    3    0    0 -0.67921860184E+02 -0.92063404668E+01  0.48346281253E+02  0.15060878728E+03  0.12509000000E+03 0.  0.
         25    1    4    4    0    0  0.12348606560E+01 -0.13137917113E+02 -0.34268169291E+02  0.13036849801E+03  0.12509000000E+03 0.  0.
<mgrwt>
<rscale>  2 0.42424308E+03</rscale>
<asrwt>0</asrwt>
<pdfrwt beam="1">  1       21 0.32261869E-01 0.42424308E+03</pdfrwt>
<pdfrwt beam="2">  1       21 0.30162142E-01 0.42424308E+03</pdfrwt>
<totfact> 0.91265559E+04</totfact>
</mgrwt>
</event>
<event>
 7    0  0.4737014E-002  0.4581306E+03  0.7546771E-02  0.1025325E+00
         21   -1    0    0  502  501  0.00000000000E+00  0.00000000000E+00  0.12550148855E+04  0.12550148855E+04  0.00000000000E+00 0.  1.
         21   -1    0    0  501  502 -0.00000000000E+00 -0.00000000000E+00 -0.41809003997E+02  0.41809003997E+02  0.00000000000E+00 0.  1.
      99926    2    1    2    0    0 -0.14210854715E-13 -0.71054273576E-14  0.12132058815E+04  0.12968238895E+04  0.45813064671E+03 0.  0.
      99925    2    3    3    0    0 -0.10420274786E+03 -0.36445123597E+02  0.86136152641E+03  0.90742895116E+03  0.26324354222E+03 0.  0.
         25    1    3    3    0    0  0.10420274786E+03  0.36445123597E+02  0.35184435508E+03  0.38939493833E+03  0.12509000000E+03 0.  0.
         25    1    4    4    0    0 -0.37529159801E+02 -0.53284211771E+02  0.37931988718E+03  0.40469584872E+03  0.12509000000E+03 0.  0.
         25    1    4    4    0    0 -0.66673588056E+02  0.16839088174E+02  0.48204163923E+03  0.50273310244E+03  0.12509000000E+03 0.  0.
<mgrwt>
<rscale>  2 0.45813065E+03</rscale>
<asrwt>0</asrwt>
<pdfrwt beam="1">  1       21 0.18456099E+00 0.45813065E+03</pdfrwt>
<pdfrwt beam="2">  1       21 0.61483838E-02 0.45813065E+03</pdfrwt>
<totfact> 0.28506608E+04</totfact>
</mgrwt>
</event>
<event>
 7    0  0.4737014E-002  0.4573697E+03  0.7546771E-02  0.1025547E+00
         21   -1    0    0  502  501  0.00000000000E+00  0.00000000000E+00  0.34522995963E+03  0.34522995963E+03  0.00000000000E+00 0. -1.
         21   -1    0    0  501  502 -0.00000000000E+00 -0.00000000000E+00 -0.15148382695E+03  0.15148382695E+03  0.00000000000E+00 0. -1.
      99926    2    1    2    0    0  0.14210854715E-13  0.00000000000E+00  0.19374613268E+03  0.49671378658E+03  0.45736967745E+03 0.  0.
      99925    2    3    3    0    0 -0.11304784889E+03  0.11489723719E+02  0.10016531844E+03  0.30353846004E+03  0.26304120555E+03 0.  0.
         25    1    4    4    0    0 -0.80510785669E+02 -0.18468430404E+02  0.78134237315E+02  0.16904300243E+03  0.12509000000E+03 0.  0.
         25    1    3    3    0    0  0.11304784889E+03 -0.11489723719E+02  0.93580814243E+02  0.19317532654E+03  0.12509000000E+03 0.  0.
         25    1    4    4    0    0 -0.32537063222E+02  0.29958154122E+02  0.22031081125E+02  0.13449545761E+03  0.12509000000E+03 0.  0.
<mgrwt>
<rscale>  2 0.45736968E+03</rscale>
<asrwt>0</asrwt>
<pdfrwt beam="1">  1       21 0.50769112E-01 0.45736968E+03</pdfrwt>
<pdfrwt beam="2">  1       21 0.22277033E-01 0.45736968E+03</pdfrwt>
<totfact> 0.64284311E+04</totfact>
</mgrwt>
</event>
<event>
 7    0  0.4737014E-002  0.4403610E+03  0.7546771E-02  0.1030636E+00
         21   -1    0    0  502  501  0.00000000000E+00  0.00000000000E+00  0.27272197280E+03  0.27272197280E+03  0.00000000000E+00 0.  1.
         21   -1    0    0  501  502 -0.00000000000E+00 -0.00000000000E+00 -0.17776146242E+03  0.17776146242E+03  0.00000000000E+00 0.  1.
      99926    2    1    2    0    0  0.00000000000E+00  0.14210854715E-13  0.94960510380E+02  0.45048343523E+03  0.44036101881E+03 0.  0.
      99925    2    3    3    0    0  0.59600785986E+00 -0.75730541966E+02 -0.44097642212E+01  0.27368572657E+03  0.26296189971E+03 0.  0.
         25    1    3    3    0    0 -0.59600785986E+00  0.75730541966E+02  0.99370274601E+02  0.17679770866E+03  0.12509000000E+03 0.  0.
         25    1    4    4    0    0 -0.46983419715E+01 -0.24081887950E+02  0.35801377097E+02  0.13240565867E+03  0.12509000000E+03 0.  0.
         25    1    4    4    0    0  0.52943498314E+01 -0.51648654016E+02 -0.40211141318E+02  0.14128006791E+03  0.12509000000E+03 0.  0.
<mgrwt>
<rscale>  2 0.44036102E+03</rscale>
<asrwt>0</asrwt>
<pdfrwt beam="1">  1       21 0.40106173E-01 0.44036102E+03</pdfrwt>
<pdfrwt beam="2">  1       21 0.26141391E-01 0.44036102E+03</pdfrwt>
<totfact> 0.77534573E+04</totfact>
</mgrwt>
</event>
<event>
 7    0  0.4737014E-002  0.4129734E+03  0.7546771E-02  0.1039378E+00
         21   -1    0    0  502  501  0.00000000000E+00  0.00000000000E+00  0.21915460022E+03  0.21915460022E+03  0.00000000000E+00 0. -1.
         21   -1    0    0  501  502 -0.00000000000E+00 -0.00000000000E+00 -0.19455100721E+03  0.19455100721E+03  0.00000000000E+00 0. -1.
      99926    2    1    2    0    0  0.66613381478E-15  0.35527136788E-14  0.24603593008E+02  0.41370560743E+03  0.41297335608E+03 0.  0.
      99925    2    3    3    0    0 -0.12394643141E+01 -0.15092622707E+02 -0.48616005229E+02  0.26797317728E+03  0.26309082888E+03 0.  0.
         25    1    4    4    0    0 -0.90100691950E+01  0.31461510996E+02 -0.15426028180E+02  0.13021704369E+03  0.12509000000E+03 0.  0.
         25    1    3    3    0    0  0.12394643141E+01  0.15092622707E+02  0.73219598237E+02  0.14573243015E+03  0.12509000000E+03 0.  0.
         25    1    4    4    0    0  0.77706048808E+01 -0.46554133703E+02 -0.33189977049E+02  0.13775613359E+03  0.12509000000E+03 0.  0.
<mgrwt>
<rscale>  2 0.41297336E+03</rscale>
<asrwt>0</asrwt>
<pdfrwt beam="1">  1       21 0.32228618E-01 0.41297336E+03</pdfrwt>
<pdfrwt beam="2">  1       21 0.28610442E-01 0.41297336E+03</pdfrwt>
<totfact> 0.10175919E+05</totfact>
</mgrwt>
</event>
<event>
 7    0  0.4737014E-002  0.4548045E+03  0.7546771E-02  0.1026299E+00
         21   -1    0    0  502  501  0.00000000000E+00  0.00000000000E+00  0.36885495351E+03  0.36885495351E+03  0.00000000000E+00 0.  1.
         21   -1    0    0  501  502 -0.00000000000E+00 -0.00000000000E+00 -0.14019541930E+03  0.14019541930E+03  0.00000000000E+00 0.  1.
      99926    2    1    2    0    0  0.00000000000E+00  0.00000000000E+00  0.22865953421E+03  0.50905037282E+03  0.45480446291E+03 0.  0.
      99925    2    3    3    0    0  0.71604139105E+02  0.10855063154E+02  0.46775567772E+02  0.27672673975E+03  0.26295389258E+03 0.  0.
         25    1    4    4    0    0  0.45753157419E+02 -0.66177078188E+01  0.61704473173E+02  0.14694249072E+03  0.12509000000E+03 0.  0.
         25    1    3    3    0    0 -0.71604139105E+02 -0.10855063154E+02  0.18188396644E+03  0.23232363306E+03  0.12509000000E+03 0.  0.
         25    1    4    4    0    0  0.25850981685E+02  0.17472770973E+02 -0.14928905400E+02  0.12978424903E+03  0.12509000000E+03 0.  0.
<mgrwt>
<rscale>  2 0.45480446E+03</rscale>
<asrwt>0</asrwt>
<pdfrwt beam="1">  1       21 0.54243375E-01 0.45480446E+03</pdfrwt>
<pdfrwt beam="2">  1       21 0.20616973E-01 0.45480446E+03</pdfrwt>
<totfact> 0.64739817E+04</totfact>
</mgrwt>
</event>
<event>
 7    0  0.4737014E-002  0.4513904E+03  0.7546771E-02  0.1027308E+00
         21   -1    0    0  502  501  0.00000000000E+00  0.00000000000E+00  0.13280183159E+04  0.13280183159E+04  0.00000000000E+00 0.  1.
         21   -1    0    0  501  502 -0.00000000000E+00 -0.00000000000E+00 -0.38356637783E+02  0.38356637783E+02  0.00000000000E+00 0.  1.
      99926    2    1    2    0    0  0.71054273576E-14  0.00000000000E+00  0.12896616782E+04  0.13663749537E+04  0.45139037435E+03 0.  0.
      99925    2    3    3    0    0  0.44216643497E+02 -0.41836164693E+02  0.53742788103E+03  0.60138569244E+03  0.26292707644E+03 0.  0.
         25    1    4    4    0    0  0.22141715915E+01  0.38878613567E+01  0.19669278569E+03  0.23314282761E+03  0.12509000000E+03 0.  0.
         25    1    4    4    0    0  0.42002471905E+02 -0.45724026050E+02  0.34073509534E+03  0.36824286483E+03  0.12509000000E+03 0.  0.
         25    1    3    3    0    0 -0.44216643497E+02  0.41836164693E+02  0.75223379714E+03  0.76498926129E+03  0.12509000000E+03 0.  0.
<mgrwt>
<rscale>  2 0.45139037E+03</rscale>
<asrwt>0</asrwt>
<pdfrwt beam="1">  1       21 0.19529678E+00 0.45139037E+03</pdfrwt>
<pdfrwt beam="2">  1       21 0.56406829E-02 0.45139037E+03</pdfrwt>
<totfact> 0.28019930E+04</totfact>
</mgrwt>
</event>
<event>
 7    0  0.4737014E-002  0.4638173E+03  0.7546771E-02  0.1023680E+00
         21   -1    0    0  502  501  0.00000000000E+00  0.00000000000E+00  0.71313985598E+02  0.71313985598E+02  0.00000000000E+00 0.  1.
         21   -1    0    0  501  502 -0.00000000000E+00 -0.00000000000E+00 -0.75415265028E+03  0.75415265028E+03  0.00000000000E+00 0.  1.
      99926    2    1    2    0    0  0.00000000000E+00  0.00000000000E+00 -0.68283866468E+03  0.82546663588E+03  0.46381734008E+03 0.  0.
      99925    2    3    3    0    0 -0.81148256601E+02  0.87497047329E+02 -0.46417094905E+03  0.54671253133E+03  0.26305731150E+03 0.  0.
         25    1    4    4    0    0 -0.35678171440E+02  0.34181904377E+02 -0.15058360420E+03  0.20190162074E+03  0.12509000000E+03 0.  0.
         25    1    4    4    0    0 -0.45470085161E+02  0.53315142952E+02 -0.31358734485E+03  0.34481091059E+03  0.12509000000E+03 0.  0.
         25    1    3    3    0    0  0.81148256601E+02 -0.87497047329E+02 -0.21866771563E+03  0.27875410454E+03  0.12509000000E+03 0.  0.
<mgrwt>
<rscale>  2 0.46381734E+03</rscale>
<asrwt>0</asrwt>
<pdfrwt beam="1">  1       21 0.10487351E-01 0.46381734E+03</pdfrwt>
<pdfrwt beam="2">  1       21 0.11090480E+00 0.46381734E+03</pdfrwt>
<totfact> 0.43471100E+04</totfact>
</mgrwt>
</event>
<event>
 7    0  0.4737014E-002  0.4558981E+03  0.7546771E-02  0.1025978E+00
         21   -1    0    0  502  501  0.00000000000E+00  0.00000000000E+00  0.39260540984E+03  0.39260540984E+03  0.00000000000E+00 0. -1.
         21   -1    0    0  501  502 -0.00000000000E+00 -0.00000000000E+00 -0.13234856424E+03  0.13234856424E+03  0.00000000000E+00 0. -1.
      99926    2    1    2    0    0 -0.71054273576E-14  0.00000000000E+00  0.26025684560E+03  0.52495397409E+03  0.45589806890E+03 0.  0.
      99925    2    3    3    0    0 -0.48961012379E+02  0.72985559237E+02  0.80038724607E+02  0.28862760690E+03  0.26301259559E+03 0.  0.
         25    1    3    3    0    0  0.48961012379E+02 -0.72985559237E+02  0.18021812099E+03  0.23632636718E+03  0.12509000000E+03 0.  0.
         25    1    4    4    0    0 -0.46844852466E+02  0.70742236658E+02  0.31391053087E+02  0.15437555041E+03  0.12509000000E+03 0.  0.
         25    1    4    4    0    0 -0.21161599135E+01  0.22433225785E+01  0.48647671519E+02  0.13425205650E+03  0.12509000000E+03 0.  0.
<mgrwt>
<rscale>  2 0.45589807E+03</rscale>
<asrwt>0</asrwt>
<pdfrwt beam="1">  1       21 0.57736089E-01 0.45589807E+03</pdfrwt>
<pdfrwt beam="2">  1       21 0.19463024E-01 0.45589807E+03</pdfrwt>
<totfact> 0.63098966E+04</totfact>
</mgrwt>
</event>
<event>
 7    0  0.4737014E-002  0.3968122E+03  0.7546771E-02  0.1044889E+00
         21   -1    0    0  502  501  0.00000000000E+00  0.00000000000E+00  0.20177785880E+03  0.20177785880E+03  0.00000000000E+00 0. -1.
         21   -1    0    0  501  502 -0.00000000000E+00 -0.00000000000E+00 -0.19509065860E+03  0.19509065860E+03  0.00000000000E+00 0. -1.
      99926    2    1    2    0    0  0.00000000000E+00  0.00000000000E+00  0.66872002023E+01  0.39686851740E+03  0.39681217403E+03 0.  0.
      99925    2    3    3    0    0  0.28261329558E+02  0.23575576168E+02  0.20045043217E+02  0.26579429945E+03  0.26246960838E+03 0.  0.
         25    1    4    4    0    0  0.22956407003E+02  0.49917653716E+02  0.18250452473E+02  0.13783815107E+03  0.12509000000E+03 0.  0.
         25    1    3    3    0    0 -0.28261329558E+02 -0.23575576168E+02 -0.13357843015E+02  0.13107421795E+03  0.12509000000E+03 0.  0.
         25    1    4    4    0    0  0.53049225547E+01 -0.26342077548E+02  0.17945907440E+01  0.12795614838E+03  0.12509000000E+03 0.  0.
<mgrwt>
<rscale>  2 0.39681217E+03</rscale>
<asrwt>0</asrwt>
<pdfrwt beam="1">  1       21 0.29673215E-01 0.39681217E+03</pdfrwt>
<pdfrwt beam="2">  1       21 0.28689803E-01 0.39681217E+03</pdfrwt>
<totfact> 0.11966683E+05</totfact>
</mgrwt>
</event>
<event>
 7    0  0.4737014E-002  0.4592848E+03  0.7546771E-02  0.1024989E+00
         21   -1    0    0  502  501  0.00000000000E+00  0.00000000000E+00  0.76201875152E+03  0.76201875152E+03  0.00000000000E+00 0. -1.
         21   -1    0    0  501  502 -0.00000000000E+00 -0.00000000000E+00 -0.69205166076E+02  0.69205166076E+02  0.00000000000E+00 0. -1.
      99926    2    1    2    0    0  0.71054273576E-14  0.17763568394E-14  0.69281358544E+03  0.83122391760E+03  0.45928481034E+03 0.  0.
      99925    2    3    3    0    0  0.34375887331E+02 -0.99905938762E+01  0.23217868936E+03  0.35256586722E+03  0.26289586026E+03 0.  0.
         25    1    4    4    0    0 -0.15178725970E+02 -0.25368773516E+02  0.95257499351E+02  0.15998583586E+03  0.12509000000E+03 0.  0.
         25    1    4    4    0    0  0.49554613301E+02  0.15378179639E+02  0.13692119001E+03  0.19258003137E+03  0.12509000000E+03 0.  0.
         25    1    3    3    0    0 -0.34375887331E+02  0.99905938762E+01  0.46063489608E+03  0.47865805037E+03  0.12509000000E+03 0.  0.
<mgrwt>
<rscale>  2 0.45928481E+03</rscale>
<asrwt>0</asrwt>
<pdfrwt beam="1">  1       21 0.11206158E+00 0.45928481E+03</pdfrwt>
<pdfrwt beam="2">  1       21 0.10177231E-01 0.45928481E+03</pdfrwt>
<totfact> 0.44767234E+04</totfact>
</mgrwt>
</event>
<event>
 7    0  0.4737014E-002  0.4530338E+03  0.7546771E-02  0.1026821E+00
         21   -1    0    0  502  501  0.00000000000E+00  0.00000000000E+00  0.67325970033E+03  0.67325970033E+03  0.00000000000E+00 0.  1.
         21   -1    0    0  501  502 -0.00000000000E+00 -0.00000000000E+00 -0.76211176680E+02  0.76211176680E+02  0.00000000000E+00 0.  1.
      99926    2    1    2    0    0  0.00000000000E+00  0.71054273576E-14  0.59704852365E+03  0.74947087701E+03  0.45303383526E+03 0.  0.
      99925    2    3    3    0    0 -0.17395767651E+01  0.49643775237E+02  0.54157716187E+03  0.60389577397E+03  0.26252000498E+03 0.  0.
         25    1    3    3    0    0  0.17395767651E+01 -0.49643775237E+02  0.55471361779E+02  0.14557510304E+03  0.12509000000E+03 0.  0.
         25    1    4    4    0    0 -0.20729916784E+02 -0.57614527964E+01  0.22152475646E+03  0.25531088816E+03  0.12509000000E+03 0.  0.
         25    1    4    4    0    0  0.18990340019E+02  0.55405228034E+02  0.32005240541E+03  0.34858488581E+03  0.12509000000E+03 0.  0.
<mgrwt>
<rscale>  2 0.45303384E+03</rscale>
<asrwt>0</asrwt>
<pdfrwt beam="1">  1       21 0.99008777E-01 0.45303384E+03</pdfrwt>
<pdfrwt beam="2">  1       21 0.11207526E-01 0.45303384E+03</pdfrwt>
<totfact> 0.51082771E+04</totfact>
</mgrwt>
</event>
<event>
 7    0  0.4737014E-002  0.4546344E+03  0.7546771E-02  0.1026349E+00
         21   -1    0    0  502  501  0.00000000000E+00  0.00000000000E+00  0.82213100493E+02  0.82213100493E+02  0.00000000000E+00 0.  1.
         21   -1    0    0  501  502 -0.00000000000E+00 -0.00000000000E+00 -0.62852639646E+03  0.62852639646E+03  0.00000000000E+00 0.  1.
      99926    2    1    2    0    0  0.00000000000E+00  0.00000000000E+00 -0.54631329597E+03  0.71073949696E+03  0.45463437527E+03 0.  0.
      99925    2    3    3    0    0  0.57636611432E+02 -0.96117204922E+02 -0.32655876561E+03  0.43415305880E+03  0.26322567316E+03 0.  0.
         25    1    3    3    0    0 -0.57636611432E+02  0.96117204922E+02 -0.21975453036E+03  0.27658643816E+03  0.12509000000E+03 0.  0.
         25    1    4    4    0    0  0.24542473616E+02 -0.17543763189E+02 -0.19479826353E+03  0.23346089226E+03  0.12509000000E+03 0.  0.
         25    1    4    4    0    0  0.33094137816E+02 -0.78573441733E+02 -0.13176050208E+03  0.20069216654E+03  0.12509000000E+03 0.  0.
<mgrwt>
<rscale>  2 0.45463438E+03</rscale>
<asrwt>0</asrwt>
<pdfrwt beam="1">  1       21 0.12090162E-01 0.45463438E+03</pdfrwt>
<pdfrwt beam="2">  1       21 0.92430355E-01 0.45463438E+03</pdfrwt>
<totfact> 0.52474544E+04</totfact>
</mgrwt>
</event>
<event>
 7    0  0.4737014E-002  0.4544709E+03  0.7546771E-02  0.1026397E+00
         21   -1    0    0  502  501  0.00000000000E+00  0.00000000000E+00  0.70754755807E+02  0.70754755807E+02  0.00000000000E+00 0.  1.
         21   -1    0    0  501  502 -0.00000000000E+00 -0.00000000000E+00 -0.72978778293E+03  0.72978778293E+03  0.00000000000E+00 0.  1.
      99926    2    1    2    0    0  0.00000000000E+00  0.00000000000E+00 -0.65903302713E+03  0.80054253874E+03  0.45447092920E+03 0.  0.
      99925    2    3    3    0    0  0.83172376582E+01 -0.26613179841E+01 -0.61283117285E+03  0.66690729453E+03  0.26292020468E+03 0.  0.
         25    1    4    4    0    0 -0.16258299366E+02  0.17782224627E+02 -0.23042825849E+03  0.26329684810E+03  0.12509000000E+03 0.  0.
         25    1    4    4    0    0  0.24575537025E+02 -0.20443542612E+02 -0.38240291436E+03  0.40361044643E+03  0.12509000000E+03 0.  0.
         25    1    3    3    0    0 -0.83172376582E+01  0.26613179841E+01 -0.46201854275E+02  0.13363524421E+03  0.12509000000E+03 0.  0.
<mgrwt>
<rscale>  2 0.45447093E+03</rscale>
<asrwt>0</asrwt>
<pdfrwt beam="1">  1       21 0.10405111E-01 0.45447093E+03</pdfrwt>
<pdfrwt beam="2">  1       21 0.10732173E+00 0.45447093E+03</pdfrwt>
<totfact> 0.47937303E+04</totfact>
</mgrwt>
</event>
<event>
 7    0  0.4737014E-002  0.4538579E+03  0.7546771E-02  0.1026578E+00
         21   -1    0    0  502  501  0.00000000000E+00  0.00000000000E+00  0.40696173619E+03  0.40696173619E+03  0.00000000000E+00 0. -1.
         21   -1    0    0  501  502 -0.00000000000E+00 -0.00000000000E+00 -0.12653953086E+03  0.12653953086E+03  0.00000000000E+00 0. -1.
      99926    2    1    2    0    0 -0.71054273576E-14 -0.14210854715E-13  0.28042220532E+03  0.53350126705E+03  0.45385789484E+03 0.  0.
      99925    2    3    3    0    0 -0.63588798794E+02 -0.78508794191E+02  0.23392618991E+03  0.36611980557E+03  0.26289747737E+03 0.  0.
         25    1    4    4    0    0 -0.36143619285E+02 -0.93911803919E+01  0.14704065238E+03  0.19662913578E+03  0.12509000000E+03 0.  0.
         25    1    3    3    0    0  0.63588798794E+02  0.78508794191E+02  0.46496015415E+02  0.16738146148E+03  0.12509000000E+03 0.  0.
         25    1    4    4    0    0 -0.27445179509E+02 -0.69117613799E+02  0.86885537523E+02  0.16949066979E+03  0.12509000000E+03 0.  0.
<mgrwt>
<rscale>  2 0.45385789E+03</rscale>
<asrwt>0</asrwt>
<pdfrwt beam="1">  1       21 0.59847314E-01 0.45385789E+03</pdfrwt>
<pdfrwt beam="2">  1       21 0.18608755E-01 0.45385789E+03</pdfrwt>
<totfact> 0.63542583E+04</totfact>
</mgrwt>
</event>
<event>
 7    0  0.4737014E-002  0.4756174E+03  0.7546771E-02  0.1020347E+00
         21   -1    0    0  502  501  0.00000000000E+00  0.00000000000E+00  0.14484316576E+03  0.14484316576E+03  0.00000000000E+00 0. -1.
         21   -1    0    0  501  502 -0.00000000000E+00 -0.00000000000E+00 -0.39044288163E+03  0.39044288163E+03  0.00000000000E+00 0. -1.
      99926    2    1    2    0    0 -0.14210854715E-13  0.00000000000E+00 -0.24559971586E+03  0.53528604739E+03  0.47561742199E+03 0.  0.
      99925    2    3    3    0    0  0.90415173669E+02  0.24306036993E+02 -0.47801552095E+02  0.28321996725E+03  0.26298835412E+03 0.  0.
         25    1    4    4    0    0  0.46015772289E+02  0.88962457023E+01  0.17088353058E+02  0.13467039169E+03  0.12509000000E+03 0.  0.
         25    1    4    4    0    0  0.44399401380E+02  0.15409791291E+02 -0.64889905153E+02  0.14854957557E+03  0.12509000000E+03 0.  0.
         25    1    3    3    0    0 -0.90415173669E+02 -0.24306036993E+02 -0.19779816377E+03  0.25206608013E+03  0.12509000000E+03 0.  0.
<mgrwt>
<rscale>  2 0.47561742E+03</rscale>
<asrwt>0</asrwt>
<pdfrwt beam="1">  1       21 0.21300465E-01 0.47561742E+03</pdfrwt>
<pdfrwt beam="2">  1       21 0.57418071E-01 0.47561742E+03</pdfrwt>
<totfact> 0.53547881E+04</totfact>
</mgrwt>
</event>
<event>
 7    0  0.4737014E-002  0.4530200E+03  0.7546771E-02  0.1026825E+00
         21   -1    0    0  502  501  0.00000000000E+00  0.00000000000E+00  0.88043068979E+02  0.88043068979E+02  0.00000000000E+00 0.  1.
         21   -1    0    0  501  502 -0.00000000000E+00 -0.00000000000E+00 -0.58274638163E+03  0.58274638163E+03  0.00000000000E+00 0.  1.
      99926    2    1    2    0    0  0.00000000000E+00  0.00000000000E+00 -0.49470331265E+03  0.67078945060E+03  0.45301999901E+03 0.  0.
      99925    2    3    3    0    0 -0.83779489868E+02 -0.73337201938E+02 -0.31204070441E+03  0.42297806132E+03  0.26295187970E+03 0.  0.
         25    1    4    4    0    0 -0.44153373534E+02 -0.10602427948E+02 -0.19604223708E+03  0.23694302837E+03  0.12509000000E+03 0.  0.
         25    1    3    3    0    0  0.83779489868E+02  0.73337201938E+02 -0.18266260823E+03  0.24781138928E+03  0.12509000000E+03 0.  0.
         25    1    4    4    0    0 -0.39626116334E+02 -0.62734773990E+02 -0.11599846733E+03  0.18603503295E+03  0.12509000000E+03 0.  0.
<mgrwt>
<rscale>  2 0.45302000E+03</rscale>
<asrwt>0</asrwt>
<pdfrwt beam="1">  1       21 0.12947510E-01 0.45302000E+03</pdfrwt>
<pdfrwt beam="2">  1       21 0.85697997E-01 0.45302000E+03</pdfrwt>
<totfact> 0.55377158E+04</totfact>
</mgrwt>
</event>
<event>
 7    0  0.4777468E-002  0.4337488E+03  0.7546771E-02  0.1032682E+00
         21   -1    0    0  502  501  0.00000000000E+00  0.00000000000E+00  0.12687171189E+03  0.12687171189E+03  0.00000000000E+00 0.  1.
         21   -1    0    0  501  502 -0.00000000000E+00 -0.00000000000E+00 -0.37072498305E+03  0.37072498305E+03  0.00000000000E+00 0.  1.
      99926    2    1    2    0    0  0.00000000000E+00  0.00000000000E+00 -0.24385327117E+03  0.49759669494E+03  0.43374883626E+03 0.  0.
      99925    2    3    3    0    0 -0.69815316119E+02  0.74395133075E+01 -0.22263386057E+03  0.35258877719E+03  0.26424133894E+03 0.  0.
         25    1    4    4    0    0  0.42294088352E+01 -0.47033966797E+01 -0.80279191302E+02  0.14876917186E+03  0.12509000000E+03 0.  0.
         25    1    4    4    0    0 -0.74044724954E+02  0.12142909987E+02 -0.14235466926E+03  0.20381960533E+03  0.12509000000E+03 0.  0.
         25    1    3    3    0    0  0.69815316119E+02 -0.74395133075E+01 -0.21219410602E+02  0.14500791775E+03  0.12509000000E+03 0.  0.
<mgrwt>
<rscale>  2 0.43374884E+03</rscale>
<asrwt>0</asrwt>
<pdfrwt beam="1">  1       21 0.18657605E-01 0.43374884E+03</pdfrwt>
<pdfrwt beam="2">  1       21 0.54518380E-01 0.43374884E+03</pdfrwt>
<totfact> 0.77747285E+04</totfact>
</mgrwt>
</event>
<event>
 7    0  0.4737014E-002  0.4547526E+03  0.7546771E-02  0.1026314E+00
         21   -1    0    0  502  501  0.00000000000E+00  0.00000000000E+00  0.59210677646E+03  0.59210677646E+03  0.00000000000E+00 0.  1.
         21   -1    0    0  501  502 -0.00000000000E+00 -0.00000000000E+00 -0.87315293349E+02  0.87315293349E+02  0.00000000000E+00 0.  1.
      99926    2    1    2    0    0  0.71054273576E-14  0.00000000000E+00  0.50479148311E+03  0.67942206981E+03  0.45475257836E+03 0.  0.
      99925    2    3    3    0    0 -0.34868602114E+02  0.84147628356E+02  0.41743136958E+03  0.50172586752E+03  0.26302709948E+03 0.  0.
         25    1    3    3    0    0  0.34868602114E+02 -0.84147628356E+02  0.87360113530E+02  0.17769620229E+03  0.12509000000E+03 0.  0.
         25    1    4    4    0    0 -0.16381098377E+02  0.83975481223E+02  0.21495115782E+03  0.26300519041E+03  0.12509000000E+03 0.  0.
         25    1    4    4    0    0 -0.18487503738E+02  0.17214713276E+00  0.20248021176E+03  0.23872067712E+03  0.12509000000E+03 0.  0.
<mgrwt>
<rscale>  2 0.45475258E+03</rscale>
<asrwt>0</asrwt>
<pdfrwt beam="1">  1       21 0.87074524E-01 0.45475258E+03</pdfrwt>
<pdfrwt beam="2">  1       21 0.12840485E-01 0.45475258E+03</pdfrwt>
<totfact> 0.54140363E+04</totfact>
</mgrwt>
</event>
<event>
 7    0  0.4737014E-002  0.4532715E+03  0.7546771E-02  0.1026751E+00
         21   -1    0    0  502  501  0.00000000000E+00  0.00000000000E+00  0.59632153173E+03  0.59632153173E+03  0.00000000000E+00 0. -1.
         21   -1    0    0  501  502 -0.00000000000E+00 -0.00000000000E+00 -0.86134353106E+02  0.86134353106E+02  0.00000000000E+00 0. -1.
      99926    2    1    2    0    0  0.00000000000E+00  0.00000000000E+00  0.51018717862E+03  0.68245588483E+03  0.45327152736E+03 0.  0.
      99925    2    3    3    0    0  0.68602639366E+02 -0.70830205098E+02  0.40246041344E+03  0.49016494870E+03  0.26184738392E+03 0.  0.
         25    1    4    4    0    0  0.79574532594E+00 -0.37764519328E+02  0.15422058670E+03  0.20213433551E+03  0.12509000000E+03 0.  0.
         25    1    4    4    0    0  0.67806894040E+02 -0.33065685770E+02  0.24823982674E+03  0.28803061319E+03  0.12509000000E+03 0.  0.
         25    1    3    3    0    0 -0.68602639366E+02  0.70830205098E+02  0.10772676519E+03  0.19229093613E+03  0.12509000000E+03 0.  0.
<mgrwt>
<rscale>  2 0.45327153E+03</rscale>
<asrwt>0</asrwt>
<pdfrwt beam="1">  1       21 0.87694341E-01 0.45327153E+03</pdfrwt>
<pdfrwt beam="2">  1       21 0.12666817E-01 0.45327153E+03</pdfrwt>
<totfact> 0.54605556E+04</totfact>
</mgrwt>
</event>
<event>
 7    0  0.4737014E-002  0.4683329E+03  0.7546771E-02  0.1022392E+00
         21   -1    0    0  502  501  0.00000000000E+00  0.00000000000E+00  0.48294506505E+03  0.48294506505E+03  0.00000000000E+00 0.  1.
         21   -1    0    0  501  502 -0.00000000000E+00 -0.00000000000E+00 -0.11354071500E+03  0.11354071500E+03  0.00000000000E+00 0.  1.
      99926    2    1    2    0    0  0.00000000000E+00 -0.35527136788E-14  0.36940435005E+03  0.59648578004E+03  0.46833290719E+03 0.  0.
      99925    2    3    3    0    0  0.64904495157E+02  0.69514984115E+01  0.93692144866E+02  0.28676712544E+03  0.26305179985E+03 0.  0.
         25    1    4    4    0    0  0.21434438773E+02  0.42627077673E+02  0.46366846629E+02  0.14168237534E+03  0.12509000000E+03 0.  0.
         25    1    4    4    0    0  0.43470056384E+02 -0.35675579261E+02  0.47325298237E+02  0.14508475010E+03  0.12509000000E+03 0.  0.
         25    1    3    3    0    0 -0.64904495157E+02 -0.69514984115E+01  0.27571220518E+03  0.30971865460E+03  0.12509000000E+03 0.  0.
<mgrwt>
<rscale>  2 0.46833291E+03</rscale>
<asrwt>0</asrwt>
<pdfrwt beam="1">  1       21 0.71021332E-01 0.46833291E+03</pdfrwt>
<pdfrwt beam="2">  1       21 0.16697164E-01 0.46833291E+03</pdfrwt>
<totfact> 0.53077621E+04</totfact>
</mgrwt>
</event>
<event>
 7    0  0.4737014E-002  0.4592548E+03  0.7546771E-02  0.1024998E+00
         21   -1    0    0  502  501  0.00000000000E+00  0.00000000000E+00  0.25091229572E+03  0.25091229572E+03  0.00000000000E+00 0. -1.
         21   -1    0    0  501  502 -0.00000000000E+00 -0.00000000000E+00 -0.21014810530E+03  0.21014810530E+03  0.00000000000E+00 0. -1.
      99926    2    1    2    0    0  0.00000000000E+00  0.00000000000E+00  0.40764190424E+02  0.46106040102E+03  0.45925480310E+03 0.  0.
      99925    2    3    3    0    0  0.36146972512E+02 -0.49999268875E+02 -0.74241595735E+02  0.28028327453E+03  0.26313564741E+03 0.  0.
         25    1    4    4    0    0  0.40952788709E+02 -0.17523892351E+02 -0.34054940367E+01  0.13282817169E+03  0.12509000000E+03 0.  0.
         25    1    4    4    0    0 -0.48058161971E+01 -0.32475376524E+02 -0.70836101698E+02  0.14745510284E+03  0.12509000000E+03 0.  0.
         25    1    3    3    0    0 -0.36146972512E+02  0.49999268875E+02  0.11500578616E+03  0.18077712648E+03  0.12509000000E+03 0.  0.
<mgrwt>
<rscale>  2 0.45925480E+03</rscale>
<asrwt>0</asrwt>
<pdfrwt beam="1">  1       21 0.36898867E-01 0.45925480E+03</pdfrwt>
<pdfrwt beam="2">  1       21 0.30904133E-01 0.45925480E+03</pdfrwt>
<totfact> 0.65840422E+04</totfact>
</mgrwt>
</event>
<event>
 7    0  0.4737014E-002  0.4740910E+03  0.7546771E-02  0.1020772E+00
         21   -1    0    0  502  501  0.00000000000E+00  0.00000000000E+00  0.53866706225E+02  0.53866706225E+02  0.00000000000E+00 0.  1.
         21   -1    0    0  501  502 -0.00000000000E+00 -0.00000000000E+00 -0.10431408976E+04  0.10431408976E+04  0.00000000000E+00 0.  1.
      99926    2    1    2    0    0 -0.14210854715E-13  0.14210854715E-13 -0.98927419142E+03  0.10970076039E+04  0.47409097981E+03 0.  0.
      99925    2    3    3    0    0  0.78498195588E+02 -0.96983284508E+02 -0.52790540073E+03  0.60296672164E+03  0.26328127755E+03 0.  0.
         25    1    4    4    0    0  0.29740266057E+02 -0.57321474009E+02 -0.18412239816E+03  0.23177316586E+03  0.12509000000E+03 0.  0.
         25    1    3    3    0    0 -0.78498195588E+02  0.96983284508E+02 -0.46136879069E+03  0.49404088222E+03  0.12509000000E+03 0.  0.
         25    1    4    4    0    0  0.48757929530E+02 -0.39661810499E+02 -0.34378300256E+03  0.37119355578E+03  0.12509000000E+03 0.  0.
<mgrwt>
<rscale>  2 0.47409098E+03</rscale>
<asrwt>0</asrwt>
<pdfrwt beam="1">  1       21 0.79215739E-02 0.47409098E+03</pdfrwt>
<pdfrwt beam="2">  1       21 0.15340308E+00 0.47409098E+03</pdfrwt>
<totfact> 0.30755679E+04</totfact>
</mgrwt>
</event>
<event>
 7    0  0.4737014E-002  0.4520336E+03  0.7546771E-02  0.1027117E+00
         21   -1    0    0  502  501  0.00000000000E+00  0.00000000000E+00  0.28202644550E+03  0.28202644550E+03  0.00000000000E+00 0.  1.
         21   -1    0    0  501  502 -0.00000000000E+00 -0.00000000000E+00 -0.18113052778E+03  0.18113052778E+03  0.00000000000E+00 0.  1.
      99926    2    1    2    0    0  0.00000000000E+00 -0.35527136788E-14  0.10089591772E+03  0.46315697328E+03  0.45203362229E+03 0.  0.
      99925    2    3    3    0    0  0.10720241228E+03 -0.53724617598E+01  0.42302844307E+02  0.28822305176E+03  0.26412454711E+03 0.  0.
         25    1    4    4    0    0  0.56962788540E+02 -0.44813323484E+02  0.18076721045E+02  0.14569581045E+03  0.12509000000E+03 0.  0.
         25    1    4    4    0    0  0.50239623740E+02  0.39440861725E+02  0.24226123261E+02  0.14252724131E+03  0.12509000000E+03 0.  0.
         25    1    3    3    0    0 -0.10720241228E+03  0.53724617598E+01  0.58593073418E+02  0.17493392151E+03  0.12509000000E+03 0.  0.
<mgrwt>
<rscale>  2 0.45203362E+03</rscale>
<asrwt>0</asrwt>
<pdfrwt beam="1">  1       21 0.41474477E-01 0.45203362E+03</pdfrwt>
<pdfrwt beam="2">  1       21 0.26636842E-01 0.45203362E+03</pdfrwt>
<totfact> 0.69571104E+04</totfact>
</mgrwt>
</event>
<event>
 7    0  0.4737014E-002  0.4522716E+03  0.7546771E-02  0.1027047E+00
         21   -1    0    0  502  501  0.00000000000E+00  0.00000000000E+00  0.71188285068E+03  0.71188285068E+03  0.00000000000E+00 0.  1.
         21   -1    0    0  501  502 -0.00000000000E+00 -0.00000000000E+00 -0.71834018249E+02  0.71834018249E+02  0.00000000000E+00 0.  1.
      99926    2    1    2    0    0  0.17763568394E-14  0.00000000000E+00  0.64004883243E+03  0.78371686893E+03  0.45227162496E+03 0.  0.
      99925    2    3    3    0    0 -0.10037651127E+02 -0.86679559310E+02  0.52143693559E+03  0.59050612747E+03  0.26303404407E+03 0.  0.
         25    1    3    3    0    0  0.10037651127E+02  0.86679559310E+02  0.11861189684E+03  0.19321074146E+03  0.12509000000E+03 0.  0.
         25    1    4    4    0    0 -0.59467726686E+01 -0.56354203119E+01  0.19788244950E+03  0.23424793273E+03  0.12509000000E+03 0.  0.
         25    1    4    4    0    0 -0.40908784582E+01 -0.81044138998E+02  0.32355448609E+03  0.35625819475E+03  0.12509000000E+03 0.  0.
<mgrwt>
<rscale>  2 0.45227162E+03</rscale>
<asrwt>0</asrwt>
<pdfrwt beam="1">  1       21 0.10468865E+00 0.45227162E+03</pdfrwt>
<pdfrwt beam="2">  1       21 0.10563827E-01 0.45227162E+03</pdfrwt>
<totfact> 0.49616555E+04</totfact>
</mgrwt>
</event>
<event>
 7    0  0.4737014E-002  0.4526344E+03  0.7546771E-02  0.1026939E+00
         21   -1    0    0  502  501  0.00000000000E+00  0.00000000000E+00  0.15402100527E+03  0.15402100527E+03  0.00000000000E+00 0.  1.
         21   -1    0    0  501  502 -0.00000000000E+00 -0.00000000000E+00 -0.33254861962E+03  0.33254861962E+03  0.00000000000E+00 0.  1.
      99926    2    1    2    0    0 -0.14210854715E-13  0.35527136788E-14 -0.17852761434E+03  0.48656962489E+03  0.45263438975E+03 0.  0.
      99925    2    3    3    0    0 -0.82688993444E+02 -0.10929910745E+02 -0.19115702606E+03  0.33569238099E+03  0.26304264570E+03 0.  0.
         25    1    4    4    0    0 -0.44602546384E+02 -0.33170635514E+02 -0.61001098018E+02  0.14986100315E+03  0.12509000000E+03 0.  0.
         25    1    3    3    0    0  0.82688993444E+02  0.10929910745E+02  0.12629411720E+02  0.15087724390E+03  0.12509000000E+03 0.  0.
         25    1    4    4    0    0 -0.38086447060E+02  0.22240724769E+02 -0.13015592804E+03  0.18583137785E+03  0.12509000000E+03 0.  0.
<mgrwt>
<rscale>  2 0.45263439E+03</rscale>
<asrwt>0</asrwt>
<pdfrwt beam="1">  1       21 0.22650148E-01 0.45263439E+03</pdfrwt>
<pdfrwt beam="2">  1       21 0.48904208E-01 0.45263439E+03</pdfrwt>
<totfact> 0.67483340E+04</totfact>
</mgrwt>
</event>
<event>
 7    0  0.4737014E-002  0.4593459E+03  0.7546771E-02  0.1024971E+00
         21   -1    0    0  502  501  0.00000000000E+00  0.00000000000E+00  0.29745608901E+03  0.29745608901E+03  0.00000000000E+00 0. -1.
         21   -1    0    0  501  502 -0.00000000000E+00 -0.00000000000E+00 -0.17733593840E+03  0.17733593840E+03  0.00000000000E+00 0. -1.
      99926    2    1    2    0    0  0.00000000000E+00 -0.14210854715E-13  0.12012015061E+03  0.47479202741E+03  0.45934585957E+03 0.  0.
      99925    2    3    3    0    0  0.62028905031E+02  0.98600663009E+02  0.62483296953E+02  0.29440580065E+03  0.26306071020E+03 0.  0.
         25    1    4    4    0    0  0.73603493988E+01  0.15637896148E+02  0.43376533675E+02  0.13352059883E+03  0.12509000000E+03 0.  0.
         25    1    4    4    0    0  0.54668555632E+02  0.82962766861E+02  0.19106763277E+02  0.16088520182E+03  0.12509000000E+03 0.  0.
         25    1    3    3    0    0 -0.62028905031E+02 -0.98600663009E+02  0.57636853657E+02  0.18038622676E+03  0.12509000000E+03 0.  0.
<mgrwt>
<rscale>  2 0.45934586E+03</rscale>
<asrwt>0</asrwt>
<pdfrwt beam="1">  1       21 0.43743542E-01 0.45934586E+03</pdfrwt>
<pdfrwt beam="2">  1       21 0.26078815E-01 0.45934586E+03</pdfrwt>
<totfact> 0.64817213E+04</totfact>
</mgrwt>
</event>
<event>
 7    0  0.4737014E-002  0.4826837E+03  0.7546771E-02  0.1018400E+00
         21   -1    0    0  502  501  0.00000000000E+00  0.00000000000E+00  0.44135556328E+03  0.44135556328E+03  0.00000000000E+00 0. -1.
         21   -1    0    0  501  502 -0.00000000000E+00 -0.00000000000E+00 -0.13197042129E+03  0.13197042129E+03  0.00000000000E+00 0. -1.
      99926    2    1    2    0    0 -0.14210854715E-13  0.00000000000E+00  0.30938514199E+03  0.57332598457E+03  0.48268366297E+03 0.  0.
      99925    2    3    3    0    0  0.87462559974E+02 -0.59110737224E+02  0.29478686837E+03  0.40899584021E+03  0.26312453495E+03 0.  0.
         25    1    4    4    0    0  0.76211361374E+01 -0.49632483749E+02  0.13790663943E+03  0.19283986740E+03  0.12509000000E+03 0.  0.
         25    1    4    4    0    0  0.79841423837E+02 -0.94782534753E+01  0.15688022894E+03  0.21615597281E+03  0.12509000000E+03 0.  0.
         25    1    3    3    0    0 -0.87462559974E+02  0.59110737224E+02  0.14598273612E+02  0.16433014436E+03  0.12509000000E+03 0.  0.
<mgrwt>
<rscale>  2 0.48268366E+03</rscale>
<asrwt>0</asrwt>
<pdfrwt beam="1">  1       21 0.64905229E-01 0.48268366E+03</pdfrwt>
<pdfrwt beam="2">  1       21 0.19407415E-01 0.48268366E+03</pdfrwt>
<totfact> 0.48762772E+04</totfact>
</mgrwt>
</event>
<event>
 7    0  0.4737014E-002  0.4481900E+03  0.7546771E-02  0.1028263E+00
         21   -1    0    0  502  501  0.00000000000E+00  0.00000000000E+00  0.41863048089E+03  0.41863048089E+03  0.00000000000E+00 0. -1.
         21   -1    0    0  501  502 -0.00000000000E+00 -0.00000000000E+00 -0.11995920005E+03  0.11995920005E+03  0.00000000000E+00 0. -1.
      99926    2    1    2    0    0  0.00000000000E+00  0.00000000000E+00  0.29867128083E+03  0.53858968094E+03  0.44819003829E+03 0.  0.
      99925    2    3    3    0    0  0.51327198762E+02 -0.80857448439E+02  0.13270901578E+03  0.30975919822E+03  0.26299556976E+03 0.  0.
         25    1    4    4    0    0  0.65967546758E+02 -0.51688577611E+02  0.68632415921E+02  0.16547308813E+03  0.12509000000E+03 0.  0.
         25    1    4    4    0    0 -0.14640347996E+02 -0.29168870828E+02  0.64076599862E+02  0.14428611009E+03  0.12509000000E+03 0.  0.
         25    1    3    3    0    0 -0.51327198762E+02  0.80857448439E+02  0.16596226505E+03  0.22883048272E+03  0.12509000000E+03 0.  0.
<mgrwt>
<rscale>  2 0.44819004E+03</rscale>
<asrwt>0</asrwt>
<pdfrwt beam="1">  1       21 0.61563306E-01 0.44819004E+03</pdfrwt>
<pdfrwt beam="2">  1       21 0.17641059E-01 0.44819004E+03</pdfrwt>
<totfact> 0.66118932E+04</totfact>
</mgrwt>
</event>
<event>
 7    0  0.4737014E-002  0.4575723E+03  0.7546771E-02  0.1025488E+00
         21   -1    0    0  502  501  0.00000000000E+00  0.00000000000E+00  0.41597575691E+03  0.41597575691E+03  0.00000000000E+00 0.  1.
         21   -1    0    0  501  502 -0.00000000000E+00 -0.00000000000E+00 -0.12583207926E+03  0.12583207926E+03  0.00000000000E+00 0.  1.
      99926    2    1    2    0    0  0.00000000000E+00  0.00000000000E+00  0.29014367765E+03  0.54180783617E+03  0.45757226496E+03 0.  0.
      99925    2    3    3    0    0  0.88446270311E+02  0.22694856077E+02  0.98342096835E+02  0.29528572007E+03  0.26302982577E+03 0.  0.
         25    1    4    4    0    0  0.81819620189E+02  0.31721870739E+02  0.56373731388E+02  0.16286876012E+03  0.12509000000E+03 0.  0.
         25    1    3    3    0    0 -0.88446270311E+02 -0.22694856077E+02  0.19180158082E+03  0.24652211610E+03  0.12509000000E+03 0.  0.
         25    1    4    4    0    0  0.66266501223E+01 -0.90270146616E+01  0.41968365447E+02  0.13241695996E+03  0.12509000000E+03 0.  0.
<mgrwt>
<rscale>  2 0.45757226E+03</rscale>
<asrwt>0</asrwt>
<pdfrwt beam="1">  1       21 0.61172905E-01 0.45757226E+03</pdfrwt>
<pdfrwt beam="2">  1       21 0.18504718E-01 0.45757226E+03</pdfrwt>
<totfact> 0.61156685E+04</totfact>
</mgrwt>
</event>
<event>
 7    0  0.4737014E-002  0.4598777E+03  0.7546771E-02  0.1024817E+00
         21   -1    0    0  502  501  0.00000000000E+00  0.00000000000E+00  0.21730959622E+04  0.21730959622E+04  0.00000000000E+00 0. -1.
         21   -1    0    0  501  502 -0.00000000000E+00 -0.00000000000E+00 -0.24330209579E+02  0.24330209579E+02  0.00000000000E+00 0. -1.
      99926    2    1    2    0    0  0.00000000000E+00  0.00000000000E+00  0.21487657526E+04  0.21974261718E+04  0.45987772373E+03 0.  0.
      99925    2    3    3    0    0  0.10044790472E+03  0.90749684467E+01  0.16356563027E+04  0.16597450839E+04  0.26307806103E+03 0.  0.
         25    1    4    4    0    0  0.71967103061E+02  0.19154124864E+02  0.67593493140E+03  0.69143451173E+03  0.12509000000E+03 0.  0.
         25    1    4    4    0    0  0.28480801655E+02 -0.10079156418E+02  0.95972137132E+03  0.96831057214E+03  0.12509000000E+03 0.  0.
         25    1    3    3    0    0 -0.10044790472E+03 -0.90749684467E+01  0.51310944988E+03  0.53768108788E+03  0.12509000000E+03 0.  0.
<mgrwt>
<rscale>  2 0.45987772E+03</rscale>
<asrwt>0</asrwt>
<pdfrwt beam="1">  1       21 0.31957280E+00 0.45987772E+03</pdfrwt>
<pdfrwt beam="2">  1       21 0.35779735E-02 0.45987772E+03</pdfrwt>
<totfact> 0.10348598E+04</totfact>
</mgrwt>
</event>
<event>
 7    0  0.4737014E-002  0.4517627E+03  0.7546771E-02  0.1027198E+00
         21   -1    0    0  502  501  0.00000000000E+00  0.00000000000E+00  0.22310015994E+03  0.22310015994E+03  0.00000000000E+00 0. -1.
         21   -1    0    0  501  502 -0.00000000000E+00 -0.00000000000E+00 -0.22869717681E+03  0.22869717681E+03  0.00000000000E+00 0. -1.
      99926    2    1    2    0    0  0.00000000000E+00  0.35527136788E-14 -0.55970168780E+01  0.45179733675E+03  0.45176266656E+03 0.  0.
      99925    2    3    3    0    0  0.90491219211E+02  0.16651133782E+02 -0.64065725305E+02  0.28586958447E+03  0.26296593155E+03 0.  0.
         25    1    3    3    0    0 -0.90491219211E+02 -0.16651133782E+02  0.58468708427E+02  0.16592775228E+03  0.12509000000E+03 0.  0.
         25    1    4    4    0    0  0.40292714040E+02 -0.16840791994E+02  0.10022595350E+01  0.13249765169E+03  0.12509000000E+03 0.  0.
         25    1    4    4    0    0  0.50198505171E+02  0.33491925776E+02 -0.65067984840E+02  0.15337193278E+03  0.12509000000E+03 0.  0.
<mgrwt>
<rscale>  2 0.45176267E+03</rscale>
<asrwt>0</asrwt>
<pdfrwt beam="1">  1       21 0.32808847E-01 0.45176267E+03</pdfrwt>
<pdfrwt beam="2">  1       21 0.33631938E-01 0.45176267E+03</pdfrwt>
<totfact> 0.70586806E+04</totfact>
</mgrwt>
</event>
<event>
 7    0  0.4737014E-002  0.4548898E+03  0.7546771E-02  0.1026274E+00
         21   -1    0    0  502  501  0.00000000000E+00  0.00000000000E+00  0.21355116113E+03  0.21355116113E+03  0.00000000000E+00 0. -1.
         21   -1    0    0  501  502 -0.00000000000E+00 -0.00000000000E+00 -0.24224259507E+03  0.24224259507E+03  0.00000000000E+00 0. -1.
      99926    2    1    2    0    0  0.00000000000E+00  0.00000000000E+00 -0.28691433942E+02  0.45579375620E+03  0.45488982161E+03 0.  0.
      99925    2    3    3    0    0  0.78719268733E+02 -0.41191864441E+02  0.51949431395E+02  0.28246184849E+03  0.26304459597E+03 0.  0.
         25    1    3    3    0    0 -0.78719268733E+02  0.41191864441E+02 -0.80640865337E+02  0.17333190770E+03  0.12509000000E+03 0.  0.
         25    1    4    4    0    0  0.48038072760E+02 -0.11726378311E+02 -0.13185906524E+02  0.13515376655E+03  0.12509000000E+03 0.  0.
         25    1    4    4    0    0  0.30681195973E+02 -0.29465486130E+02  0.65135337919E+02  0.14730808194E+03  0.12509000000E+03 0.  0.
<mgrwt>
<rscale>  2 0.45488982E+03</rscale>
<asrwt>0</asrwt>
<pdfrwt beam="1">  1       21 0.31404583E-01 0.45488982E+03</pdfrwt>
<pdfrwt beam="2">  1       21 0.35623911E-01 0.45488982E+03</pdfrwt>
<totfact> 0.68547957E+04</totfact>
</mgrwt>
</event>
<event>
 7    0  0.4737014E-002  0.4533943E+03  0.7546771E-02  0.1026715E+00
         21   -1    0    0  502  501  0.00000000000E+00  0.00000000000E+00  0.13905072066E+03  0.13905072066E+03  0.00000000000E+00 0.  1.
         21   -1    0    0  501  502 -0.00000000000E+00 -0.00000000000E+00 -0.36958884576E+03  0.36958884576E+03  0.00000000000E+00 0.  1.
      99926    2    1    2    0    0 -0.14210854715E-13  0.00000000000E+00 -0.23053812511E+03  0.50863956642E+03  0.45339428911E+03 0.  0.
      99925    2    3    3    0    0 -0.64393716070E+02  0.82231210829E+02 -0.18945401259E+03  0.34058024622E+03  0.26304668507E+03 0.  0.
         25    1    4    4    0    0 -0.40129522484E+02  0.77421003324E+02 -0.12773039444E+03  0.19891443410E+03  0.12509000000E+03 0.  0.
         25    1    3    3    0    0  0.64393716070E+02 -0.82231210829E+02 -0.41084112519E+02  0.16805932020E+03  0.12509000000E+03 0.  0.
         25    1    4    4    0    0 -0.24264193586E+02  0.48102075046E+01 -0.61723618146E+02  0.14166581212E+03  0.12509000000E+03 0.  0.
<mgrwt>
<rscale>  2 0.45339429E+03</rscale>
<asrwt>0</asrwt>
<pdfrwt beam="1">  1       21 0.20448636E-01 0.45339429E+03</pdfrwt>
<pdfrwt beam="2">  1       21 0.54351301E-01 0.45339429E+03</pdfrwt>
<totfact> 0.65498580E+04</totfact>
</mgrwt>
</event>
<event>
 6    0  0.4737014E-002  0.4834291E+03  0.7546771E-02  0.1018197E+00
         21   -1    0    0  502  501  0.00000000000E+00  0.00000000000E+00  0.52554403999E+03  0.52554403999E+03  0.00000000000E+00 0.  1.
         21   -1    0    0  501  502 -0.00000000000E+00 -0.00000000000E+00 -0.11117227348E+03  0.11117227348E+03  0.00000000000E+00 0.  1.
      99926    2    1    2    0    0  0.00000000000E+00 -0.17763568394E-14  0.41437176652E+03  0.63671631347E+03  0.48342910851E+03 0.  0.
         25    1    3    3    0    0  0.20352771285E+00 -0.21832277372E+02  0.21074296477E+02  0.12871800119E+03  0.12509000000E+03 0.  0.
         25    1    3    3    0    0  0.55434132964E+02  0.12788718984E+02  0.32885958966E+03  0.35641637483E+03  0.12509000000E+03 0.  0.
         25    1    3    3    0    0 -0.55637660677E+02  0.90435583881E+01  0.64437880377E+02  0.15158193745E+03  0.12509000000E+03 0.  0.
<mgrwt>
<rscale>  2 0.48342911E+03</rscale>
<asrwt>0</asrwt>
<pdfrwt beam="1">  1       21 0.77285887E-01 0.48342911E+03</pdfrwt>
<pdfrwt beam="2">  1       21 0.16348864E-01 0.48342911E+03</pdfrwt>
<totfact> 0.45395122E+04</totfact>
</mgrwt>
</event>
<event>
 7    0  0.4737014E-002  0.4567015E+03  0.7546771E-02  0.1025742E+00
         21   -1    0    0  502  501  0.00000000000E+00  0.00000000000E+00  0.34379997684E+03  0.34379997684E+03  0.00000000000E+00 0.  1.
         21   -1    0    0  501  502 -0.00000000000E+00 -0.00000000000E+00 -0.15166975092E+03  0.15166975092E+03  0.00000000000E+00 0.  1.
      99926    2    1    2    0    0  0.00000000000E+00  0.00000000000E+00  0.19213022592E+03  0.49546972776E+03  0.45670146421E+03 0.  0.
      99925    2    3    3    0    0 -0.10716838093E+03  0.31269512618E+02  0.91923276111E+02  0.30014490809E+03  0.26300994823E+03 0.  0.
         25    1    4    4    0    0 -0.64583108073E+02  0.29004188519E+02  0.87705172493E+01  0.14400225996E+03  0.12509000000E+03 0.  0.
         25    1    4    4    0    0 -0.42585272861E+02  0.22653240992E+01  0.83152758862E+02  0.15614264813E+03  0.12509000000E+03 0.  0.
         25    1    3    3    0    0  0.10716838093E+03 -0.31269512618E+02  0.10020694981E+03  0.19532481967E+03  0.12509000000E+03 0.  0.
<mgrwt>
<rscale>  2 0.45670146E+03</rscale>
<asrwt>0</asrwt>
<pdfrwt beam="1">  1       21 0.50558820E-01 0.45670146E+03</pdfrwt>
<pdfrwt beam="2">  1       21 0.22304375E-01 0.45670146E+03</pdfrwt>
<totfact> 0.64711609E+04</totfact>
</mgrwt>
</event>
<event>
 7    0  0.4737014E-002  0.4663385E+03  0.7546771E-02  0.1022959E+00
         21   -1    0    0  502  501  0.00000000000E+00  0.00000000000E+00  0.48089589041E+03  0.48089589041E+03  0.00000000000E+00 0. -1.
         21   -1    0    0  501  502 -0.00000000000E+00 -0.00000000000E+00 -0.11305543403E+03  0.11305543403E+03  0.00000000000E+00 0. -1.
      99926    2    1    2    0    0  0.14210854715E-13  0.14210854715E-13  0.36784045638E+03  0.59395132445E+03  0.46633847628E+03 0.  0.
      99925    2    3    3    0    0  0.57600694157E+02  0.82251866405E+02  0.32091450163E+03  0.42682034939E+03  0.26288074064E+03 0.  0.
         25    1    4    4    0    0  0.69850981198E+02  0.44888516223E+02  0.17808459654E+03  0.23292868026E+03  0.12509000000E+03 0.  0.
         25    1    4    4    0    0 -0.12250287041E+02  0.37363350182E+02  0.14282990509E+03  0.19389166913E+03  0.12509000000E+03 0.  0.
         25    1    3    3    0    0 -0.57600694157E+02 -0.82251866405E+02  0.46925954758E+02  0.16713097506E+03  0.12509000000E+03 0.  0.
<mgrwt>
<rscale>  2 0.46633848E+03</rscale>
<asrwt>0</asrwt>
<pdfrwt beam="1">  1       21 0.70719983E-01 0.46633848E+03</pdfrwt>
<pdfrwt beam="2">  1       21 0.16625799E-01 0.46633848E+03</pdfrwt>
<totfact> 0.54044058E+04</totfact>
</mgrwt>
</event>
<event>
 7    0  0.4737014E-002  0.4596831E+03  0.7546771E-02  0.1024873E+00
         21   -1    0    0  502  501  0.00000000000E+00  0.00000000000E+00  0.27463141359E+03  0.27463141359E+03  0.00000000000E+00 0. -1.
         21   -1    0    0  501  502 -0.00000000000E+00 -0.00000000000E+00 -0.19235652487E+03  0.19235652487E+03  0.00000000000E+00 0. -1.
      99926    2    1    2    0    0 -0.14210854715E-13  0.00000000000E+00  0.82274888727E+02  0.46698793846E+03  0.45968312711E+03 0.  0.
      99925    2    3    3    0    0  0.10616317702E+03  0.44040375808E+02  0.76652154875E+02  0.29701941757E+03  0.26293498571E+03 0.  0.
         25    1    3    3    0    0 -0.10616317702E+03 -0.44040375808E+02  0.56227338524E+01  0.16996852089E+03  0.12509000000E+03 0.  0.
         25    1    4    4    0    0  0.39732027664E+02  0.13508058440E+02 -0.24084025281E+01  0.13196366988E+03  0.12509000000E+03 0.  0.
         25    1    4    4    0    0  0.66431149360E+02  0.30532317368E+02  0.79060557403E+02  0.16505574769E+03  0.12509000000E+03 0.  0.
<mgrwt>
<rscale>  2 0.45968313E+03</rscale>
<asrwt>0</asrwt>
<pdfrwt beam="1">  1       21 0.40386973E-01 0.45968313E+03</pdfrwt>
<pdfrwt beam="2">  1       21 0.28287724E-01 0.45968313E+03</pdfrwt>
<totfact> 0.65201499E+04</totfact>
</mgrwt>
</event>
<event>
 7    0  0.4737014E-002  0.4535251E+03  0.7546771E-02  0.1026676E+00
         21   -1    0    0  502  501  0.00000000000E+00  0.00000000000E+00  0.22684018458E+03  0.22684018458E+03  0.00000000000E+00 0. -1.
         21   -1    0    0  501  502 -0.00000000000E+00 -0.00000000000E+00 -0.22668494460E+03  0.22668494460E+03  0.00000000000E+00 0. -1.
      99926    2    1    2    0    0  0.00000000000E+00 -0.17763568394E-14  0.15523997464E+00  0.45352512918E+03  0.45352510261E+03 0.  0.
      99925    2    3    3    0    0  0.86549294743E+02 -0.10486279436E+02 -0.69915104124E+02  0.28572136373E+03  0.26295975629E+03 0.  0.
         25    1    4    4    0    0  0.13648808680E+02  0.22045154012E+02 -0.43797484414E+02  0.13504816376E+03  0.12509000000E+03 0.  0.
         25    1    3    3    0    0 -0.86549294743E+02  0.10486279436E+02  0.70070344099E+02  0.16780376545E+03  0.12509000000E+03 0.  0.
         25    1    4    4    0    0  0.72900486063E+02 -0.32531433447E+02 -0.26117619711E+02  0.15067319997E+03  0.12509000000E+03 0.  0.
<mgrwt>
<rscale>  2 0.45352510E+03</rscale>
<asrwt>0</asrwt>
<pdfrwt beam="1">  1       21 0.33358851E-01 0.45352510E+03</pdfrwt>
<pdfrwt beam="2">  1       21 0.33336021E-01 0.45352510E+03</pdfrwt>
<totfact> 0.69467888E+04</totfact>
</mgrwt>
</event>
<event>
 7    0  0.4737014E-002  0.4644790E+03  0.7546771E-02  0.1023490E+00
         21   -1    0    0  502  501  0.00000000000E+00  0.00000000000E+00  0.37702040821E+02  0.37702040821E+02  0.00000000000E+00 0. -1.
         21   -1    0    0  501  502 -0.00000000000E+00 -0.00000000000E+00 -0.14305639381E+04  0.14305639381E+04  0.00000000000E+00 0. -1.
      99926    2    1    2    0    0  0.00000000000E+00  0.00000000000E+00 -0.13928618973E+04  0.14682659790E+04  0.46447897689E+03 0.  0.
      99925    2    3    3    0    0  0.36894066653E+02  0.11558141156E+03 -0.83673632595E+03  0.88547665675E+03  0.26309883244E+03 0.  0.
         25    1    4    4    0    0  0.58498639354E+02  0.56361083003E+02 -0.45739923194E+03  0.48110313651E+03  0.12509000000E+03 0.  0.
         25    1    3    3    0    0 -0.36894066653E+02 -0.11558141156E+03 -0.55612557135E+03  0.58278932220E+03  0.12509000000E+03 0.  0.
         25    1    4    4    0    0 -0.21604572701E+02  0.59220328558E+02 -0.37933709402E+03  0.40437352024E+03  0.12509000000E+03 0.  0.
<mgrwt>
<rscale>  2 0.46447898E+03</rscale>
<asrwt>0</asrwt>
<pdfrwt beam="1">  1       21 0.55444172E-02 0.46447898E+03</pdfrwt>
<pdfrwt beam="2">  1       21 0.21037707E+00 0.46447898E+03</pdfrwt>
<totfact> 0.22839096E+04</totfact>
</mgrwt>
</event>
<event>
 7    0  0.4737014E-002  0.4541778E+03  0.7546771E-02  0.1026483E+00
         21   -1    0    0  502  501  0.00000000000E+00  0.00000000000E+00  0.26892186055E+03  0.26892186055E+03  0.00000000000E+00 0.  1.
         21   -1    0    0  501  502 -0.00000000000E+00 -0.00000000000E+00 -0.19176343174E+03  0.19176343174E+03  0.00000000000E+00 0.  1.
      99926    2    1    2    0    0  0.71054273576E-14  0.00000000000E+00  0.77158428803E+02  0.46068529229E+03  0.45417784556E+03 0.  0.
      99925    2    3    3    0    0 -0.41866676537E+02  0.41015069147E+02  0.14590647562E+03  0.30638410454E+03  0.26295905647E+03 0.  0.
         25    1    3    3    0    0  0.41866676537E+02 -0.41015069147E+02 -0.68748046822E+02  0.15430118776E+03  0.12509000000E+03 0.  0.
         25    1    4    4    0    0  0.81832419122E+01 -0.22948400733E+01  0.47790103415E+02  0.13417762043E+03  0.12509000000E+03 0.  0.
         25    1    4    4    0    0 -0.50049918449E+02  0.43309909221E+02  0.98116372210E+02  0.17220648411E+03  0.12509000000E+03 0.  0.
<mgrwt>
<rscale>  2 0.45417785E+03</rscale>
<asrwt>0</asrwt>
<pdfrwt beam="1">  1       21 0.39547333E-01 0.45417785E+03</pdfrwt>
<pdfrwt beam="2">  1       21 0.28200505E-01 0.45417785E+03</pdfrwt>
<totfact> 0.68578684E+04</totfact>
</mgrwt>
</event>
<event>
 7    0  0.4737014E-002  0.4569804E+03  0.7546771E-02  0.1025661E+00
         21   -1    0    0  502  501  0.00000000000E+00  0.00000000000E+00  0.64978571317E+03  0.64978571317E+03  0.00000000000E+00 0. -1.
         21   -1    0    0  501  502 -0.00000000000E+00 -0.00000000000E+00 -0.80346148422E+02  0.80346148422E+02  0.00000000000E+00 0. -1.
      99926    2    1    2    0    0  0.71054273576E-14  0.00000000000E+00  0.56943956475E+03  0.73013186159E+03  0.45698043438E+03 0.  0.
      99925    2    3    3    0    0  0.49005165679E+02 -0.93986557947E+02  0.42914561581E+03  0.51434289165E+03  0.26295944799E+03 0.  0.
         25    1    4    4    0    0 -0.15591146983E+02 -0.37397126305E+02  0.18750370489E+03  0.22901261181E+03  0.12509000000E+03 0.  0.
         25    1    4    4    0    0  0.64596312662E+02 -0.56589431642E+02  0.24164191092E+03  0.28533027984E+03  0.12509000000E+03 0.  0.
         25    1    3    3    0    0 -0.49005165679E+02  0.93986557947E+02  0.14029394894E+03  0.21578896994E+03  0.12509000000E+03 0.  0.
<mgrwt>
<rscale>  2 0.45698043E+03</rscale>
<asrwt>0</asrwt>
<pdfrwt beam="1">  1       21 0.95556720E-01 0.45698043E+03</pdfrwt>
<pdfrwt beam="2">  1       21 0.11815610E-01 0.45698043E+03</pdfrwt>
<totfact> 0.50506224E+04</totfact>
</mgrwt>
</event>
<event>
 7    0  0.4737014E-002  0.4588996E+03  0.7546771E-02  0.1025101E+00
         21   -1    0    0  502  501  0.00000000000E+00  0.00000000000E+00  0.12459643914E+03  0.12459643914E+03  0.00000000000E+00 0. -1.
         21   -1    0    0  501  502 -0.00000000000E+00 -0.00000000000E+00 -0.42254194420E+03  0.42254194420E+03  0.00000000000E+00 0. -1.
      99926    2    1    2    0    0  0.00000000000E+00  0.00000000000E+00 -0.29794550506E+03  0.54713838334E+03  0.45889964756E+03 0.  0.
      99925    2    3    3    0    0 -0.99077944688E+02  0.37068384402E+02 -0.12794785741E+03  0.31105108475E+03  0.26304299813E+03 0.  0.
         25    1    3    3    0    0  0.99077944688E+02 -0.37068384402E+02 -0.16999764765E+03  0.23608729859E+03  0.12509000000E+03 0.  0.
         25    1    4    4    0    0 -0.82437207453E+02  0.22868635755E+02 -0.40498233911E+02  0.15686453622E+03  0.12509000000E+03 0.  0.
         25    1    4    4    0    0 -0.16640737235E+02  0.14199748647E+02 -0.87449623499E+02  0.15418654853E+03  0.12509000000E+03 0.  0.
<mgrwt>
<rscale>  2 0.45889965E+03</rscale>
<asrwt>0</asrwt>
<pdfrwt beam="1">  1       21 0.18323006E-01 0.45889965E+03</pdfrwt>
<pdfrwt beam="2">  1       21 0.62138522E-01 0.45889965E+03</pdfrwt>
<totfact> 0.60177550E+04</totfact>
</mgrwt>
</event>
<event>
 7    0  0.4737014E-002  0.4517705E+03  0.7546771E-02  0.1027195E+00
         21   -1    0    0  502  501  0.00000000000E+00  0.00000000000E+00  0.14281461409E+03  0.14281461409E+03  0.00000000000E+00 0. -1.
         21   -1    0    0  501  502 -0.00000000000E+00 -0.00000000000E+00 -0.35727544357E+03  0.35727544357E+03  0.00000000000E+00 0. -1.
      99926    2    1    2    0    0  0.00000000000E+00  0.00000000000E+00 -0.21446082948E+03  0.50009005767E+03  0.45177053733E+03 0.  0.
      99925    2    3    3    0    0 -0.45927877190E+01  0.10955626885E+03 -0.12634181585E+03  0.31184516821E+03  0.26317576781E+03 0.  0.
         25    1    4    4    0    0 -0.59256903272E+01  0.88683114606E+02 -0.97417467838E+02  0.18176215162E+03  0.12509000000E+03 0.  0.
         25    1    3    3    0    0  0.45927877190E+01 -0.10955626885E+03 -0.88119013627E+02  0.18824488945E+03  0.12509000000E+03 0.  0.
         25    1    4    4    0    0  0.13329026082E+01  0.20873154241E+02 -0.28924348013E+02  0.13008301659E+03  0.12509000000E+03 0.  0.
<mgrwt>
<rscale>  2 0.45177054E+03</rscale>
<asrwt>0</asrwt>
<pdfrwt beam="1">  1       21 0.21002149E-01 0.45177054E+03</pdfrwt>
<pdfrwt beam="2">  1       21 0.52540507E-01 0.45177054E+03</pdfrwt>
<totfact> 0.66964563E+04</totfact>
</mgrwt>
</event>
<event>
 7    0  0.4737014E-002  0.4473245E+03  0.7546771E-02  0.1028523E+00
         21   -1    0    0  502  501  0.00000000000E+00  0.00000000000E+00  0.51376927176E+02  0.51376927176E+02  0.00000000000E+00 0. -1.
         21   -1    0    0  501  502 -0.00000000000E+00 -0.00000000000E+00 -0.97368203817E+03  0.97368203817E+03  0.00000000000E+00 0. -1.
      99926    2    1    2    0    0  0.00000000000E+00  0.00000000000E+00 -0.92230511099E+03  0.10250589653E+04  0.44732445123E+03 0.  0.
      99925    2    3    3    0    0  0.49752980443E+02 -0.19484990790E+02 -0.37616167812E+03  0.46223112195E+03  0.26325838654E+03 0.  0.
         25    1    3    3    0    0 -0.49752980443E+02  0.19484990790E+02 -0.54614343287E+03  0.56282784339E+03  0.12509000000E+03 0.  0.
         25    1    4    4    0    0  0.23255444627E+02 -0.15827832484E+02 -0.11861373568E+03  0.17466557296E+03  0.12509000000E+03 0.  0.
         25    1    4    4    0    0  0.26497535816E+02 -0.36571583060E+01 -0.25754794244E+03  0.28756554899E+03  0.12509000000E+03 0.  0.
<mgrwt>
<rscale>  2 0.44732445E+03</rscale>
<asrwt>0</asrwt>
<pdfrwt beam="1">  1       21 0.75554312E-02 0.44732445E+03</pdfrwt>
<pdfrwt beam="2">  1       21 0.14318852E+00 0.44732445E+03</pdfrwt>
<totfact> 0.40584087E+04</totfact>
</mgrwt>
</event>
<event>
 7    0  0.4737014E-002  0.4493547E+03  0.7546771E-02  0.1027915E+00
         21   -1    0    0  502  501  0.00000000000E+00  0.00000000000E+00  0.60095139695E+03  0.60095139695E+03  0.00000000000E+00 0. -1.
         21   -1    0    0  501  502 -0.00000000000E+00 -0.00000000000E+00 -0.83999985792E+02  0.83999985792E+02  0.00000000000E+00 0. -1.
      99926    2    1    2    0    0  0.00000000000E+00  0.71054273576E-14  0.51695141116E+03  0.68495138274E+03  0.44935468755E+03 0.  0.
      99925    2    3    3    0    0 -0.60725694874E+02  0.32252243461E+02  0.45300661262E+03  0.52854082496E+03  0.26346270199E+03 0.  0.
         25    1    3    3    0    0  0.60725694874E+02 -0.32252243461E+02  0.63944798534E+02  0.15641055778E+03  0.12509000000E+03 0.  0.
         25    1    4    4    0    0 -0.20454536235E+02 -0.59552708779E+01  0.28410581491E+03  0.31115506660E+03  0.12509000000E+03 0.  0.
         25    1    4    4    0    0 -0.40271158640E+02  0.38207514339E+02  0.16890079772E+03  0.21738575836E+03  0.12509000000E+03 0.  0.
<mgrwt>
<rscale>  2 0.44935469E+03</rscale>
<asrwt>0</asrwt>
<pdfrwt beam="1">  1       21 0.88375203E-01 0.44935469E+03</pdfrwt>
<pdfrwt beam="2">  1       21 0.12352939E-01 0.44935469E+03</pdfrwt>
<totfact> 0.56183634E+04</totfact>
</mgrwt>
</event>
<event>
 7    0  0.4737014E-002  0.4445543E+03  0.7546771E-02  0.1029359E+00
         21   -1    0    0  502  501  0.00000000000E+00  0.00000000000E+00  0.90875999564E+02  0.90875999564E+02  0.00000000000E+00 0. -1.
         21   -1    0    0  501  502 -0.00000000000E+00 -0.00000000000E+00 -0.54367631950E+03  0.54367631950E+03  0.00000000000E+00 0. -1.
      99926    2    1    2    0    0  0.00000000000E+00  0.00000000000E+00 -0.45280031993E+03  0.63455231906E+03  0.44455428903E+03 0.  0.
      99925    2    3    3    0    0  0.10935541120E+02 -0.88236514338E+02 -0.21309534982E+03  0.34992756729E+03  0.26293422317E+03 0.  0.
         25    1    3    3    0    0 -0.10935541120E+02  0.88236514338E+02 -0.23970497012E+03  0.28462475177E+03  0.12509000000E+03 0.  0.
         25    1    4    4    0    0 -0.52919298845E+00 -0.72346766122E+01 -0.12203104392E+03  0.17490484376E+03  0.12509000000E+03 0.  0.
         25    1    4    4    0    0  0.11464734108E+02 -0.81001837726E+02 -0.91064305893E+02  0.17502272353E+03  0.12509000000E+03 0.  0.
<mgrwt>
<rscale>  2 0.44455429E+03</rscale>
<asrwt>0</asrwt>
<pdfrwt beam="1">  1       21 0.13364118E-01 0.44455429E+03</pdfrwt>
<pdfrwt beam="2">  1       21 0.79952397E-01 0.44455429E+03</pdfrwt>
<totfact> 0.61517124E+04</totfact>
</mgrwt>
</event>
<event>
 7    0  0.4737014E-002  0.4536308E+03  0.7546771E-02  0.1026645E+00
         21   -1    0    0  502  501  0.00000000000E+00  0.00000000000E+00  0.90107804892E+03  0.90107804892E+03  0.00000000000E+00 0. -1.
         21   -1    0    0  501  502 -0.00000000000E+00 -0.00000000000E+00 -0.57092973724E+02  0.57092973724E+02  0.00000000000E+00 0. -1.
      99926    2    1    2    0    0  0.17763568394E-14  0.00000000000E+00  0.84398507520E+03  0.95817102265E+03  0.45363079865E+03 0.  0.
      99925    2    3    3    0    0  0.53868776234E+01  0.74254496549E+02  0.35522961199E+03  0.44819831787E+03  0.26296559888E+03 0.  0.
         25    1    4    4    0    0  0.27757998616E+02  0.54635846211E+01  0.18129184602E+03  0.22206890547E+03  0.12509000000E+03 0.  0.
         25    1    3    3    0    0 -0.53868776234E+01 -0.74254496549E+02  0.48875546321E+03  0.50997270478E+03  0.12509000000E+03 0.  0.
         25    1    4    4    0    0 -0.22371120992E+02  0.68790911927E+02  0.17393776598E+03  0.22612941240E+03  0.12509000000E+03 0.  0.
<mgrwt>
<rscale>  2 0.45363080E+03</rscale>
<asrwt>0</asrwt>
<pdfrwt beam="1">  1       21 0.13251147E+00 0.45363080E+03</pdfrwt>
<pdfrwt beam="2">  1       21 0.83960261E-02 0.45363080E+03</pdfrwt>
<totfact> 0.41251587E+04</totfact>
</mgrwt>
</event>
<event>
 7    0  0.4737014E-002  0.4536383E+03  0.7546771E-02  0.1026643E+00
         21   -1    0    0  502  501  0.00000000000E+00  0.00000000000E+00  0.93069844264E+03  0.93069844264E+03  0.00000000000E+00 0.  1.
         21   -1    0    0  501  502 -0.00000000000E+00 -0.00000000000E+00 -0.55277753918E+02  0.55277753918E+02  0.00000000000E+00 0.  1.
      99926    2    1    2    0    0 -0.14210854715E-13  0.00000000000E+00  0.87542068872E+03  0.98597619655E+03  0.45363826772E+03 0.  0.
      99925    2    3    3    0    0  0.10966101672E+03 -0.19267228469E+02  0.58103363646E+03  0.64729048780E+03  0.26265590458E+03 0.  0.
         25    1    4    4    0    0  0.19495262547E+02  0.67922223673E+01  0.29969538983E+03  0.32540902620E+03  0.12509000000E+03 0.  0.
         25    1    4    4    0    0  0.90165754168E+02 -0.26059450836E+02  0.28133824663E+03  0.32188146160E+03  0.12509000000E+03 0.  0.
         25    1    3    3    0    0 -0.10966101672E+03  0.19267228469E+02  0.29438705225E+03  0.33868570875E+03  0.12509000000E+03 0.  0.
<mgrwt>
<rscale>  2 0.45363827E+03</rscale>
<asrwt>0</asrwt>
<pdfrwt beam="1">  1       21 0.13686741E+00 0.45363827E+03</pdfrwt>
<pdfrwt beam="2">  1       21 0.81290820E-02 0.45363827E+03</pdfrwt>
<totfact> 0.40141886E+04</totfact>
</mgrwt>
</event>
<event>
 6    0  0.5947960E-002  0.4270323E+03  0.7546771E-02  0.1034802E+00
         21   -1    0    0  502  501  0.00000000000E+00  0.00000000000E+00  0.12658043888E+03  0.12658043888E+03  0.00000000000E+00 0.  1.
         21   -1    0    0  501  502 -0.00000000000E+00 -0.00000000000E+00 -0.36015941727E+03  0.36015941727E+03  0.00000000000E+00 0.  1.
      99926    2    1    2    0    0 -0.71054273576E-14  0.00000000000E+00 -0.23357897839E+03  0.48673985616E+03  0.42703225689E+03 0.  0.
         25    1    3    3    0    0  0.41613076341E+02 -0.26219846397E+02 -0.15433593599E+03  0.20466122668E+03  0.12509000000E+03 0.  0.
         25    1    3    3    0    0 -0.64737157852E+02  0.25225302339E+02 -0.34139085035E+02  0.14710608659E+03  0.12509000000E+03 0.  0.
         25    1    3    3    0    0  0.23124081511E+02  0.99454405780E+00 -0.45103957365E+02  0.13497254289E+03  0.12509000000E+03 0.  0.
<mgrwt>
<rscale>  2 0.42703226E+03</rscale>
<asrwt>0</asrwt>
<pdfrwt beam="1">  1       21 0.18614771E-01 0.42703226E+03</pdfrwt>
<pdfrwt beam="2">  1       21 0.52964619E-01 0.42703226E+03</pdfrwt>
<totfact> 0.83204374E+04</totfact>
</mgrwt>
</event>
<event>
 7    0  0.4737014E-002  0.4585451E+03  0.7546771E-02  0.1025204E+00
         21   -1    0    0  502  501  0.00000000000E+00  0.00000000000E+00  0.46520989176E+02  0.46520989176E+02  0.00000000000E+00 0. -1.
         21   -1    0    0  501  502 -0.00000000000E+00 -0.00000000000E+00 -0.11299392796E+04  0.11299392796E+04  0.00000000000E+00 0. -1.
      99926    2    1    2    0    0  0.00000000000E+00  0.71054273576E-14 -0.10834182905E+04  0.11764602688E+04  0.45854505993E+03 0.  0.
      99925    2    3    3    0    0 -0.82198804977E+02 -0.48170159574E+02 -0.85145017097E+03  0.89622157702E+03  0.26299945565E+03 0.  0.
         25    1    4    4    0    0 -0.45469815408E+02 -0.65230482831E+02 -0.45644515806E+03  0.47990854381E+03  0.12509000000E+03 0.  0.
         25    1    3    3    0    0  0.82198804977E+02  0.48170159574E+02 -0.23196811949E+03  0.28023869179E+03  0.12509000000E+03 0.  0.
         25    1    4    4    0    0 -0.36728989569E+02  0.17060323258E+02 -0.39500501290E+03  0.41631303321E+03  0.12509000000E+03 0.  0.
<mgrwt>
<rscale>  2 0.45854506E+03</rscale>
<asrwt>0</asrwt>
<pdfrwt beam="1">  1       21 0.68413220E-02 0.45854506E+03</pdfrwt>
<pdfrwt beam="2">  1       21 0.16616754E+00 0.45854506E+03</pdfrwt>
<totfact> 0.32017518E+04</totfact>
</mgrwt>
</event>
<event>
 7    0  0.4737014E-002  0.4500266E+03  0.7546771E-02  0.1027714E+00
         21   -1    0    0  502  501  0.00000000000E+00  0.00000000000E+00  0.11538285635E+04  0.11538285635E+04  0.00000000000E+00 0. -1.
         21   -1    0    0  501  502 -0.00000000000E+00 -0.00000000000E+00 -0.43880865600E+02  0.43880865600E+02  0.00000000000E+00 0. -1.
      99926    2    1    2    0    0 -0.14210854715E-13  0.17763568394E-14  0.11099476979E+04  0.11977094291E+04  0.45002664863E+03 0.  0.
      99925    2    3    3    0    0 -0.10727001414E+03  0.10085943511E+02  0.74597504094E+03  0.79804433767E+03  0.26227356136E+03 0.  0.
         25    1    4    4    0    0 -0.26991502475E+02  0.35381881595E+02  0.34981509624E+03  0.37416377218E+03  0.12509000000E+03 0.  0.
         25    1    4    4    0    0 -0.80278511670E+02 -0.25295938084E+02  0.39615994470E+03  0.42388056549E+03  0.12509000000E+03 0.  0.
         25    1    3    3    0    0  0.10727001414E+03 -0.10085943511E+02  0.36397265692E+03  0.39966509139E+03  0.12509000000E+03 0.  0.
<mgrwt>
<rscale>  2 0.45002665E+03</rscale>
<asrwt>0</asrwt>
<pdfrwt beam="1">  1       21 0.16968065E+00 0.45002665E+03</pdfrwt>
<pdfrwt beam="2">  1       21 0.64530692E-02 0.45002665E+03</pdfrwt>
<totfact> 0.33508126E+04</totfact>
</mgrwt>
</event>
<event>
 7    0  0.4737014E-002  0.4597115E+03  0.7546771E-02  0.1024865E+00
         21   -1    0    0  502  501  0.00000000000E+00  0.00000000000E+00  0.23324821710E+02  0.23324821710E+02  0.00000000000E+00 0.  1.
         21   -1    0    0  501  502 -0.00000000000E+00 -0.00000000000E+00 -0.22651263018E+04  0.22651263018E+04  0.00000000000E+00 0.  1.
      99926    2    1    2    0    0 -0.71054273576E-14  0.00000000000E+00 -0.22418014801E+04  0.22884511235E+04  0.45971150579E+03 0.  0.
      99925    2    3    3    0    0 -0.53341522108E+02  0.85792221937E+02 -0.17039658285E+04  0.17270953365E+04  0.26296983389E+03 0.  0.
         25    1    4    4    0    0 -0.17043743832E+02  0.27316039350E+02 -0.10373917112E+04  0.10454021837E+04  0.12509000000E+03 0.  0.
         25    1    4    4    0    0 -0.36297778275E+02  0.58476182587E+02 -0.66657411729E+03  0.68169315280E+03  0.12509000000E+03 0.  0.
         25    1    3    3    0    0  0.53341522108E+02 -0.85792221937E+02 -0.53783565162E+03  0.56135578698E+03  0.12509000000E+03 0.  0.
<mgrwt>
<rscale>  2 0.45971151E+03</rscale>
<asrwt>0</asrwt>
<pdfrwt beam="1">  1       21 0.34301247E-02 0.45971151E+03</pdfrwt>
<pdfrwt beam="2">  1       21 0.33310643E+00 0.45971151E+03</pdfrwt>
<totfact> 0.92045058E+03</totfact>
</mgrwt>
</event>
<event>
 7    0  0.4737014E-002  0.4561557E+03  0.7546771E-02  0.1025902E+00
         21   -1    0    0  502  501  0.00000000000E+00  0.00000000000E+00  0.11140678867E+03  0.11140678867E+03  0.00000000000E+00 0. -1.
         21   -1    0    0  501  502 -0.00000000000E+00 -0.00000000000E+00 -0.46693293887E+03  0.46693293887E+03  0.00000000000E+00 0. -1.
      99926    2    1    2    0    0  0.00000000000E+00  0.00000000000E+00 -0.35552615019E+03  0.57833972754E+03  0.45615567187E+03 0.  0.
      99925    2    3    3    0    0  0.99113613843E+02 -0.18219784472E+02 -0.15538018472E+03  0.32170499764E+03  0.26305063146E+03 0.  0.
         25    1    4    4    0    0  0.46802080187E+02 -0.39834684392E+02 -0.10848519004E+03  0.17661761336E+03  0.12509000000E+03 0.  0.
         25    1    4    4    0    0  0.52311533656E+02  0.21614899920E+02 -0.46894994680E+02  0.14508738428E+03  0.12509000000E+03 0.  0.
         25    1    3    3    0    0 -0.99113613843E+02  0.18219784472E+02 -0.20014596547E+03  0.25663472990E+03  0.12509000000E+03 0.  0.
<mgrwt>
<rscale>  2 0.45615567E+03</rscale>
<asrwt>0</asrwt>
<pdfrwt beam="1">  1       21 0.16383351E-01 0.45615567E+03</pdfrwt>
<pdfrwt beam="2">  1       21 0.68666609E-01 0.45615567E+03</pdfrwt>
<totfact> 0.59486339E+04</totfact>
</mgrwt>
</event>
<event>
 7    0  0.4737014E-002  0.4509672E+03  0.7546771E-02  0.1027434E+00
         21   -1    0    0  502  501  0.00000000000E+00  0.00000000000E+00  0.30733838322E+03  0.30733838322E+03  0.00000000000E+00 0.  1.
         21   -1    0    0  501  502 -0.00000000000E+00 -0.00000000000E+00 -0.16542952808E+03  0.16542952808E+03  0.00000000000E+00 0.  1.
      99926    2    1    2    0    0  0.00000000000E+00  0.00000000000E+00  0.14190885514E+03  0.47276791130E+03  0.45096715489E+03 0.  0.
      99925    2    3    3    0    0  0.65562922761E+02 -0.86364045090E+02  0.74545932128E+02  0.29404321625E+03  0.26295830830E+03 0.  0.
         25    1    3    3    0    0 -0.65562922761E+02  0.86364045090E+02  0.67362923008E+02  0.17872469505E+03  0.12509000000E+03 0.  0.
         25    1    4    4    0    0  0.32794655080E+02 -0.75839844599E+02  0.13091790469E+02  0.15048612730E+03  0.12509000000E+03 0.  0.
         25    1    4    4    0    0  0.32768267681E+02 -0.10524200491E+02  0.61454141659E+02  0.14355708896E+03  0.12509000000E+03 0.  0.
<mgrwt>
<rscale>  2 0.45096715E+03</rscale>
<asrwt>0</asrwt>
<pdfrwt beam="1">  1       21 0.45196821E-01 0.45096715E+03</pdfrwt>
<pdfrwt beam="2">  1       21 0.24327872E-01 0.45096715E+03</pdfrwt>
<totfact> 0.69425889E+04</totfact>
</mgrwt>
</event>
<event>
 7    0  0.4737014E-002  0.4537011E+03  0.7546771E-02  0.1026624E+00
         21   -1    0    0  502  501  0.00000000000E+00  0.00000000000E+00  0.46499161736E+02  0.46499161736E+02  0.00000000000E+00 0. -1.
         21   -1    0    0  501  502 -0.00000000000E+00 -0.00000000000E+00 -0.11067119899E+04  0.11067119899E+04  0.00000000000E+00 0. -1.
      99926    2    1    2    0    0  0.00000000000E+00  0.00000000000E+00 -0.10602128282E+04  0.11532111517E+04  0.45370113429E+03 0.  0.
      99925    2    3    3    0    0 -0.65142658108E+02  0.91049576757E+02 -0.66118049046E+03  0.72030480384E+03  0.26295584826E+03 0.  0.
         25    1    4    4    0    0 -0.43966965563E+02  0.64596302220E+01 -0.28526833697E+03  0.31464321550E+03  0.12509000000E+03 0.  0.
         25    1    3    3    0    0  0.65142658108E+02 -0.91049576757E+02 -0.39903233774E+03  0.43290634784E+03  0.12509000000E+03 0.  0.
         25    1    4    4    0    0 -0.21175692545E+02  0.84589946535E+02 -0.37591215349E+03  0.40566158833E+03  0.12509000000E+03 0.  0.
<mgrwt>
<rscale>  2 0.45370113E+03</rscale>
<asrwt>0</asrwt>
<pdfrwt beam="1">  1       21 0.68381123E-02 0.45370113E+03</pdfrwt>
<pdfrwt beam="2">  1       21 0.16275176E+00 0.45370113E+03</pdfrwt>
<totfact> 0.34018385E+04</totfact>
</mgrwt>
</event>
<event>
 7    0  0.4737014E-002  0.4544595E+03  0.7546771E-02  0.1026400E+00
         21   -1    0    0  502  501  0.00000000000E+00  0.00000000000E+00  0.12612424805E+03  0.12612424805E+03  0.00000000000E+00 0. -1.
         21   -1    0    0  501  502 -0.00000000000E+00 -0.00000000000E+00 -0.40938488088E+03  0.40938488088E+03  0.00000000000E+00 0. -1.
      99926    2    1    2    0    0  0.35527136788E-14 -0.14210854715E-13 -0.28326063283E+03  0.53550912892E+03  0.45445950430E+03 0.  0.
      99925    2    3    3    0    0  0.18065887746E+02 -0.10676144198E+03 -0.21485037451E+03  0.35647881490E+03  0.26304387515E+03 0.  0.
         25    1    4    4    0    0 -0.97573520235E+01 -0.56778201628E+02 -0.62548396742E+02  0.15125733084E+03  0.12509000000E+03 0.  0.
         25    1    3    3    0    0 -0.18065887746E+02  0.10676144198E+03 -0.68410258320E+02  0.17903031402E+03  0.12509000000E+03 0.  0.
         25    1    4    4    0    0  0.27823239769E+02 -0.49983240355E+02 -0.15230197777E+03  0.20522148406E+03  0.12509000000E+03 0.  0.
<mgrwt>
<rscale>  2 0.45445950E+03</rscale>
<asrwt>0</asrwt>
<pdfrwt beam="1">  1       21 0.18547684E-01 0.45445950E+03</pdfrwt>
<pdfrwt beam="2">  1       21 0.60203657E-01 0.45445950E+03</pdfrwt>
<totfact> 0.63103877E+04</totfact>
</mgrwt>
</event>
<event>
 7    0  0.4737014E-002  0.4505770E+03  0.7546771E-02  0.1027550E+00
         21   -1    0    0  502  501  0.00000000000E+00  0.00000000000E+00  0.11654188838E+04  0.11654188838E+04  0.00000000000E+00 0.  1.
         21   -1    0    0  501  502 -0.00000000000E+00 -0.00000000000E+00 -0.43550780796E+02  0.43550780796E+02  0.00000000000E+00 0.  1.
      99926    2    1    2    0    0  0.00000000000E+00  0.00000000000E+00  0.11218681030E+04  0.12089696646E+04  0.45057697387E+03 0.  0.
      99925    2    3    3    0    0 -0.43736024556E+02 -0.41930792878E+02  0.46563831844E+03  0.53818201601E+03  0.26296350988E+03 0.  0.
         25    1    3    3    0    0  0.43736024556E+02  0.41930792878E+02  0.65622978460E+03  0.67078764861E+03  0.12509000000E+03 0.  0.
         25    1    4    4    0    0 -0.29233983217E+02  0.40584137152E+00  0.29629329128E+03  0.32294273957E+03  0.12509000000E+03 0.  0.
         25    1    4    4    0    0 -0.14502041339E+02 -0.42336634250E+02  0.16934502715E+03  0.21523927644E+03  0.12509000000E+03 0.  0.
<mgrwt>
<rscale>  2 0.45057697E+03</rscale>
<asrwt>0</asrwt>
<pdfrwt beam="1">  1       21 0.17138511E+00 0.45057697E+03</pdfrwt>
<pdfrwt beam="2">  1       21 0.64045273E-02 0.45057697E+03</pdfrwt>
<totfact> 0.32995127E+04</totfact>
</mgrwt>
</event>
<event>
 7    0  0.4737014E-002  0.4539196E+03  0.7546771E-02  0.1026560E+00
         21   -1    0    0  502  501  0.00000000000E+00  0.00000000000E+00  0.17407604427E+04  0.17407604427E+04  0.00000000000E+00 0.  1.
         21   -1    0    0  501  502 -0.00000000000E+00 -0.00000000000E+00 -0.29590953781E+02  0.29590953781E+02  0.00000000000E+00 0.  1.
      99926    2    1    2    0    0  0.00000000000E+00  0.00000000000E+00  0.17111694890E+04  0.17703513965E+04  0.45391964842E+03 0.  0.
      99925    2    3    3    0    0 -0.54775049710E+02 -0.47825251745E+02  0.74494037614E+03  0.79334895674E+03  0.26301871109E+03 0.  0.
         25    1    4    4    0    0 -0.43415799036E+02  0.10959322334E+02  0.40385711942E+03  0.42515070194E+03  0.12509000000E+03 0.  0.
         25    1    3    3    0    0  0.54775049710E+02  0.47825251745E+02  0.96622911283E+03  0.97700243979E+03  0.12509000000E+03 0.  0.
         25    1    4    4    0    0 -0.11359250674E+02 -0.58784574079E+02  0.34108325672E+03  0.36819825480E+03  0.12509000000E+03 0.  0.
<mgrwt>
<rscale>  2 0.45391965E+03</rscale>
<asrwt>0</asrwt>
<pdfrwt beam="1">  1       21 0.25599411E+00 0.45391965E+03</pdfrwt>
<pdfrwt beam="2">  1       21 0.43516120E-02 0.45391965E+03</pdfrwt>
<totfact> 0.17986550E+04</totfact>
</mgrwt>
</event>
<event>
 7    0  0.4737014E-002  0.4585051E+03  0.7546771E-02  0.1025216E+00
         21   -1    0    0  502  501  0.00000000000E+00  0.00000000000E+00  0.29427757818E+03  0.29427757818E+03  0.00000000000E+00 0. -1.
         21   -1    0    0  501  502 -0.00000000000E+00 -0.00000000000E+00 -0.17859575809E+03  0.17859575809E+03  0.00000000000E+00 0. -1.
      99926    2    1    2    0    0  0.71054273576E-14 -0.14210854715E-13  0.11568182010E+03  0.47287333627E+03  0.45850508029E+03 0.  0.
      99925    2    3    3    0    0 -0.29549279412E+02  0.10972222202E+03  0.46610158335E+02  0.29030683201E+03  0.26304642924E+03 0.  0.
         25    1    3    3    0    0  0.29549279412E+02 -0.10972222202E+03  0.69071661765E+02  0.18256650426E+03  0.12509000000E+03 0.  0.
         25    1    4    4    0    0 -0.31410000395E+02  0.26672043236E+02  0.47894085600E+02  0.14014042083E+03  0.12509000000E+03 0.  0.
         25    1    4    4    0    0  0.18607209825E+01  0.83050178779E+02 -0.12839272654E+01  0.15016641118E+03  0.12509000000E+03 0.  0.
<mgrwt>
<rscale>  2 0.45850508E+03</rscale>
<asrwt>0</asrwt>
<pdfrwt beam="1">  1       21 0.43276115E-01 0.45850508E+03</pdfrwt>
<pdfrwt beam="2">  1       21 0.26264082E-01 0.45850508E+03</pdfrwt>
<totfact> 0.65385486E+04</totfact>
</mgrwt>
</event>
<event>
 7    0  0.4737014E-002  0.4394320E+03  0.7546771E-02  0.1030921E+00
         21   -1    0    0  502  501  0.00000000000E+00  0.00000000000E+00  0.59391539457E+03  0.59391539457E+03  0.00000000000E+00 0.  1.
         21   -1    0    0  501  502 -0.00000000000E+00 -0.00000000000E+00 -0.81282818370E+02  0.81282818370E+02  0.00000000000E+00 0.  1.
      99926    2    1    2    0    0  0.00000000000E+00  0.00000000000E+00  0.51263257620E+03  0.67519821294E+03  0.43943198402E+03 0.  0.
      99925    2    3    3    0    0 -0.70104674576E+02  0.18618932728E+02  0.42819046627E+03  0.50774879347E+03  0.26305974950E+03 0.  0.
         25    1    3    3    0    0  0.70104674576E+02 -0.18618932728E+02  0.84442109929E+02  0.16744941948E+03  0.12509000000E+03 0.  0.
         25    1    4    4    0    0 -0.31800690066E+02 -0.10261005463E+02  0.14454199220E+03  0.19405274472E+03  0.12509000000E+03 0.  0.
         25    1    4    4    0    0 -0.38303984511E+02  0.28879938191E+02  0.28364847407E+03  0.31369604875E+03  0.12509000000E+03 0.  0.
<mgrwt>
<rscale>  2 0.43943198E+03</rscale>
<asrwt>0</asrwt>
<pdfrwt beam="1">  1       21 0.87340497E-01 0.43943198E+03</pdfrwt>
<pdfrwt beam="2">  1       21 0.11953356E-01 0.43943198E+03</pdfrwt>
<totfact> 0.61467141E+04</totfact>
</mgrwt>
</event>
<event>
 7    0  0.4737014E-002  0.4535964E+03  0.7546771E-02  0.1026655E+00
         21   -1    0    0  502  501  0.00000000000E+00  0.00000000000E+00  0.21812265109E+03  0.21812265109E+03  0.00000000000E+00 0. -1.
         21   -1    0    0  501  502 -0.00000000000E+00 -0.00000000000E+00 -0.23581883506E+03  0.23581883506E+03  0.00000000000E+00 0. -1.
      99926    2    1    2    0    0  0.00000000000E+00  0.00000000000E+00 -0.17696183969E+02  0.45394148616E+03  0.45359642627E+03 0.  0.
      99925    2    3    3    0    0  0.78979272788E+02  0.79234370419E+02 -0.75244300166E+01  0.28581420204E+03  0.26290174981E+03 0.  0.
         25    1    4    4    0    0  0.13002335763E+02  0.63568818356E+02 -0.22646064522E+02  0.14272493735E+03  0.12509000000E+03 0.  0.
         25    1    4    4    0    0  0.65976937024E+02  0.15665552063E+02  0.15121634505E+02  0.14308926469E+03  0.12509000000E+03 0.  0.
         25    1    3    3    0    0 -0.78979272788E+02 -0.79234370419E+02 -0.10171753952E+02  0.16812728412E+03  0.12509000000E+03 0.  0.
<mgrwt>
<rscale>  2 0.45359643E+03</rscale>
<asrwt>0</asrwt>
<pdfrwt beam="1">  1       21 0.32076861E-01 0.45359643E+03</pdfrwt>
<pdfrwt beam="2">  1       21 0.34679240E-01 0.45359643E+03</pdfrwt>
<totfact> 0.69397355E+04</totfact>
</mgrwt>
</event>
<event>
 7    0  0.4737014E-002  0.4475423E+03  0.7546771E-02  0.1028457E+00
         21   -1    0    0  502  501  0.00000000000E+00  0.00000000000E+00  0.48601332214E+03  0.48601332214E+03  0.00000000000E+00 0. -1.
         21   -1    0    0  501  502 -0.00000000000E+00 -0.00000000000E+00 -0.10302913706E+03  0.10302913706E+03  0.00000000000E+00 0. -1.
      99926    2    1    2    0    0  0.00000000000E+00  0.00000000000E+00  0.38298418508E+03  0.58904245920E+03  0.44754232507E+03 0.  0.
      99925    2    3    3    0    0  0.17651079697E+02 -0.88707562267E+02  0.16949495313E+03  0.32559274393E+03  0.26287164843E+03 0.  0.
         25    1    4    4    0    0  0.56814442517E+01 -0.57437440580E+01  0.57376578347E+02  0.13785807647E+03  0.12509000000E+03 0.  0.
         25    1    3    3    0    0 -0.17651079697E+02  0.88707562267E+02  0.21348923195E+03  0.26344971527E+03  0.12509000000E+03 0.  0.
         25    1    4    4    0    0  0.11969635446E+02 -0.82963818209E+02  0.11211837478E+03  0.18773466746E+03  0.12509000000E+03 0.  0.
<mgrwt>
<rscale>  2 0.44754233E+03</rscale>
<asrwt>0</asrwt>
<pdfrwt beam="1">  1       21 0.71472546E-01 0.44754233E+03</pdfrwt>
<pdfrwt beam="2">  1       21 0.15151344E-01 0.44754233E+03</pdfrwt>
<totfact> 0.62989254E+04</totfact>
</mgrwt>
</event>
<event>
 7    0  0.4737014E-002  0.4518740E+03  0.7546771E-02  0.1027165E+00
         21   -1    0    0  502  501  0.00000000000E+00  0.00000000000E+00  0.64918969653E+02  0.64918969653E+02  0.00000000000E+00 0. -1.
         21   -1    0    0  501  502 -0.00000000000E+00 -0.00000000000E+00 -0.78632667713E+03  0.78632667713E+03  0.00000000000E+00 0. -1.
      99926    2    1    2    0    0 -0.17763568394E-14  0.00000000000E+00 -0.72140770748E+03  0.85124564679E+03  0.45187395451E+03 0.  0.
      99925    2    3    3    0    0 -0.49092214798E+01 -0.41212499422E+02 -0.64758885853E+03  0.70018505919E+03  0.26299280762E+03 0.  0.
         25    1    3    3    0    0  0.49092214798E+01  0.41212499422E+02 -0.73818848951E+02  0.15106058760E+03  0.12509000000E+03 0.  0.
         25    1    4    4    0    0 -0.31602159357E+02 -0.56511606217E+01 -0.38246201071E+03  0.40367725948E+03  0.12509000000E+03 0.  0.
         25    1    4    4    0    0  0.26692937877E+02 -0.35561338800E+02 -0.26512684782E+03  0.29650779971E+03  0.12509000000E+03 0.  0.
<mgrwt>
<rscale>  2 0.45187395E+03</rscale>
<asrwt>0</asrwt>
<pdfrwt beam="1">  1       21 0.95469070E-02 0.45187395E+03</pdfrwt>
<pdfrwt beam="2">  1       21 0.11563628E+00 0.45187395E+03</pdfrwt>
<totfact> 0.46513861E+04</totfact>
</mgrwt>
</event>
<event>
 7    0  0.4737014E-002  0.4486903E+03  0.7546771E-02  0.1028113E+00
         21   -1    0    0  502  501  0.00000000000E+00  0.00000000000E+00  0.16159817010E+03  0.16159817010E+03  0.00000000000E+00 0.  1.
         21   -1    0    0  501  502 -0.00000000000E+00 -0.00000000000E+00 -0.31145620642E+03  0.31145620642E+03  0.00000000000E+00 0.  1.
      99926    2    1    2    0    0 -0.17763568394E-14  0.00000000000E+00 -0.14985803633E+03  0.47305437652E+03  0.44869032984E+03 0.  0.
      99925    2    3    3    0    0  0.83572087742E+01 -0.10604658782E+03 -0.80716446956E+02  0.29488650847E+03  0.26292049433E+03 0.  0.
         25    1    4    4    0    0  0.30173686542E+02 -0.82935959865E+02 -0.28815357062E+02  0.15577759050E+03  0.12509000000E+03 0.  0.
         25    1    4    4    0    0 -0.21816477768E+02 -0.23110627950E+02 -0.51901089894E+02  0.13910891797E+03  0.12509000000E+03 0.  0.
         25    1    3    3    0    0 -0.83572087742E+01  0.10604658782E+03 -0.69141589373E+02  0.17816786805E+03  0.12509000000E+03 0.  0.
<mgrwt>
<rscale>  2 0.44869033E+03</rscale>
<asrwt>0</asrwt>
<pdfrwt beam="1">  1       21 0.23764437E-01 0.44869033E+03</pdfrwt>
<pdfrwt beam="2">  1       21 0.45802383E-01 0.44869033E+03</pdfrwt>
<totfact> 0.70683055E+04</totfact>
</mgrwt>
</event>
<event>
 7    0  0.4737014E-002  0.4545216E+03  0.7546771E-02  0.1026382E+00
         21   -1    0    0  502  501  0.00000000000E+00  0.00000000000E+00  0.31809758012E+03  0.31809758012E+03  0.00000000000E+00 0. -1.
         21   -1    0    0  501  502 -0.00000000000E+00 -0.00000000000E+00 -0.16236359057E+03  0.16236359057E+03  0.00000000000E+00 0. -1.
      99926    2    1    2    0    0  0.88817841970E-15  0.00000000000E+00  0.15573398956E+03  0.48046117069E+03  0.45452157379E+03 0.  0.
      99925    2    3    3    0    0  0.43325744390E+01 -0.11219537944E+03  0.87339329098E+02  0.29898965213E+03  0.26298303995E+03 0.  0.
         25    1    4    4    0    0 -0.76492211495E+01 -0.13334960919E+02  0.36396217200E+02  0.13118126579E+03  0.12509000000E+03 0.  0.
         25    1    4    4    0    0  0.11981795589E+02 -0.98860418526E+02  0.50943111899E+02  0.16780838634E+03  0.12509000000E+03 0.  0.
         25    1    3    3    0    0 -0.43325744390E+01  0.11219537944E+03  0.68394660458E+02  0.18147151856E+03  0.12509000000E+03 0.  0.
<mgrwt>
<rscale>  2 0.45452157E+03</rscale>
<asrwt>0</asrwt>
<pdfrwt beam="1">  1       21 0.46779056E-01 0.45452157E+03</pdfrwt>
<pdfrwt beam="2">  1       21 0.23876999E-01 0.45452157E+03</pdfrwt>
<totfact> 0.66920317E+04</totfact>
</mgrwt>
</event>
<event>
 7    0  0.4737014E-002  0.4702836E+03  0.7546771E-02  0.1021840E+00
         21   -1    0    0  502  501  0.00000000000E+00  0.00000000000E+00  0.82276073704E+03  0.82276073704E+03  0.00000000000E+00 0. -1.
         21   -1    0    0  501  502 -0.00000000000E+00 -0.00000000000E+00 -0.67202619819E+02  0.67202619819E+02  0.00000000000E+00 0. -1.
      99926    2    1    2    0    0  0.00000000000E+00  0.00000000000E+00  0.75555811722E+03  0.88996335686E+03  0.47028364638E+03 0.  0.
      99925    2    3    3    0    0 -0.80918121412E+02  0.97745413016E+02  0.45978586397E+03  0.54466545354E+03  0.26297434750E+03 0.  0.
         25    1    3    3    0    0  0.80918121412E+02 -0.97745413016E+02  0.29577225325E+03  0.34529790331E+03  0.12509000000E+03 0.  0.
         25    1    4    4    0    0  0.73626742111E-01  0.55113597695E+02  0.22774474100E+03  0.26561756197E+03  0.12509000000E+03 0.  0.
         25    1    4    4    0    0 -0.80991748154E+02  0.42631815321E+02  0.23204112297E+03  0.27904789158E+03  0.12509000000E+03 0.  0.
<mgrwt>
<rscale>  2 0.47028365E+03</rscale>
<asrwt>0</asrwt>
<pdfrwt beam="1">  1       21 0.12099422E+00 0.47028365E+03</pdfrwt>
<pdfrwt beam="2">  1       21 0.98827387E-02 0.47028365E+03</pdfrwt>
<totfact> 0.38812553E+04</totfact>
</mgrwt>
</event>
<event>
 7    0  0.4737014E-002  0.4395524E+03  0.7546771E-02  0.1030884E+00
         21   -1    0    0  502  501  0.00000000000E+00  0.00000000000E+00  0.27196993844E+03  0.27196993844E+03  0.00000000000E+00 0.  1.
         21   -1    0    0  501  502 -0.00000000000E+00 -0.00000000000E+00 -0.17759899144E+03  0.17759899144E+03  0.00000000000E+00 0.  1.
      99926    2    1    2    0    0  0.71054273576E-14  0.14210854715E-13  0.94370947000E+02  0.44956892987E+03  0.43955243950E+03 0.  0.
      99925    2    3    3    0    0 -0.57401971219E+02 -0.79379967904E+02  0.58425058302E+02  0.28667086169E+03  0.26300290854E+03 0.  0.
         25    1    3    3    0    0  0.57401971219E+02  0.79379967904E+02  0.35945888699E+02  0.16289806819E+03  0.12509000000E+03 0.  0.
         25    1    4    4    0    0 -0.10921802538E+02 -0.37589790223E+00  0.25038188146E+02  0.12803845530E+03  0.12509000000E+03 0.  0.
         25    1    4    4    0    0 -0.46480168681E+02 -0.79004070002E+02  0.33386870155E+02  0.15863240639E+03  0.12509000000E+03 0.  0.
<mgrwt>
<rscale>  2 0.43955244E+03</rscale>
<asrwt>0</asrwt>
<pdfrwt beam="1">  1       21 0.39995579E-01 0.43955244E+03</pdfrwt>
<pdfrwt beam="2">  1       21 0.26117499E-01 0.43955244E+03</pdfrwt>
<totfact> 0.78128976E+04</totfact>
</mgrwt>
</event>
<event>
 7    0  0.4737014E-002  0.4502222E+03  0.7546771E-02  0.1027656E+00
         21   -1    0    0  502  501  0.00000000000E+00  0.00000000000E+00  0.10088173948E+04  0.10088173948E+04  0.00000000000E+00 0.  1.
         21   -1    0    0  501  502 -0.00000000000E+00 -0.00000000000E+00 -0.50232085433E+02  0.50232085433E+02  0.00000000000E+00 0.  1.
      99926    2    1    2    0    0  0.14210854715E-13  0.00000000000E+00  0.95858530939E+03  0.10590494803E+04  0.45022217432E+03 0.  0.
      99925    2    3    3    0    0  0.10115737015E+03 -0.22888847088E+02  0.53017376376E+03  0.60085664598E+03  0.26303569411E+03 0.  0.
         25    1    4    4    0    0  0.65753230430E+02  0.40025154081E+01  0.19936758433E+03  0.24440631993E+03  0.12509000000E+03 0.  0.
         25    1    3    3    0    0 -0.10115737015E+03  0.22888847088E+02  0.42841154563E+03  0.45819283428E+03  0.12509000000E+03 0.  0.
         25    1    4    4    0    0  0.35404139722E+02 -0.26891362496E+02  0.33080617943E+03  0.35645032604E+03  0.12509000000E+03 0.  0.
<mgrwt>
<rscale>  2 0.45022217E+03</rscale>
<asrwt>0</asrwt>
<pdfrwt beam="1">  1       21 0.14835549E+00 0.45022217E+03</pdfrwt>
<pdfrwt beam="2">  1       21 0.73870720E-02 0.45022217E+03</pdfrwt>
<totfact> 0.38357533E+04</totfact>
</mgrwt>
</event>
<event>
 7    0  0.4737014E-002  0.4469678E+03  0.7546771E-02  0.1028630E+00
         21   -1    0    0  502  501  0.00000000000E+00  0.00000000000E+00  0.11887516195E+03  0.11887516195E+03  0.00000000000E+00 0. -1.
         21   -1    0    0  501  502 -0.00000000000E+00 -0.00000000000E+00 -0.42014717325E+03  0.42014717325E+03  0.00000000000E+00 0. -1.
      99926    2    1    2    0    0  0.00000000000E+00 -0.17763568394E-14 -0.30127201130E+03  0.53902233520E+03  0.44696784343E+03 0.  0.
      99925    2    3    3    0    0 -0.71154044729E+02 -0.10968812752E+02 -0.98116112211E+02  0.28981751910E+03  0.26302891470E+03 0.  0.
         25    1    4    4    0    0 -0.53488836209E+02  0.44305997843E+01 -0.13056919078E+02  0.13674310604E+03  0.12509000000E+03 0.  0.
         25    1    3    3    0    0  0.71154044729E+02  0.10968812752E+02 -0.20315589909E+03  0.24920481610E+03  0.12509000000E+03 0.  0.
         25    1    4    4    0    0 -0.17665208520E+02 -0.15399412536E+02 -0.85059193132E+02  0.15307441306E+03  0.12509000000E+03 0.  0.
<mgrwt>
<rscale>  2 0.44696784E+03</rscale>
<asrwt>0</asrwt>
<pdfrwt beam="1">  1       21 0.17481641E-01 0.44696784E+03</pdfrwt>
<pdfrwt beam="2">  1       21 0.61786350E-01 0.44696784E+03</pdfrwt>
<totfact> 0.66740146E+04</totfact>
</mgrwt>
</event>
<event>
 7    0  0.4737014E-002  0.4602273E+03  0.7546771E-02  0.1024715E+00
         21   -1    0    0  502  501  0.00000000000E+00  0.00000000000E+00  0.99180096184E+03  0.99180096184E+03  0.00000000000E+00 0.  1.
         21   -1    0    0  501  502 -0.00000000000E+00 -0.00000000000E+00 -0.53390047470E+02  0.53390047470E+02  0.00000000000E+00 0.  1.
      99926    2    1    2    0    0  0.14210854715E-13  0.00000000000E+00  0.93841091437E+03  0.10451910093E+04  0.46022733701E+03 0.  0.
      99925    2    3    3    0    0 -0.93878942383E+02 -0.70424781109E+02  0.61609454610E+03  0.68007697921E+03  0.26298156267E+03 0.  0.
         25    1    3    3    0    0  0.93878942383E+02  0.70424781109E+02  0.32231636827E+03  0.36511403009E+03  0.12509000000E+03 0.  0.
         25    1    4    4    0    0 -0.59761565943E+02  0.10079485347E+00  0.33590945028E+03  0.36339251755E+03  0.12509000000E+03 0.  0.
         25    1    4    4    0    0 -0.34117376440E+02 -0.70525575963E+02  0.28018509582E+03  0.31668446166E+03  0.12509000000E+03 0.  0.
<mgrwt>
<rscale>  2 0.46022734E+03</rscale>
<asrwt>0</asrwt>
<pdfrwt beam="1">  1       21 0.14585307E+00 0.46022734E+03</pdfrwt>
<pdfrwt beam="2">  1       21 0.78514782E-02 0.46022734E+03</pdfrwt>
<totfact> 0.35964328E+04</totfact>
</mgrwt>
</event>
<event>
 7    0  0.4737014E-002  0.4580101E+03  0.7546771E-02  0.1025360E+00
         21   -1    0    0  502  501  0.00000000000E+00  0.00000000000E+00  0.32798714557E+02  0.32798714557E+02  0.00000000000E+00 0. -1.
         21   -1    0    0  501  502 -0.00000000000E+00 -0.00000000000E+00 -0.15989439048E+04  0.15989439048E+04  0.00000000000E+00 0. -1.
      99926    2    1    2    0    0  0.00000000000E+00  0.71054273576E-14 -0.15661451902E+04  0.16317426193E+04  0.45801006420E+03 0.  0.
      99925    2    3    3    0    0  0.88407286896E+02 -0.58516639658E+02 -0.11499429247E+04  0.11844039564E+04  0.26306644828E+03 0.  0.
         25    1    4    4    0    0  0.66460527321E+02 -0.23908949553E+02 -0.74106776633E+03  0.75486262456E+03  0.12509000000E+03 0.  0.
         25    1    3    3    0    0 -0.88407286896E+02  0.58516639658E+02 -0.41620226550E+03  0.44733866299E+03  0.12509000000E+03 0.  0.
         25    1    4    4    0    0  0.21946759575E+02 -0.34607690105E+02 -0.40887515839E+03  0.42954133180E+03  0.12509000000E+03 0.  0.
<mgrwt>
<rscale>  2 0.45801006E+03</rscale>
<asrwt>0</asrwt>
<pdfrwt beam="1">  1       21 0.48233397E-02 0.45801006E+03</pdfrwt>
<pdfrwt beam="2">  1       21 0.23513884E+00 0.45801006E+03</pdfrwt>
<totfact> 0.20244575E+04</totfact>
</mgrwt>
</event>
<event>
 7    0  0.4737014E-002  0.4556607E+03  0.7546771E-02  0.1026047E+00
         21   -1    0    0  502  501  0.00000000000E+00  0.00000000000E+00  0.92888801539E+02  0.92888801539E+02  0.00000000000E+00 0. -1.
         21   -1    0    0  501  502 -0.00000000000E+00 -0.00000000000E+00 -0.55880428892E+03  0.55880428892E+03  0.00000000000E+00 0. -1.
      99926    2    1    2    0    0  0.00000000000E+00 -0.17763568394E-14 -0.46591548738E+03  0.65169309046E+03  0.45566066625E+03 0.  0.
      99925    2    3    3    0    0 -0.32472092952E+02  0.14870643955E+02 -0.13718002923E+03  0.29815372572E+03  0.26230080227E+03 0.  0.
         25    1    3    3    0    0  0.32472092952E+02 -0.14870643955E+02 -0.32873545815E+03  0.35353936473E+03  0.12509000000E+03 0.  0.
         25    1    4    4    0    0 -0.55144188965E+02  0.13291361102E+02 -0.64982064162E+02  0.15194643339E+03  0.12509000000E+03 0.  0.
         25    1    4    4    0    0  0.22672096013E+02  0.15792828532E+01 -0.72197965068E+02  0.14620729234E+03  0.12509000000E+03 0.  0.
<mgrwt>
<rscale>  2 0.45566067E+03</rscale>
<asrwt>0</asrwt>
<pdfrwt beam="1">  1       21 0.13660118E-01 0.45566067E+03</pdfrwt>
<pdfrwt beam="2">  1       21 0.82177103E-01 0.45566067E+03</pdfrwt>
<totfact> 0.55315207E+04</totfact>
</mgrwt>
</event>
<event>
 7    0  0.4737014E-002  0.4587692E+03  0.7546771E-02  0.1025139E+00
         21   -1    0    0  502  501  0.00000000000E+00  0.00000000000E+00  0.15798016475E+03  0.15798016475E+03  0.00000000000E+00 0.  1.
         21   -1    0    0  501  502 -0.00000000000E+00 -0.00000000000E+00 -0.33306261526E+03  0.33306261526E+03  0.00000000000E+00 0.  1.
      99926    2    1    2    0    0  0.00000000000E+00 -0.66613381478E-15 -0.17508245051E+03  0.49104278001E+03  0.45876916562E+03 0.  0.
      99925    2    3    3    0    0 -0.11635916366E+03 -0.14275184678E+01 -0.11837263765E+03  0.31102888124E+03  0.26303115945E+03 0.  0.
         25    1    3    3    0    0  0.11635916366E+03  0.14275184678E+01 -0.56709812852E+02  0.18001389877E+03  0.12509000000E+03 0.  0.
         25    1    4    4    0    0 -0.71138906796E+02  0.15684259659E+02 -0.99368858685E+02  0.17558023305E+03  0.12509000000E+03 0.  0.
         25    1    4    4    0    0 -0.45220256861E+02 -0.17111778126E+02 -0.19003778969E+02  0.13544864819E+03  0.12509000000E+03 0.  0.
<mgrwt>
<rscale>  2 0.45876917E+03</rscale>
<asrwt>0</asrwt>
<pdfrwt beam="1">  1       21 0.23232378E-01 0.45876917E+03</pdfrwt>
<pdfrwt beam="2">  1       21 0.48979795E-01 0.45876917E+03</pdfrwt>
<totfact> 0.63969010E+04</totfact>
</mgrwt>
</event>
<event>
 6    0  0.5787489E-002  0.4425652E+03  0.7546771E-02  0.1029963E+00
         21   -1    0    0  502  501  0.00000000000E+00  0.00000000000E+00  0.37970190552E+03  0.37970190552E+03  0.00000000000E+00 0.  1.
         21   -1    0    0  501  502 -0.00000000000E+00 -0.00000000000E+00 -0.12895901419E+03  0.12895901419E+03  0.00000000000E+00 0.  1.
      99926    2    1    2    0    0  0.88817841970E-15  0.00000000000E+00  0.25074289132E+03  0.50866091971E+03  0.44256517452E+03 0.  0.
         25    1    3    3    0    0  0.43555666360E+02  0.18266364550E+02  0.84608094102E+01  0.13397704856E+03  0.12509000000E+03 0.  0.
         25    1    3    3    0    0 -0.32855253861E+01  0.48024603928E+02  0.14906676754E+03  0.20046337956E+03  0.12509000000E+03 0.  0.
         25    1    3    3    0    0 -0.40270140974E+02 -0.66290968478E+02  0.93215314370E+02  0.17422049159E+03  0.12509000000E+03 0.  0.
<mgrwt>
<rscale>  2 0.44256517E+03</rscale>
<asrwt>0</asrwt>
<pdfrwt beam="1">  1       21 0.55838515E-01 0.44256517E+03</pdfrwt>
<pdfrwt beam="2">  1       21 0.18964561E-01 0.44256517E+03</pdfrwt>
<totfact> 0.71461277E+04</totfact>
</mgrwt>
</event>
<event>
 7    0  0.4737014E-002  0.4470242E+03  0.7546771E-02  0.1028613E+00
         21   -1    0    0  502  501  0.00000000000E+00  0.00000000000E+00  0.18684538190E+03  0.18684538190E+03  0.00000000000E+00 0.  1.
         21   -1    0    0  501  502 -0.00000000000E+00 -0.00000000000E+00 -0.26737428242E+03  0.26737428242E+03  0.00000000000E+00 0.  1.
      99926    2    1    2    0    0  0.00000000000E+00  0.00000000000E+00 -0.80528900520E+02  0.45421966433E+03  0.44702416002E+03 0.  0.
      99925    2    3    3    0    0  0.42298660447E+02  0.72155176836E+02  0.14362106638E+02  0.27632262231E+03  0.26296839215E+03 0.  0.
         25    1    3    3    0    0 -0.42298660447E+02 -0.72155176836E+02 -0.94891007158E+02  0.17789704202E+03  0.12509000000E+03 0.  0.
         25    1    4    4    0    0  0.10616082197E+02  0.64874467210E+02 -0.19665419068E+02  0.14267317374E+03  0.12509000000E+03 0.  0.
         25    1    4    4    0    0  0.31682578251E+02  0.72807096266E+01  0.34027525706E+02  0.13364944857E+03  0.12509000000E+03 0.  0.
<mgrwt>
<rscale>  2 0.44702416E+03</rscale>
<asrwt>0</asrwt>
<pdfrwt beam="1">  1       21 0.27477262E-01 0.44702416E+03</pdfrwt>
<pdfrwt beam="2">  1       21 0.39319747E-01 0.44702416E+03</pdfrwt>
<totfact> 0.73146350E+04</totfact>
</mgrwt>
</event>
<event>
 7    0  0.4737014E-002  0.4570555E+03  0.7546771E-02  0.1025639E+00
         21   -1    0    0  502  501  0.00000000000E+00  0.00000000000E+00  0.24835367589E+03  0.24835367589E+03  0.00000000000E+00 0. -1.
         21   -1    0    0  501  502 -0.00000000000E+00 -0.00000000000E+00 -0.21028452153E+03  0.21028452153E+03  0.00000000000E+00 0. -1.
      99926    2    1    2    0    0 -0.14210854715E-13  0.88817841970E-15  0.38069154360E+02  0.45863819743E+03  0.45705550607E+03 0.  0.
      99925    2    3    3    0    0  0.11266045159E+03  0.55314431698E+01  0.46943256823E+02  0.28996919610E+03  0.26297431644E+03 0.  0.
         25    1    4    4    0    0  0.91220088176E+02  0.16959158811E+02  0.50290461595E+01  0.15582527702E+03  0.12509000000E+03 0.  0.
         25    1    3    3    0    0 -0.11266045159E+03 -0.55314431698E+01 -0.88741024631E+01  0.16866900133E+03  0.12509000000E+03 0.  0.
         25    1    4    4    0    0  0.21440363415E+02 -0.11427715642E+02  0.41914210663E+02  0.13414391907E+03  0.12509000000E+03 0.  0.
<mgrwt>
<rscale>  2 0.45705551E+03</rscale>
<asrwt>0</asrwt>
<pdfrwt beam="1">  1       21 0.36522600E-01 0.45705551E+03</pdfrwt>
<pdfrwt beam="2">  1       21 0.30924194E-01 0.45705551E+03</pdfrwt>
<totfact> 0.67171698E+04</totfact>
</mgrwt>
</event>
<event>
 7    0  0.4737014E-002  0.4690036E+03  0.7546771E-02  0.1022202E+00
         21   -1    0    0  502  501  0.00000000000E+00  0.00000000000E+00  0.11480963755E+03  0.11480963755E+03  0.00000000000E+00 0. -1.
         21   -1    0    0  501  502 -0.00000000000E+00 -0.00000000000E+00 -0.47897624214E+03  0.47897624214E+03  0.00000000000E+00 0. -1.
      99926    2    1    2    0    0  0.71054273576E-14 -0.28421709430E-13 -0.36416660459E+03  0.59378587970E+03  0.46900357678E+03 0.  0.
      99925    2    3    3    0    0 -0.35441794399E+02  0.10211659770E+03 -0.14472742653E+03  0.31904057713E+03  0.26297707419E+03 0.  0.
         25    1    4    4    0    0  0.27574952819E+01  0.33415210414E+02 -0.10314669603E+03  0.16556246274E+03  0.12509000000E+03 0.  0.
         25    1    3    3    0    0  0.35441794399E+02 -0.10211659770E+03 -0.21943917806E+03  0.27474530257E+03  0.12509000000E+03 0.  0.
         25    1    4    4    0    0 -0.38199289681E+02  0.68701387286E+02 -0.41580730502E+02  0.15347811439E+03  0.12509000000E+03 0.  0.
<mgrwt>
<rscale>  2 0.46900358E+03</rscale>
<asrwt>0</asrwt>
<pdfrwt beam="1">  1       21 0.16883771E-01 0.46900358E+03</pdfrwt>
<pdfrwt beam="2">  1       21 0.70437681E-01 0.46900358E+03</pdfrwt>
<totfact> 0.52953954E+04</totfact>
</mgrwt>
</event>
<event>
 7    0  0.4737014E-002  0.4537027E+03  0.7546771E-02  0.1026624E+00
         21   -1    0    0  502  501  0.00000000000E+00  0.00000000000E+00  0.39389589558E+03  0.39389589558E+03  0.00000000000E+00 0.  1.
         21   -1    0    0  501  502 -0.00000000000E+00 -0.00000000000E+00 -0.13064756118E+03  0.13064756118E+03  0.00000000000E+00 0.  1.
      99926    2    1    2    0    0  0.14210854715E-13  0.00000000000E+00  0.26324833441E+03  0.52454345676E+03  0.45370271374E+03 0.  0.
      99925    2    3    3    0    0 -0.78666746656E+02 -0.77135464907E+02  0.18849671605E+03  0.34185889385E+03  0.26305542072E+03 0.  0.
         25    1    4    4    0    0 -0.45549507723E+02 -0.29153142907E+01  0.64880867736E+02  0.14812255672E+03  0.12509000000E+03 0.  0.
         25    1    3    3    0    0  0.78666746656E+02  0.77135464907E+02  0.74751618359E+02  0.18268456290E+03  0.12509000000E+03 0.  0.
         25    1    4    4    0    0 -0.33117238933E+02 -0.74220150617E+02  0.12361584831E+03  0.19373633713E+03  0.12509000000E+03 0.  0.
<mgrwt>
<rscale>  2 0.45370271E+03</rscale>
<asrwt>0</asrwt>
<pdfrwt beam="1">  1       21 0.57925867E-01 0.45370271E+03</pdfrwt>
<pdfrwt beam="2">  1       21 0.19212877E-01 0.45370271E+03</pdfrwt>
<totfact> 0.64235454E+04</totfact>
</mgrwt>
</event>
<event>
 7    0  0.4737014E-002  0.4605900E+03  0.7546771E-02  0.1024610E+00
         21   -1    0    0  502  501  0.00000000000E+00  0.00000000000E+00  0.29688043508E+02  0.29688043508E+02  0.00000000000E+00 0. -1.
         21   -1    0    0  501  502 -0.00000000000E+00 -0.00000000000E+00 -0.17864362134E+04  0.17864362134E+04  0.00000000000E+00 0. -1.
      99926    2    1    2    0    0  0.00000000000E+00  0.00000000000E+00 -0.17567481699E+04  0.18161242569E+04  0.46059003910E+03 0.  0.
      99925    2    3    3    0    0  0.98322005417E+02  0.63976368459E+02 -0.10383877555E+04  0.10775788044E+04  0.26299573435E+03 0.  0.
         25    1    4    4    0    0  0.20449737414E+02  0.23994208339E+02 -0.36580716363E+03  0.38788697176E+03  0.12509000000E+03 0.  0.
         25    1    3    3    0    0 -0.98322005417E+02 -0.63976368459E+02 -0.71836041439E+03  0.73854545258E+03  0.12509000000E+03 0.  0.
         25    1    4    4    0    0  0.77872268004E+02  0.39982160119E+02 -0.67258059191E+03  0.68969183261E+03  0.12509000000E+03 0.  0.
<mgrwt>
<rscale>  2 0.46059004E+03</rscale>
<asrwt>0</asrwt>
<pdfrwt beam="1">  1       21 0.43658890E-02 0.46059004E+03</pdfrwt>
<pdfrwt beam="2">  1       21 0.26271119E+00 0.46059004E+03</pdfrwt>
<totfact> 0.16235589E+04</totfact>
</mgrwt>
</event>
<event>
 7    0  0.4737014E-002  0.4506624E+03  0.7546771E-02  0.1027525E+00
         21   -1    0    0  502  501  0.00000000000E+00  0.00000000000E+00  0.30111879983E+03  0.30111879983E+03  0.00000000000E+00 0.  1.
         21   -1    0    0  501  502 -0.00000000000E+00 -0.00000000000E+00 -0.16861831383E+03  0.16861831383E+03  0.00000000000E+00 0.  1.
      99926    2    1    2    0    0  0.00000000000E+00  0.00000000000E+00  0.13250048600E+03  0.46973711366E+03  0.45066237602E+03 0.  0.
      99925    2    3    3    0    0  0.41395177959E+02  0.64613168485E+02  0.29339324696E+01  0.27397342399E+03  0.26299126752E+03 0.  0.
         25    1    4    4    0    0 -0.14963581517E+02  0.28285817419E+02 -0.18498319741E+02  0.13043654462E+03  0.12509000000E+03 0.  0.
         25    1    3    3    0    0 -0.41395177959E+02 -0.64613168485E+02  0.12956655353E+03  0.19576368967E+03  0.12509000000E+03 0.  0.
         25    1    4    4    0    0  0.56358759475E+02  0.36327351066E+02  0.21432252210E+02  0.14353687937E+03  0.12509000000E+03 0.  0.
<mgrwt>
<rscale>  2 0.45066238E+03</rscale>
<asrwt>0</asrwt>
<pdfrwt beam="1">  1       21 0.44282177E-01 0.45066238E+03</pdfrwt>
<pdfrwt beam="2">  1       21 0.24796811E-01 0.45066238E+03</pdfrwt>
<totfact> 0.69827672E+04</totfact>
</mgrwt>
</event>
<event>
 7    0  0.4737014E-002  0.4521878E+03  0.7546771E-02  0.1027072E+00
         21   -1    0    0  502  501  0.00000000000E+00  0.00000000000E+00  0.18542856599E+03  0.18542856599E+03  0.00000000000E+00 0. -1.
         21   -1    0    0  501  502 -0.00000000000E+00 -0.00000000000E+00 -0.27567737745E+03  0.27567737745E+03  0.00000000000E+00 0. -1.
      99926    2    1    2    0    0  0.00000000000E+00  0.00000000000E+00 -0.90248811460E+02  0.46110594344E+03  0.45218784051E+03 0.  0.
      99925    2    3    3    0    0  0.16244435057E+01 -0.10851647830E+03 -0.78410810893E+02  0.29507549069E+03  0.26295023306E+03 0.  0.
         25    1    3    3    0    0 -0.16244435057E+01  0.10851647830E+03 -0.11838000568E+02  0.16603045274E+03  0.12509000000E+03 0.  0.
         25    1    4    4    0    0  0.33525951450E+01 -0.80976191023E+02 -0.88566531095E+01  0.14931286552E+03  0.12509000000E+03 0.  0.
         25    1    4    4    0    0 -0.17281516393E+01 -0.27540287280E+02 -0.69554157783E+02  0.14576262517E+03  0.12509000000E+03 0.  0.
<mgrwt>
<rscale>  2 0.45218784E+03</rscale>
<asrwt>0</asrwt>
<pdfrwt beam="1">  1       21 0.27268907E-01 0.45218784E+03</pdfrwt>
<pdfrwt beam="2">  1       21 0.40540790E-01 0.45218784E+03</pdfrwt>
<totfact> 0.69644164E+04</totfact>
</mgrwt>
</event>
<event>
 7    0  0.4737014E-002  0.4523935E+03  0.7546771E-02  0.1027011E+00
         21   -1    0    0  502  501  0.00000000000E+00  0.00000000000E+00  0.43619809071E+03  0.43619809071E+03  0.00000000000E+00 0. -1.
         21   -1    0    0  501  502 -0.00000000000E+00 -0.00000000000E+00 -0.11729755879E+03  0.11729755879E+03  0.00000000000E+00 0. -1.
      99926    2    1    2    0    0  0.00000000000E+00  0.00000000000E+00  0.31890053191E+03  0.55349564950E+03  0.45239350654E+03 0.  0.
      99925    2    3    3    0    0  0.82951520008E+02 -0.72281093198E+02  0.18647941269E+03  0.34068500122E+03  0.26303267400E+03 0.  0.
         25    1    4    4    0    0  0.44944174343E+02 -0.17286557065E+02  0.47761379164E+02  0.14229357435E+03  0.12509000000E+03 0.  0.
         25    1    3    3    0    0 -0.82951520008E+02  0.72281093198E+02  0.13242111922E+03  0.21281064828E+03  0.12509000000E+03 0.  0.
         25    1    4    4    0    0  0.38007345665E+02 -0.54994536133E+02  0.13871803353E+03  0.19839142687E+03  0.12509000000E+03 0.  0.
<mgrwt>
<rscale>  2 0.45239351E+03</rscale>
<asrwt>0</asrwt>
<pdfrwt beam="1">  1       21 0.64146778E-01 0.45239351E+03</pdfrwt>
<pdfrwt beam="2">  1       21 0.17249641E-01 0.45239351E+03</pdfrwt>
<totfact> 0.62923612E+04</totfact>
</mgrwt>
</event>
<event>
 7    0  0.4737014E-002  0.4574281E+03  0.7546771E-02  0.1025530E+00
         21   -1    0    0  502  501  0.00000000000E+00  0.00000000000E+00  0.32748183996E+03  0.32748183996E+03  0.00000000000E+00 0.  1.
         21   -1    0    0  501  502 -0.00000000000E+00 -0.00000000000E+00 -0.15973440408E+03  0.15973440408E+03  0.00000000000E+00 0.  1.
      99926    2    1    2    0    0  0.00000000000E+00  0.00000000000E+00  0.16774743588E+03  0.48721624403E+03  0.45742809949E+03 0.  0.
      99925    2    3    3    0    0 -0.51694031569E+02  0.76509635154E+02  0.17923807187E+03  0.33131390285E+03  0.26290039681E+03 0.  0.
         25    1    3    3    0    0  0.51694031569E+02 -0.76509635154E+02 -0.11490635985E+02  0.15590234118E+03  0.12509000000E+03 0.  0.
         25    1    4    4    0    0 -0.43775563808E+02  0.58134448599E+02  0.57816833946E+02  0.15584033011E+03  0.12509000000E+03 0.  0.
         25    1    4    4    0    0 -0.79184677614E+01  0.18375186556E+02  0.12142123792E+03  0.17547357274E+03  0.12509000000E+03 0.  0.
<mgrwt>
<rscale>  2 0.45742810E+03</rscale>
<asrwt>0</asrwt>
<pdfrwt beam="1">  1       21 0.48159094E-01 0.45742810E+03</pdfrwt>
<pdfrwt beam="2">  1       21 0.23490354E-01 0.45742810E+03</pdfrwt>
<totfact> 0.64918077E+04</totfact>
</mgrwt>
</event>
<event>
 7    0  0.4737014E-002  0.4573260E+03  0.7546771E-02  0.1025560E+00
         21   -1    0    0  502  501  0.00000000000E+00  0.00000000000E+00  0.97517181427E+02  0.97517181427E+02  0.00000000000E+00 0.  1.
         21   -1    0    0  501  502 -0.00000000000E+00 -0.00000000000E+00 -0.53618003530E+03  0.53618003530E+03  0.00000000000E+00 0.  1.
      99926    2    1    2    0    0  0.00000000000E+00 -0.14210854715E-13 -0.43866285387E+03  0.63369721673E+03  0.45732599218E+03 0.  0.
      99925    2    3    3    0    0 -0.30172701953E+02 -0.11142166085E+03 -0.27445106618E+03  0.39718464250E+03  0.26288224372E+03 0.  0.
         25    1    4    4    0    0 -0.46292526480E+02 -0.49650169493E+02 -0.10367816066E+03  0.17608181745E+03  0.12509000000E+03 0.  0.
         25    1    3    3    0    0  0.30172701953E+02  0.11142166085E+03 -0.16421178769E+03  0.23651257422E+03  0.12509000000E+03 0.  0.
         25    1    4    4    0    0  0.16119824526E+02 -0.61771491353E+02 -0.17077290552E+03  0.22110282506E+03  0.12509000000E+03 0.  0.
<mgrwt>
<rscale>  2 0.45732599E+03</rscale>
<asrwt>0</asrwt>
<pdfrwt beam="1">  1       21 0.14340762E-01 0.45732599E+03</pdfrwt>
<pdfrwt beam="2">  1       21 0.78850004E-01 0.45732599E+03</pdfrwt>
<totfact> 0.55622341E+04</totfact>
</mgrwt>
</event>
<event>
 7    0  0.4737014E-002  0.4523101E+03  0.7546771E-02  0.1027035E+00
         21   -1    0    0  502  501  0.00000000000E+00  0.00000000000E+00  0.14260917201E+03  0.14260917201E+03  0.00000000000E+00 0. -1.
         21   -1    0    0  501  502 -0.00000000000E+00 -0.00000000000E+00 -0.35864525172E+03  0.35864525172E+03  0.00000000000E+00 0. -1.
      99926    2    1    2    0    0  0.00000000000E+00  0.00000000000E+00 -0.21603607971E+03  0.50125442374E+03  0.45231008123E+03 0.  0.
      99925    2    3    3    0    0 -0.10240667052E+03  0.23852741185E+02 -0.98597649755E+02  0.30001980356E+03  0.26312412767E+03 0.  0.
         25    1    3    3    0    0  0.10240667052E+03 -0.23852741185E+02 -0.11743842996E+03  0.20123462018E+03  0.12509000000E+03 0.  0.
         25    1    4    4    0    0 -0.68309463064E+02 -0.29669681770E+01 -0.87245033016E+02  0.16713524323E+03  0.12509000000E+03 0.  0.
         25    1    4    4    0    0 -0.34097207451E+02  0.26819709362E+02 -0.11352616739E+02  0.13288456033E+03  0.12509000000E+03 0.  0.
<mgrwt>
<rscale>  2 0.45231008E+03</rscale>
<asrwt>0</asrwt>
<pdfrwt beam="1">  1       21 0.20971937E-01 0.45231008E+03</pdfrwt>
<pdfrwt beam="2">  1       21 0.52741948E-01 0.45231008E+03</pdfrwt>
<totfact> 0.66593181E+04</totfact>
</mgrwt>
</event>
<event>
 7    0  0.4737014E-002  0.4475696E+03  0.7546771E-02  0.1028449E+00
         21   -1    0    0  502  501  0.00000000000E+00  0.00000000000E+00  0.42222946387E+04  0.42222946387E+04  0.00000000000E+00 0. -1.
         21   -1    0    0  501  502 -0.00000000000E+00 -0.00000000000E+00 -0.11860762427E+02  0.11860762427E+02  0.00000000000E+00 0. -1.
      99926    2    1    2    0    0 -0.14210854715E-13  0.00000000000E+00  0.42104338762E+04  0.42341554011E+04  0.44756958612E+03 0.  0.
      99925    2    3    3    0    0 -0.92382878097E+02  0.50612053229E+02  0.27884973831E+04  0.28028458348E+04  0.26292763585E+03 0.  0.
         25    1    3    3    0    0  0.92382878097E+02 -0.50612053229E+02  0.14219364931E+04  0.14313095663E+04  0.12509000000E+03 0.  0.
         25    1    4    4    0    0 -0.10702928381E+02  0.28538939239E+02  0.10677684000E+04  0.10755026211E+04  0.12509000000E+03 0.  0.
         25    1    4    4    0    0 -0.81679949716E+02  0.22073113990E+02  0.17207289831E+04  0.17273432137E+04  0.12509000000E+03 0.  0.
<mgrwt>
<rscale>  2 0.44756959E+03</rscale>
<asrwt>0</asrwt>
<pdfrwt beam="1">  1       21 0.62092464E+00 0.44756959E+03</pdfrwt>
<pdfrwt beam="2">  1       21 0.17442327E-02 0.44756959E+03</pdfrwt>
<totfact> 0.28025965E+02</totfact>
</mgrwt>
</event>
<event>
 7    0  0.4737014E-002  0.4602804E+03  0.7546771E-02  0.1024700E+00
         21   -1    0    0  502  501  0.00000000000E+00  0.00000000000E+00  0.95545737704E+03  0.95545737704E+03  0.00000000000E+00 0.  1.
         21   -1    0    0  501  502 -0.00000000000E+00 -0.00000000000E+00 -0.55433664379E+02  0.55433664379E+02  0.00000000000E+00 0.  1.
      99926    2    1    2    0    0  0.00000000000E+00  0.14210854715E-13  0.90002371266E+03  0.10108910414E+04  0.46028036485E+03 0.  0.
      99925    2    3    3    0    0 -0.61559196480E+02  0.98907116335E+02  0.60408453949E+03  0.66913139685E+03  0.26314737901E+03 0.  0.
         25    1    4    4    0    0 -0.15344595335E+02  0.87698516640E+02  0.30467925102E+03  0.34117948433E+03  0.12509000000E+03 0.  0.
         25    1    4    4    0    0 -0.46214601145E+02  0.11208599695E+02  0.29940528846E+03  0.32795191252E+03  0.12509000000E+03 0.  0.
         25    1    3    3    0    0  0.61559196480E+02 -0.98907116335E+02  0.29593917318E+03  0.34175964457E+03  0.12509000000E+03 0.  0.
<mgrwt>
<rscale>  2 0.46028036E+03</rscale>
<asrwt>0</asrwt>
<pdfrwt beam="1">  1       21 0.14050843E+00 0.46028036E+03</pdfrwt>
<pdfrwt beam="2">  1       21 0.81520100E-02 0.46028036E+03</pdfrwt>
<totfact> 0.37188599E+04</totfact>
</mgrwt>
</event>
<event>
 7    0  0.4737014E-002  0.4545744E+03  0.7546771E-02  0.1026367E+00
         21   -1    0    0  502  501  0.00000000000E+00  0.00000000000E+00  0.13024060247E+03  0.13024060247E+03  0.00000000000E+00 0. -1.
         21   -1    0    0  501  502 -0.00000000000E+00 -0.00000000000E+00 -0.39664650075E+03  0.39664650075E+03  0.00000000000E+00 0. -1.
      99926    2    1    2    0    0  0.00000000000E+00  0.00000000000E+00 -0.26640589828E+03  0.52688710322E+03  0.45457443494E+03 0.  0.
      99925    2    3    3    0    0  0.10400428462E+02  0.87508146385E+02 -0.24946571660E+03  0.37293801277E+03  0.26283792156E+03 0.  0.
         25    1    4    4    0    0 -0.22652454798E+02  0.16398893616E+02 -0.13471420470E+03  0.18595021502E+03  0.12509000000E+03 0.  0.
         25    1    3    3    0    0 -0.10400428462E+02 -0.87508146385E+02 -0.16940181685E+02  0.15394909045E+03  0.12509000000E+03 0.  0.
         25    1    4    4    0    0  0.33052883260E+02  0.71109252769E+02 -0.11475151190E+03  0.18698779774E+03  0.12509000000E+03 0.  0.
<mgrwt>
<rscale>  2 0.45457443E+03</rscale>
<asrwt>0</asrwt>
<pdfrwt beam="1">  1       21 0.19153030E-01 0.45457443E+03</pdfrwt>
<pdfrwt beam="2">  1       21 0.58330368E-01 0.45457443E+03</pdfrwt>
<totfact> 0.63632135E+04</totfact>
</mgrwt>
</event>
<event>
 7    0  0.4737014E-002  0.4396127E+03  0.7546771E-02  0.1030866E+00
         21   -1    0    0  502  501  0.00000000000E+00  0.00000000000E+00  0.56790168448E+02  0.56790168448E+02  0.00000000000E+00 0. -1.
         21   -1    0    0  501  502 -0.00000000000E+00 -0.00000000000E+00 -0.85076066710E+03  0.85076066710E+03  0.00000000000E+00 0. -1.
      99926    2    1    2    0    0  0.00000000000E+00  0.00000000000E+00 -0.79397049866E+03  0.90755083555E+03  0.43961274592E+03 0.  0.
      99925    2    3    3    0    0 -0.81486652192E+02 -0.54038340298E+02 -0.52135528627E+03  0.59207218519E+03  0.26301696000E+03 0.  0.
         25    1    4    4    0    0 -0.81961552144E+02 -0.36442431357E+02 -0.27148234319E+03  0.31208319019E+03  0.12509000000E+03 0.  0.
         25    1    4    4    0    0  0.47489995161E+00 -0.17595908941E+02 -0.24987294308E+03  0.27998899501E+03  0.12509000000E+03 0.  0.
         25    1    3    3    0    0  0.81486652192E+02  0.54038340298E+02 -0.27261521239E+03  0.31547865036E+03  0.12509000000E+03 0.  0.
<mgrwt>
<rscale>  2 0.43961275E+03</rscale>
<asrwt>0</asrwt>
<pdfrwt beam="1">  1       21 0.83514959E-02 0.43961275E+03</pdfrwt>
<pdfrwt beam="2">  1       21 0.12511185E+00 0.43961275E+03</pdfrwt>
<totfact> 0.48488472E+04</totfact>
</mgrwt>
</event>
<event>
 7    0  0.4737014E-002  0.4422441E+03  0.7546771E-02  0.1030061E+00
         21   -1    0    0  502  501  0.00000000000E+00  0.00000000000E+00  0.84382012252E+02  0.84382012252E+02  0.00000000000E+00 0.  1.
         21   -1    0    0  501  502 -0.00000000000E+00 -0.00000000000E+00 -0.57944759885E+03  0.57944759885E+03  0.00000000000E+00 0.  1.
      99926    2    1    2    0    0  0.14210854715E-13  0.00000000000E+00 -0.49506558660E+03  0.66382961111E+03  0.44224407011E+03 0.  0.
      99925    2    3    3    0    0 -0.64461644317E+02 -0.38998974480E+02 -0.41559037814E+03  0.49757666990E+03  0.26304173896E+03 0.  0.
         25    1    4    4    0    0 -0.43346174147E+02 -0.16879699767E+02 -0.28221698271E+03  0.31218223606E+03  0.12509000000E+03 0.  0.
         25    1    3    3    0    0  0.64461644317E+02  0.38998974480E+02 -0.79475208466E+02  0.16625294120E+03  0.12509000000E+03 0.  0.
         25    1    4    4    0    0 -0.21115470169E+02 -0.22119274713E+02 -0.13337339542E+03  0.18539443384E+03  0.12509000000E+03 0.  0.
<mgrwt>
<rscale>  2 0.44224407E+03</rscale>
<asrwt>0</asrwt>
<pdfrwt beam="1">  1       21 0.12409119E-01 0.44224407E+03</pdfrwt>
<pdfrwt beam="2">  1       21 0.85212886E-01 0.44224407E+03</pdfrwt>
<totfact> 0.60795294E+04</totfact>
</mgrwt>
</event>
<event>
 7    0  0.4737014E-002  0.4520744E+03  0.7546771E-02  0.1027105E+00
         21   -1    0    0  502  501  0.00000000000E+00  0.00000000000E+00  0.83419241419E+02  0.83419241419E+02  0.00000000000E+00 0. -1.
         21   -1    0    0  501  502 -0.00000000000E+00 -0.00000000000E+00 -0.61248234742E+03  0.61248234742E+03  0.00000000000E+00 0. -1.
      99926    2    1    2    0    0  0.00000000000E+00  0.00000000000E+00 -0.52906310600E+03  0.69590158884E+03  0.45207438682E+03 0.  0.
      99925    2    3    3    0    0 -0.95808109809E+01 -0.59407317798E+02 -0.19151993783E+03  0.33093046693E+03  0.26308566287E+03 0.  0.
         25    1    4    4    0    0  0.60374531020E+01 -0.65039246721E+02 -0.12377736616E+03  0.18770961331E+03  0.12509000000E+03 0.  0.
         25    1    4    4    0    0 -0.15618264083E+02  0.56319289226E+01 -0.67742571665E+02  0.14322085362E+03  0.12509000000E+03 0.  0.
         25    1    3    3    0    0  0.95808109809E+01  0.59407317798E+02 -0.33754316817E+03  0.36497112191E+03  0.12509000000E+03 0.  0.
<mgrwt>
<rscale>  2 0.45207439E+03</rscale>
<asrwt>0</asrwt>
<pdfrwt beam="1">  1       21 0.12267536E-01 0.45207439E+03</pdfrwt>
<pdfrwt beam="2">  1       21 0.90070933E-01 0.45207439E+03</pdfrwt>
<totfact> 0.54367167E+04</totfact>
</mgrwt>
</event>
<event>
 7    0  0.4737014E-002  0.4651652E+03  0.7546771E-02  0.1023294E+00
         21   -1    0    0  502  501  0.00000000000E+00  0.00000000000E+00  0.13339340332E+03  0.13339340332E+03  0.00000000000E+00 0.  1.
         21   -1    0    0  501  502 -0.00000000000E+00 -0.00000000000E+00 -0.40552729103E+03  0.40552729103E+03  0.00000000000E+00 0.  1.
      99926    2    1    2    0    0  0.00000000000E+00  0.00000000000E+00 -0.27213388771E+03  0.53892069436E+03  0.46516519857E+03 0.  0.
      99925    2    3    3    0    0 -0.10032238539E+03 -0.60995067334E+02 -0.20995591920E+03  0.35644168976E+03  0.26302891655E+03 0.  0.
         25    1    4    4    0    0 -0.31497895770E+02 -0.42193773689E+02 -0.59544191217E+02  0.14820745860E+03  0.12509000000E+03 0.  0.
         25    1    3    3    0    0  0.10032238539E+03  0.60995067334E+02 -0.62177968519E+02  0.18247900460E+03  0.12509000000E+03 0.  0.
         25    1    4    4    0    0 -0.68824489620E+02 -0.18801293646E+02 -0.15041172798E+03  0.20823423116E+03  0.12509000000E+03 0.  0.
<mgrwt>
<rscale>  2 0.46516520E+03</rscale>
<asrwt>0</asrwt>
<pdfrwt beam="1">  1       21 0.19616677E-01 0.46516520E+03</pdfrwt>
<pdfrwt beam="2">  1       21 0.59636367E-01 0.46516520E+03</pdfrwt>
<totfact> 0.57807212E+04</totfact>
</mgrwt>
</event>
<event>
 7    0  0.4737014E-002  0.4601542E+03  0.7546771E-02  0.1024736E+00
         21   -1    0    0  502  501  0.00000000000E+00  0.00000000000E+00  0.59910380197E+03  0.59910380197E+03  0.00000000000E+00 0.  1.
         21   -1    0    0  501  502 -0.00000000000E+00 -0.00000000000E+00 -0.88357781227E+02  0.88357781227E+02  0.00000000000E+00 0.  1.
      99926    2    1    2    0    0  0.35527136788E-14 -0.71054273576E-14  0.51074602075E+03  0.68746158320E+03  0.46015424660E+03 0.  0.
      99925    2    3    3    0    0  0.19965233821E+02 -0.48675746391E+02  0.16218149038E+03  0.31341255061E+03  0.26297652407E+03 0.  0.
         25    1    4    4    0    0  0.14803429526E+02 -0.41970064724E+02  0.12570457036E+03  0.18283811137E+03  0.12509000000E+03 0.  0.
         25    1    3    3    0    0 -0.19965233821E+02  0.48675746391E+02  0.34856453037E+03  0.37404903259E+03  0.12509000000E+03 0.  0.
         25    1    4    4    0    0  0.51618042953E+01 -0.67056816673E+01  0.36476920015E+02  0.13057443924E+03  0.12509000000E+03 0.  0.
<mgrwt>
<rscale>  2 0.46015425E+03</rscale>
<asrwt>0</asrwt>
<pdfrwt beam="1">  1       21 0.88103499E-01 0.46015425E+03</pdfrwt>
<pdfrwt beam="2">  1       21 0.12993792E-01 0.46015425E+03</pdfrwt>
<totfact> 0.51468289E+04</totfact>
</mgrwt>
</event>
<event>
 7    0  0.4737014E-002  0.4603347E+03  0.7546771E-02  0.1024684E+00
         21   -1    0    0  502  501  0.00000000000E+00  0.00000000000E+00  0.12494970592E+03  0.12494970592E+03  0.00000000000E+00 0. -1.
         21   -1    0    0  501  502 -0.00000000000E+00 -0.00000000000E+00 -0.42398672288E+03  0.42398672288E+03  0.00000000000E+00 0. -1.
      99926    2    1    2    0    0  0.00000000000E+00  0.00000000000E+00 -0.29903701696E+03  0.54893642880E+03  0.46033473185E+03 0.  0.
      99925    2    3    3    0    0  0.34352131117E+02  0.11158265263E+03 -0.20424635224E+03  0.35332575552E+03  0.26361289770E+03 0.  0.
         25    1    4    4    0    0  0.53591138682E+02  0.46017302314E+02 -0.12388991267E+03  0.18969929050E+03  0.12509000000E+03 0.  0.
         25    1    3    3    0    0 -0.34352131117E+02 -0.11158265263E+03 -0.94790664725E+02  0.19561067327E+03  0.12509000000E+03 0.  0.
         25    1    4    4    0    0 -0.19239007565E+02  0.65565350315E+02 -0.80356439572E+02  0.16362646502E+03  0.12509000000E+03 0.  0.
<mgrwt>
<rscale>  2 0.46033473E+03</rscale>
<asrwt>0</asrwt>
<pdfrwt beam="1">  1       21 0.18374957E-01 0.46033473E+03</pdfrwt>
<pdfrwt beam="2">  1       21 0.62350988E-01 0.46033473E+03</pdfrwt>
<totfact> 0.59390038E+04</totfact>
</mgrwt>
</event>
<event>
 7    0  0.4737014E-002  0.3944648E+03  0.7546771E-02  0.1045713E+00
         21   -1    0    0  502  501  0.00000000000E+00  0.00000000000E+00  0.21503430728E+03  0.21503430728E+03  0.00000000000E+00 0.  1.
         21   -1    0    0  501  502 -0.00000000000E+00 -0.00000000000E+00 -0.18090422667E+03  0.18090422667E+03  0.00000000000E+00 0.  1.
      99926    2    1    2    0    0  0.00000000000E+00  0.00000000000E+00  0.34130080609E+02  0.39593853395E+03  0.39446477697E+03 0.  0.
      99925    2    3    3    0    0  0.27323177738E+02 -0.17070731623E+02  0.30059563934E+02  0.26670214927E+03  0.26303705656E+03 0.  0.
         25    1    3    3    0    0 -0.27323177738E+02  0.17070731623E+02  0.40705166755E+01  0.12923638468E+03  0.12509000000E+03 0.  0.
         25    1    4    4    0    0 -0.65037875429E+01  0.18007962493E+02  0.38262059125E+02  0.13220468688E+03  0.12509000000E+03 0.  0.
         25    1    4    4    0    0  0.33826965281E+02 -0.35078694116E+02 -0.82024951914E+01  0.13449746239E+03  0.12509000000E+03 0.  0.
<mgrwt>
<rscale>  2 0.39446478E+03</rscale>
<asrwt>0</asrwt>
<pdfrwt beam="1">  1       21 0.31622693E-01 0.39446478E+03</pdfrwt>
<pdfrwt beam="2">  1       21 0.26603562E-01 0.39446478E+03</pdfrwt>
<totfact> 0.12235952E+05</totfact>
</mgrwt>
</event>
<event>
 7    0  0.4737014E-002  0.4665135E+03  0.7546771E-02  0.1022909E+00
         21   -1    0    0  502  501  0.00000000000E+00  0.00000000000E+00  0.13390586886E+03  0.13390586886E+03  0.00000000000E+00 0. -1.
         21   -1    0    0  501  502 -0.00000000000E+00 -0.00000000000E+00 -0.40632053468E+03  0.40632053468E+03  0.00000000000E+00 0. -1.
      99926    2    1    2    0    0  0.00000000000E+00  0.00000000000E+00 -0.27241466582E+03  0.54022640354E+03  0.46651346918E+03 0.  0.
      99925    2    3    3    0    0 -0.89576512079E+02 -0.12886844952E+02 -0.72371533019E+02  0.28753135933E+03  0.26314752804E+03 0.  0.
         25    1    4    4    0    0 -0.27219871051E+01 -0.14670595084E+02 -0.33053507517E+02  0.13024084625E+03  0.12509000000E+03 0.  0.
         25    1    4    4    0    0 -0.86854524974E+02  0.17837501325E+01 -0.39318025502E+02  0.15729051307E+03  0.12509000000E+03 0.  0.
         25    1    3    3    0    0  0.89576512079E+02  0.12886844952E+02 -0.20004313280E+03  0.25269504421E+03  0.12509000000E+03 0.  0.
<mgrwt>
<rscale>  2 0.46651347E+03</rscale>
<asrwt>0</asrwt>
<pdfrwt beam="1">  1       21 0.19692040E-01 0.46651347E+03</pdfrwt>
<pdfrwt beam="2">  1       21 0.59753019E-01 0.46651347E+03</pdfrwt>
<totfact> 0.57126168E+04</totfact>
</mgrwt>
</event>
<event>
 7    0  0.4737014E-002  0.4499965E+03  0.7546771E-02  0.1027723E+00
         21   -1    0    0  502  501  0.00000000000E+00  0.00000000000E+00  0.13803054793E+04  0.13803054793E+04  0.00000000000E+00 0.  1.
         21   -1    0    0  501  502 -0.00000000000E+00 -0.00000000000E+00 -0.36676085559E+02  0.36676085559E+02  0.00000000000E+00 0.  1.
      99926    2    1    2    0    0  0.00000000000E+00  0.00000000000E+00  0.13436293938E+04  0.14169815649E+04  0.44999645268E+03 0.  0.
      99925    2    3    3    0    0  0.77364477823E+02 -0.37302008766E+02  0.63285608673E+03  0.69019211506E+03  0.26168994418E+03 0.  0.
         25    1    4    4    0    0  0.76900487898E+02 -0.11927341311E+02  0.31902115293E+03  0.35139429510E+03  0.12509000000E+03 0.  0.
         25    1    4    4    0    0  0.46398992482E+00 -0.25374667456E+02  0.31383493380E+03  0.33879781996E+03  0.12509000000E+03 0.  0.
         25    1    3    3    0    0 -0.77364477823E+02  0.37302008766E+02  0.71077330702E+03  0.72678944981E+03  0.12509000000E+03 0.  0.
<mgrwt>
<rscale>  2 0.44999645E+03</rscale>
<asrwt>0</asrwt>
<pdfrwt beam="1">  1       21 0.20298607E+00 0.44999645E+03</pdfrwt>
<pdfrwt beam="2">  1       21 0.53935429E-02 0.44999645E+03</pdfrwt>
<totfact> 0.26914325E+04</totfact>
</mgrwt>
</event>
<event>
 7    0  0.4737014E-002  0.4532477E+03  0.7546771E-02  0.1026758E+00
         21   -1    0    0  502  501  0.00000000000E+00  0.00000000000E+00  0.23605728006E+02  0.23605728006E+02  0.00000000000E+00 0. -1.
         21   -1    0    0  501  502 -0.00000000000E+00 -0.00000000000E+00 -0.21756741888E+04  0.21756741888E+04  0.00000000000E+00 0. -1.
      99926    2    1    2    0    0  0.14210854715E-13  0.35527136788E-14 -0.21520684608E+04  0.21992799168E+04  0.45324771651E+03 0.  0.
      99925    2    3    3    0    0  0.74307115901E+02 -0.30447254100E+02 -0.98129443580E+03  0.10191070869E+04  0.26304353646E+03 0.  0.
         25    1    4    4    0    0  0.28568182487E+02 -0.38756650670E+02 -0.61018551349E+03  0.62473361363E+03  0.12509000000E+03 0.  0.
         25    1    4    4    0    0  0.45738933414E+02  0.83093965704E+01 -0.37110892231E+03  0.39437347327E+03  0.12509000000E+03 0.  0.
         25    1    3    3    0    0 -0.74307115901E+02  0.30447254100E+02 -0.11707740250E+04  0.11801728299E+04  0.12509000000E+03 0.  0.
<mgrwt>
<rscale>  2 0.45324772E+03</rscale>
<asrwt>0</asrwt>
<pdfrwt beam="1">  1       21 0.34714299E-02 0.45324772E+03</pdfrwt>
<pdfrwt beam="2">  1       21 0.31995215E+00 0.45324772E+03</pdfrwt>
<totfact> 0.10867928E+04</totfact>
</mgrwt>
</event>
<event>
 6    0  0.4737014E-002  0.4529936E+03  0.7546771E-02  0.1026833E+00
         21   -1    0    0  502  501  0.00000000000E+00  0.00000000000E+00  0.82602615140E+02  0.82602615140E+02  0.00000000000E+00 0. -1.
         21   -1    0    0  501  502 -0.00000000000E+00 -0.00000000000E+00 -0.62105547350E+03  0.62105547350E+03  0.00000000000E+00 0. -1.
      99926    2    1    2    0    0  0.00000000000E+00  0.14210854715E-13 -0.53845285836E+03  0.70365808864E+03  0.45299362582E+03 0.  0.
         25    1    3    3    0    0  0.51120903315E+01  0.19870028425E+02 -0.19900913744E+03  0.23595147039E+03  0.12509000000E+03 0.  0.
         25    1    3    3    0    0 -0.67807514401E+02 -0.85568524791E+02 -0.19543425321E+03  0.25644080578E+03  0.12509000000E+03 0.  0.
         25    1    3    3    0    0  0.62695424069E+02  0.65698496366E+02 -0.14400946772E+03  0.21126581246E+03  0.12509000000E+03 0.  0.
<mgrwt>
<rscale>  2 0.45299363E+03</rscale>
<asrwt>0</asrwt>
<pdfrwt beam="1">  1       21 0.12147444E-01 0.45299363E+03</pdfrwt>
<pdfrwt beam="2">  1       21 0.91331687E-01 0.45299363E+03</pdfrwt>
<totfact> 0.53545175E+04</totfact>
</mgrwt>
</event>
<event>
 7    0  0.4737014E-002  0.4494644E+03  0.7546771E-02  0.1027882E+00
         21   -1    0    0  502  501  0.00000000000E+00  0.00000000000E+00  0.24594834856E+02  0.24594834856E+02  0.00000000000E+00 0.  1.
         21   -1    0    0  501  502 -0.00000000000E+00 -0.00000000000E+00 -0.20534620395E+04  0.20534620395E+04  0.00000000000E+00 0.  1.
      99926    2    1    2    0    0  0.00000000000E+00  0.00000000000E+00 -0.20288672047E+04  0.20780568744E+04  0.44946439123E+03 0.  0.
      99925    2    3    3    0    0  0.68360808101E+02 -0.66753882349E+02 -0.10569349624E+04  0.10934609814E+04  0.26346939504E+03 0.  0.
         25    1    4    4    0    0  0.37305593763E+02 -0.71512978532E+02 -0.63747036927E+03  0.65461575999E+03  0.12509000000E+03 0.  0.
         25    1    3    3    0    0 -0.68360808101E+02  0.66753882349E+02 -0.97193224221E+03  0.98459589297E+03  0.12509000000E+03 0.  0.
         25    1    4    4    0    0  0.31055214338E+02  0.47590961830E+01 -0.41946459317E+03  0.43884522142E+03  0.12509000000E+03 0.  0.
<mgrwt>
<rscale>  2 0.44946439E+03</rscale>
<asrwt>0</asrwt>
<pdfrwt beam="1">  1       21 0.36168868E-02 0.44946439E+03</pdfrwt>
<pdfrwt beam="2">  1       21 0.30197976E+00 0.44946439E+03</pdfrwt>
<totfact> 0.13028076E+04</totfact>
</mgrwt>
</event>
<event>
 7    0  0.4737014E-002  0.4462372E+03  0.7546771E-02  0.1028850E+00
         21   -1    0    0  502  501  0.00000000000E+00  0.00000000000E+00  0.84479723537E+02  0.84479723537E+02  0.00000000000E+00 0. -1.
         21   -1    0    0  501  502 -0.00000000000E+00 -0.00000000000E+00 -0.58927640960E+03  0.58927640960E+03  0.00000000000E+00 0. -1.
      99926    2    1    2    0    0  0.00000000000E+00 -0.35527136788E-14 -0.50479668606E+03  0.67375613314E+03  0.44623719329E+03 0.  0.
      99925    2    3    3    0    0  0.16514563276E+02 -0.29452621769E+02 -0.46996142425E+03  0.53958761487E+03  0.26296552266E+03 0.  0.
         25    1    3    3    0    0 -0.16514563276E+02  0.29452621769E+02 -0.34835261814E+02  0.13416851827E+03  0.12509000000E+03 0.  0.
         25    1    4    4    0    0  0.10239797288E+02  0.36712553223E+01 -0.30499997932E+03  0.32983454496E+03  0.12509000000E+03 0.  0.
         25    1    4    4    0    0  0.62747659883E+01 -0.33123877091E+02 -0.16496144493E+03  0.20975306990E+03  0.12509000000E+03 0.  0.
<mgrwt>
<rscale>  2 0.44623719E+03</rscale>
<asrwt>0</asrwt>
<pdfrwt beam="1">  1       21 0.12423489E-01 0.44623719E+03</pdfrwt>
<pdfrwt beam="2">  1       21 0.86658295E-01 0.44623719E+03</pdfrwt>
<totfact> 0.58270213E+04</totfact>
</mgrwt>
</event>
<event>
 7    0  0.4737014E-002  0.4565174E+03  0.7546771E-02  0.1025796E+00
         21   -1    0    0  502  501  0.00000000000E+00  0.00000000000E+00  0.51115161131E+03  0.51115161131E+03  0.00000000000E+00 0.  1.
         21   -1    0    0  501  502 -0.00000000000E+00 -0.00000000000E+00 -0.10193070137E+03  0.10193070137E+03  0.00000000000E+00 0.  1.
      99926    2    1    2    0    0  0.00000000000E+00  0.00000000000E+00  0.40922090993E+03  0.61308231268E+03  0.45651743559E+03 0.  0.
      99925    2    3    3    0    0 -0.64077676160E+02 -0.89358517661E+02  0.21396000939E+03  0.35644010913E+03  0.26302047928E+03 0.  0.
         25    1    3    3    0    0  0.64077676160E+02  0.89358517661E+02  0.19526090054E+03  0.25664220354E+03  0.12509000000E+03 0.  0.
         25    1    4    4    0    0 -0.43318288274E+02 -0.53157172418E+02  0.15890139412E+03  0.21353997338E+03  0.12509000000E+03 0.  0.
         25    1    4    4    0    0 -0.20759387886E+02 -0.36201345243E+02  0.55058615277E+02  0.14290013576E+03  0.12509000000E+03 0.  0.
<mgrwt>
<rscale>  2 0.45651744E+03</rscale>
<asrwt>0</asrwt>
<pdfrwt beam="1">  1       21 0.75169354E-01 0.45651744E+03</pdfrwt>
<pdfrwt beam="2">  1       21 0.14989809E-01 0.45651744E+03</pdfrwt>
<totfact> 0.57191624E+04</totfact>
</mgrwt>
</event>
<event>
 7    0  0.4737014E-002  0.4838427E+03  0.7546771E-02  0.1018084E+00
         21   -1    0    0  502  501  0.00000000000E+00  0.00000000000E+00  0.98403666794E+02  0.98403666794E+02  0.00000000000E+00 0. -1.
         21   -1    0    0  501  502 -0.00000000000E+00 -0.00000000000E+00 -0.59475353377E+03  0.59475353377E+03  0.00000000000E+00 0. -1.
      99926    2    1    2    0    0  0.71054273576E-14  0.00000000000E+00 -0.49634986698E+03  0.69315720057E+03  0.48384265443E+03 0.  0.
      99925    2    3    3    0    0 -0.42732247242E+02 -0.12835614566E+03 -0.34676743561E+03  0.45583093367E+03  0.26312134200E+03 0.  0.
         25    1    3    3    0    0  0.42732247242E+02  0.12835614566E+03 -0.14958243137E+03  0.23732626689E+03  0.12509000000E+03 0.  0.
         25    1    4    4    0    0  0.16699646944E+02 -0.53099873592E+02 -0.18282936985E+03  0.22841313746E+03  0.12509000000E+03 0.  0.
         25    1    4    4    0    0 -0.59431894186E+02 -0.75256272066E+02 -0.16393806576E+03  0.22741779622E+03  0.12509000000E+03 0.  0.
<mgrwt>
<rscale>  2 0.48384265E+03</rscale>
<asrwt>0</asrwt>
<pdfrwt beam="1">  1       21 0.14471127E-01 0.48384265E+03</pdfrwt>
<pdfrwt beam="2">  1       21 0.87463756E-01 0.48384265E+03</pdfrwt>
<totfact> 0.42711618E+04</totfact>
</mgrwt>
</event>
<event>
 7    0  0.4737014E-002  0.4570100E+03  0.7546771E-02  0.1025652E+00
         21   -1    0    0  502  501  0.00000000000E+00  0.00000000000E+00  0.24043632117E+04  0.24043632117E+04  0.00000000000E+00 0.  1.
         21   -1    0    0  501  502 -0.00000000000E+00 -0.00000000000E+00 -0.21716572093E+02  0.21716572093E+02  0.00000000000E+00 0.  1.
      99926    2    1    2    0    0 -0.17763568394E-14  0.00000000000E+00  0.23826466396E+04  0.24260797838E+04  0.45700996499E+03 0.  0.
      99925    2    3    3    0    0  0.66075260835E+01 -0.37774084883E+00  0.21063240719E+04  0.21226898176E+04  0.26299650873E+03 0.  0.
         25    1    4    4    0    0  0.42496232400E+02 -0.17100878733E+01  0.97764030334E+03  0.98652771121E+03  0.12509000000E+03 0.  0.
         25    1    3    3    0    0 -0.66075260835E+01  0.37774084883E+00  0.27632256772E+03  0.30338996625E+03  0.12509000000E+03 0.  0.
         25    1    4    4    0    0 -0.35888706317E+02  0.13323470244E+01  0.11286837686E+04  0.11361621064E+04  0.12509000000E+03 0.  0.
<mgrwt>
<rscale>  2 0.45700996E+03</rscale>
<asrwt>0</asrwt>
<pdfrwt beam="1">  1       21 0.35358264E+00 0.45700996E+03</pdfrwt>
<pdfrwt beam="2">  1       21 0.31936152E-02 0.45700996E+03</pdfrwt>
<totfact> 0.77954762E+03</totfact>
</mgrwt>
</event>
<event>
 7    0  0.4737014E-002  0.4525941E+03  0.7546771E-02  0.1026951E+00
         21   -1    0    0  502  501  0.00000000000E+00  0.00000000000E+00  0.70921612046E+03  0.70921612046E+03  0.00000000000E+00 0.  1.
         21   -1    0    0  501  502 -0.00000000000E+00 -0.00000000000E+00 -0.72206968073E+02  0.72206968073E+02  0.00000000000E+00 0.  1.
      99926    2    1    2    0    0  0.00000000000E+00  0.00000000000E+00  0.63700915239E+03  0.78142308854E+03  0.45259405991E+03 0.  0.
      99925    2    3    3    0    0 -0.49945160976E+02 -0.71939756658E+02  0.51900520447E+03  0.58844047917E+03  0.26310824306E+03 0.  0.
         25    1    3    3    0    0  0.49945160976E+02  0.71939756658E+02  0.11800394792E+03  0.19298260936E+03  0.12509000000E+03 0.  0.
         25    1    4    4    0    0 -0.30010518574E+02 -0.58269243847E+02  0.19909962937E+03  0.24409855903E+03  0.12509000000E+03 0.  0.
         25    1    4    4    0    0 -0.19934642402E+02 -0.13670512811E+02  0.31990557510E+03  0.34434192015E+03  0.12509000000E+03 0.  0.
<mgrwt>
<rscale>  2 0.45259406E+03</rscale>
<asrwt>0</asrwt>
<pdfrwt beam="1">  1       21 0.10429648E+00 0.45259406E+03</pdfrwt>
<pdfrwt beam="2">  1       21 0.10618672E-01 0.45259406E+03</pdfrwt>
<totfact> 0.49606702E+04</totfact>
</mgrwt>
</event>
<event>
 7    0  0.4737014E-002  0.4330058E+03  0.7546771E-02  0.1032915E+00
         21   -1    0    0  502  501  0.00000000000E+00  0.00000000000E+00  0.83720607791E+02  0.83720607791E+02  0.00000000000E+00 0. -1.
         21   -1    0    0  501  502 -0.00000000000E+00 -0.00000000000E+00 -0.55988010181E+03  0.55988010181E+03  0.00000000000E+00 0. -1.
      99926    2    1    2    0    0  0.71054273576E-14  0.00000000000E+00 -0.47615949402E+03  0.64360070960E+03  0.43300578478E+03 0.  0.
      99925    2    3    3    0    0  0.45360691366E+02 -0.78691618655E+02 -0.29913032693E+03  0.40857561037E+03  0.26306864833E+03 0.  0.
         25    1    4    4    0    0 -0.14795007192E+01 -0.93349356098E+01 -0.16262779017E+03  0.20538898748E+03  0.12509000000E+03 0.  0.
         25    1    4    4    0    0  0.46840192085E+02 -0.69356683045E+02 -0.13650253676E+03  0.20318662288E+03  0.12509000000E+03 0.  0.
         25    1    3    3    0    0 -0.45360691366E+02  0.78691618655E+02 -0.17702916709E+03  0.23502509923E+03  0.12509000000E+03 0.  0.
<mgrwt>
<rscale>  2 0.43300578E+03</rscale>
<asrwt>0</asrwt>
<pdfrwt beam="1">  1       21 0.12311854E-01 0.43300578E+03</pdfrwt>
<pdfrwt beam="2">  1       21 0.82335310E-01 0.43300578E+03</pdfrwt>
<totfact> 0.66951123E+04</totfact>
</mgrwt>
</event>
<event>
 7    0  0.4737014E-002  0.4602739E+03  0.7546771E-02  0.1024702E+00
         21   -1    0    0  502  501  0.00000000000E+00  0.00000000000E+00  0.21396027099E+03  0.21396027099E+03  0.00000000000E+00 0. -1.
         21   -1    0    0  501  502 -0.00000000000E+00 -0.00000000000E+00 -0.24753664571E+03  0.24753664571E+03  0.00000000000E+00 0. -1.
      99926    2    1    2    0    0  0.00000000000E+00  0.00000000000E+00 -0.33576374724E+02  0.46149691670E+03  0.46027386542E+03 0.  0.
      99925    2    3    3    0    0  0.97145576268E+02 -0.36226595208E+02  0.35403433699E+02  0.28498813149E+03  0.26308782332E+03 0.  0.
         25    1    4    4    0    0  0.77745641877E+02 -0.19959712055E+02  0.49338689927E+02  0.15660328655E+03  0.12509000000E+03 0.  0.
         25    1    4    4    0    0  0.19399934391E+02 -0.16266883153E+02 -0.13935256228E+02  0.12838484493E+03  0.12509000000E+03 0.  0.
         25    1    3    3    0    0 -0.97145576268E+02  0.36226595208E+02 -0.68979808423E+02  0.17650878522E+03  0.12509000000E+03 0.  0.
<mgrwt>
<rscale>  2 0.46027387E+03</rscale>
<asrwt>0</asrwt>
<pdfrwt beam="1">  1       21 0.31464746E-01 0.46027387E+03</pdfrwt>
<pdfrwt beam="2">  1       21 0.36402448E-01 0.46027387E+03</pdfrwt>
<totfact> 0.65281928E+04</totfact>
</mgrwt>
</event>
<event>
 7    0  0.4737014E-002  0.4464389E+03  0.7546771E-02  0.1028789E+00
         21   -1    0    0  502  501  0.00000000000E+00  0.00000000000E+00  0.21208386158E+03  0.21208386158E+03  0.00000000000E+00 0.  1.
         21   -1    0    0  501  502 -0.00000000000E+00 -0.00000000000E+00 -0.23493966722E+03  0.23493966722E+03  0.00000000000E+00 0.  1.
      99926    2    1    2    0    0  0.00000000000E+00  0.00000000000E+00 -0.22855805644E+02  0.44702352879E+03  0.44643885073E+03 0.  0.
      99925    2    3    3    0    0 -0.97369587006E+02 -0.12802085924E+02 -0.51810674182E+02  0.28537383845E+03  0.26288619559E+03 0.  0.
         25    1    3    3    0    0  0.97369587006E+02  0.12802085924E+02  0.28954868538E+02  0.16164969035E+03  0.12509000000E+03 0.  0.
         25    1    4    4    0    0 -0.91569054521E+02 -0.42407715818E+01 -0.26470657535E+02  0.15732475870E+03  0.12509000000E+03 0.  0.
         25    1    4    4    0    0 -0.58005324852E+01 -0.85613143426E+01 -0.25340016646E+02  0.12804907975E+03  0.12509000000E+03 0.  0.
<mgrwt>
<rscale>  2 0.44643885E+03</rscale>
<asrwt>0</asrwt>
<pdfrwt beam="1">  1       21 0.31188803E-01 0.44643885E+03</pdfrwt>
<pdfrwt beam="2">  1       21 0.34549951E-01 0.44643885E+03</pdfrwt>
<totfact> 0.74065621E+04</totfact>
</mgrwt>
</event>
<event>
 7    0  0.4737014E-002  0.4385393E+03  0.7546771E-02  0.1031196E+00
         21   -1    0    0  502  501  0.00000000000E+00  0.00000000000E+00  0.15351241373E+03  0.15351241373E+03  0.00000000000E+00 0.  1.
         21   -1    0    0  501  502 -0.00000000000E+00 -0.00000000000E+00 -0.31319412848E+03  0.31319412848E+03  0.00000000000E+00 0.  1.
      99926    2    1    2    0    0  0.00000000000E+00  0.00000000000E+00 -0.15968171475E+03  0.46670654221E+03  0.43853933291E+03 0.  0.
      99925    2    3    3    0    0 -0.88225006469E+02  0.13820561472E+02 -0.62078221445E+02  0.28463894572E+03  0.26304175364E+03 0.  0.
         25    1    4    4    0    0 -0.18341486856E+02 -0.25918529602E+02 -0.26611003151E+02  0.13177190105E+03  0.12509000000E+03 0.  0.
         25    1    3    3    0    0  0.88225006469E+02 -0.13820561472E+02 -0.97603493304E+02  0.18206759649E+03  0.12509000000E+03 0.  0.
         25    1    4    4    0    0 -0.69883519612E+02  0.39739091074E+02 -0.35467218294E+02  0.15286704467E+03  0.12509000000E+03 0.  0.
<mgrwt>
<rscale>  2 0.43853933E+03</rscale>
<asrwt>0</asrwt>
<pdfrwt beam="1">  1       21 0.22575355E-01 0.43853933E+03</pdfrwt>
<pdfrwt beam="2">  1       21 0.46057959E-01 0.43853933E+03</pdfrwt>
<totfact> 0.77295860E+04</totfact>
</mgrwt>
</event>
<event>
 7    0  0.4737014E-002  0.4695323E+03  0.7546771E-02  0.1022052E+00
         21   -1    0    0  502  501  0.00000000000E+00  0.00000000000E+00  0.12686050602E+03  0.12686050602E+03  0.00000000000E+00 0. -1.
         21   -1    0    0  501  502 -0.00000000000E+00 -0.00000000000E+00 -0.43445465417E+03  0.43445465417E+03  0.00000000000E+00 0. -1.
      99926    2    1    2    0    0 -0.35527136788E-14 -0.71054273576E-14 -0.30759414816E+03  0.56131516019E+03  0.46953226628E+03 0.  0.
      99925    2    3    3    0    0 -0.24215139727E+02 -0.48864494533E+02 -0.55017056145E+02  0.27423188424E+03  0.26306299255E+03 0.  0.
         25    1    4    4    0    0  0.19172113894E+02  0.17923218433E+01 -0.19146923236E+02  0.12800349659E+03  0.12509000000E+03 0.  0.
         25    1    4    4    0    0 -0.43387253621E+02 -0.50656816376E+02 -0.35870132909E+02  0.14622838766E+03  0.12509000000E+03 0.  0.
         25    1    3    3    0    0  0.24215139727E+02  0.48864494533E+02 -0.25257709201E+03  0.28708327594E+03  0.12509000000E+03 0.  0.
<mgrwt>
<rscale>  2 0.46953227E+03</rscale>
<asrwt>0</asrwt>
<pdfrwt beam="1">  1       21 0.18655957E-01 0.46953227E+03</pdfrwt>
<pdfrwt beam="2">  1       21 0.63890390E-01 0.46953227E+03</pdfrwt>
<totfact> 0.54575650E+04</totfact>
</mgrwt>
</event>
<event>
 7    0  0.4737014E-002  0.4518550E+03  0.7546771E-02  0.1027170E+00
         21   -1    0    0  502  501  0.00000000000E+00  0.00000000000E+00  0.56691457634E+03  0.56691457634E+03  0.00000000000E+00 0. -1.
         21   -1    0    0  501  502 -0.00000000000E+00 -0.00000000000E+00 -0.90036898113E+02  0.90036898113E+02  0.00000000000E+00 0. -1.
      99926    2    1    2    0    0  0.00000000000E+00  0.00000000000E+00  0.47687767823E+03  0.65695147446E+03  0.45185497651E+03 0.  0.
      99925    2    3    3    0    0 -0.86094465863E+02 -0.64000290893E+02  0.26450331139E+03  0.38814173863E+03  0.26302797045E+03 0.  0.
         25    1    4    4    0    0 -0.61112025886E+02 -0.50226079193E+02  0.18611295612E+03  0.23778746661E+03  0.12509000000E+03 0.  0.
         25    1    4    4    0    0 -0.24982439978E+02 -0.13774211700E+02  0.78390355267E+02  0.15035427202E+03  0.12509000000E+03 0.  0.
         25    1    3    3    0    0  0.86094465863E+02  0.64000290893E+02  0.21237436684E+03  0.26880973583E+03  0.12509000000E+03 0.  0.
<mgrwt>
<rscale>  2 0.45185498E+03</rscale>
<asrwt>0</asrwt>
<pdfrwt beam="1">  1       21 0.83369789E-01 0.45185498E+03</pdfrwt>
<pdfrwt beam="2">  1       21 0.13240721E-01 0.45185498E+03</pdfrwt>
<totfact> 0.56695842E+04</totfact>
</mgrwt>
</event>
<event>
 7    0  0.4737014E-002  0.4579908E+03  0.7546771E-02  0.1025366E+00
         21   -1    0    0  502  501  0.00000000000E+00  0.00000000000E+00  0.39182110381E+03  0.39182110381E+03  0.00000000000E+00 0.  1.
         21   -1    0    0  501  502 -0.00000000000E+00 -0.00000000000E+00 -0.13383374612E+03  0.13383374612E+03  0.00000000000E+00 0.  1.
      99926    2    1    2    0    0 -0.71054273576E-14  0.00000000000E+00  0.25798735769E+03  0.52565484993E+03  0.45799076905E+03 0.  0.
      99925    2    3    3    0    0  0.51771870765E+02  0.43814544415E+02  0.53878154706E+02  0.27684143441E+03  0.26294159683E+03 0.  0.
         25    1    4    4    0    0  0.62832940735E+02  0.24389493698E+02  0.46688800728E+02  0.14956663417E+03  0.12509000000E+03 0.  0.
         25    1    3    3    0    0 -0.51771870765E+02 -0.43814544415E+02  0.20410920298E+03  0.24881341553E+03  0.12509000000E+03 0.  0.
         25    1    4    4    0    0 -0.11061069971E+02  0.19425050717E+02  0.71893539780E+01  0.12727480024E+03  0.12509000000E+03 0.  0.
<mgrwt>
<rscale>  2 0.45799077E+03</rscale>
<asrwt>0</asrwt>
<pdfrwt beam="1">  1       21 0.57620750E-01 0.45799077E+03</pdfrwt>
<pdfrwt beam="2">  1       21 0.19681433E-01 0.45799077E+03</pdfrwt>
<totfact> 0.62018096E+04</totfact>
</mgrwt>
</event>
<event>
 7    0  0.4737014E-002  0.4552171E+03  0.7546771E-02  0.1026178E+00
         21   -1    0    0  502  501  0.00000000000E+00  0.00000000000E+00  0.13482120929E+03  0.13482120929E+03  0.00000000000E+00 0. -1.
         21   -1    0    0  501  502 -0.00000000000E+00 -0.00000000000E+00 -0.38425449109E+03  0.38425449109E+03  0.00000000000E+00 0. -1.
      99926    2    1    2    0    0  0.00000000000E+00  0.00000000000E+00 -0.24943328180E+03  0.51907570038E+03  0.45521711376E+03 0.  0.
      99925    2    3    3    0    0  0.75963924472E+02  0.82797102429E+02 -0.17438117079E+03  0.33493932305E+03  0.26296326626E+03 0.  0.
         25    1    4    4    0    0  0.67261418111E+02  0.17885131679E+02 -0.10557150329E+03  0.17786744140E+03  0.12509000000E+03 0.  0.
         25    1    4    4    0    0  0.87025063613E+01  0.64911970750E+02 -0.68809667496E+02  0.15707188165E+03  0.12509000000E+03 0.  0.
         25    1    3    3    0    0 -0.75963924472E+02 -0.82797102429E+02 -0.75052111014E+02  0.18413637734E+03  0.12509000000E+03 0.  0.
<mgrwt>
<rscale>  2 0.45521711E+03</rscale>
<asrwt>0</asrwt>
<pdfrwt beam="1">  1       21 0.19826649E-01 0.45521711E+03</pdfrwt>
<pdfrwt beam="2">  1       21 0.56508012E-01 0.45521711E+03</pdfrwt>
<totfact> 0.63840247E+04</totfact>
</mgrwt>
</event>
<event>
 7    0  0.4737014E-002  0.4529116E+03  0.7546771E-02  0.1026857E+00
         21   -1    0    0  502  501  0.00000000000E+00  0.00000000000E+00  0.46650309138E+02  0.46650309138E+02  0.00000000000E+00 0. -1.
         21   -1    0    0  501  502 -0.00000000000E+00 -0.00000000000E+00 -0.10992900389E+04  0.10992900389E+04  0.00000000000E+00 0. -1.
      99926    2    1    2    0    0  0.00000000000E+00 -0.35527136788E-14 -0.10526397298E+04  0.11459403480E+04  0.45291155934E+03 0.  0.
      99925    2    3    3    0    0  0.66845260593E+02 -0.15609606996E+02 -0.44454791300E+03  0.52133237946E+03  0.26353871486E+03 0.  0.
         25    1    4    4    0    0  0.35239837853E+01  0.22253415793E+02 -0.20860411050E+03  0.24427610606E+03  0.12509000000E+03 0.  0.
         25    1    3    3    0    0 -0.66845260593E+02  0.15609606996E+02 -0.60809181675E+03  0.62460796857E+03  0.12509000000E+03 0.  0.
         25    1    4    4    0    0  0.63321276808E+02 -0.37863022789E+02 -0.23594380250E+03  0.27705627340E+03  0.12509000000E+03 0.  0.
<mgrwt>
<rscale>  2 0.45291156E+03</rscale>
<asrwt>0</asrwt>
<pdfrwt beam="1">  1       21 0.68603404E-02 0.45291156E+03</pdfrwt>
<pdfrwt beam="2">  1       21 0.16166028E+00 0.45291156E+03</pdfrwt>
<totfact> 0.34475968E+04</totfact>
</mgrwt>
</event>
<event>
 7    0  0.4737014E-002  0.4647790E+03  0.7546771E-02  0.1023404E+00
         21   -1    0    0  502  501  0.00000000000E+00  0.00000000000E+00  0.34658933699E+02  0.34658933699E+02  0.00000000000E+00 0.  1.
         21   -1    0    0  501  502 -0.00000000000E+00 -0.00000000000E+00 -0.15581808213E+04  0.15581808213E+04  0.00000000000E+00 0.  1.
      99926    2    1    2    0    0  0.00000000000E+00  0.00000000000E+00 -0.15235218876E+04  0.15928397550E+04  0.46477902611E+03 0.  0.
      99925    2    3    3    0    0  0.40690085870E+02  0.11397856662E+03 -0.89473528337E+03  0.94040822717E+03  0.26300115912E+03 0.  0.
         25    1    4    4    0    0  0.10785519761E+01  0.78100557204E+02 -0.55991061552E+03  0.57900627439E+03  0.12509000000E+03 0.  0.
         25    1    4    4    0    0  0.39611533894E+02  0.35878009418E+02 -0.33482466784E+03  0.36140195278E+03  0.12509000000E+03 0.  0.
         25    1    3    3    0    0 -0.40690085870E+02 -0.11397856662E+03 -0.62878660423E+03  0.65243152783E+03  0.12509000000E+03 0.  0.
<mgrwt>
<rscale>  2 0.46477903E+03</rscale>
<asrwt>0</asrwt>
<pdfrwt beam="1">  1       21 0.50969025E-02 0.46477903E+03</pdfrwt>
<pdfrwt beam="2">  1       21 0.22914422E+00 0.46477903E+03</pdfrwt>
<totfact> 0.20027600E+04</totfact>
</mgrwt>
</event>
<event>
 7    0  0.4737014E-002  0.4527645E+03  0.7546771E-02  0.1026901E+00
         21   -1    0    0  502  501  0.00000000000E+00  0.00000000000E+00  0.58589545601E+03  0.58589545601E+03  0.00000000000E+00 0. -1.
         21   -1    0    0  501  502 -0.00000000000E+00 -0.00000000000E+00 -0.87471100280E+02  0.87471100280E+02  0.00000000000E+00 0. -1.
      99926    2    1    2    0    0  0.00000000000E+00 -0.71054273576E-14  0.49842435573E+03  0.67336655629E+03  0.45276448706E+03 0.  0.
      99925    2    3    3    0    0  0.84002766733E+02 -0.63619522514E+02  0.36633585690E+03  0.46313147813E+03  0.26303022169E+03 0.  0.
         25    1    3    3    0    0 -0.84002766733E+02  0.63619522514E+02  0.13208849883E+03  0.21023507816E+03  0.12509000000E+03 0.  0.
         25    1    4    4    0    0  0.14664593509E+02 -0.52858024617E+02  0.21422702996E+03  0.25406642740E+03  0.12509000000E+03 0.  0.
         25    1    4    4    0    0  0.69338173224E+02 -0.10761497897E+02  0.15210882694E+03  0.20906505073E+03  0.12509000000E+03 0.  0.
<mgrwt>
<rscale>  2 0.45276449E+03</rscale>
<asrwt>0</asrwt>
<pdfrwt beam="1">  1       21 0.86161094E-01 0.45276449E+03</pdfrwt>
<pdfrwt beam="2">  1       21 0.12863397E-01 0.45276449E+03</pdfrwt>
<totfact> 0.55341702E+04</totfact>
</mgrwt>
</event>
<event>
 7    0  0.4737014E-002  0.4461411E+03  0.7546771E-02  0.1028879E+00
         21   -1    0    0  502  501  0.00000000000E+00  0.00000000000E+00  0.75089720937E+03  0.75089720937E+03  0.00000000000E+00 0. -1.
         21   -1    0    0  501  502 -0.00000000000E+00 -0.00000000000E+00 -0.66268032340E+02  0.66268032340E+02  0.00000000000E+00 0. -1.
      99926    2    1    2    0    0  0.00000000000E+00  0.00000000000E+00  0.68462917703E+03  0.81716524171E+03  0.44614114607E+03 0.  0.
      99925    2    3    3    0    0 -0.89342488064E+02 -0.49815330134E+02  0.47646313721E+03  0.55364246181E+03  0.26275312960E+03 0.  0.
         25    1    4    4    0    0 -0.60807805239E+02 -0.23415941515E+02  0.31918823631E+03  0.34896208074E+03  0.12509000000E+03 0.  0.
         25    1    4    4    0    0 -0.28534682825E+02 -0.26399388620E+02  0.15727490089E+03  0.20468038107E+03  0.12509000000E+03 0.  0.
         25    1    3    3    0    0  0.89342488064E+02  0.49815330134E+02  0.20816603983E+03  0.26352277990E+03  0.12509000000E+03 0.  0.
<mgrwt>
<rscale>  2 0.44614115E+03</rscale>
<asrwt>0</asrwt>
<pdfrwt beam="1">  1       21 0.11042606E+00 0.44614115E+03</pdfrwt>
<pdfrwt beam="2">  1       21 0.97452993E-02 0.44614115E+03</pdfrwt>
<totfact> 0.50355981E+04</totfact>
</mgrwt>
</event>
<event>
 7    0  0.4737014E-002  0.4528191E+03  0.7546771E-02  0.1026885E+00
         21   -1    0    0  502  501  0.00000000000E+00  0.00000000000E+00  0.83378012923E+02  0.83378012923E+02  0.00000000000E+00 0.  1.
         21   -1    0    0  501  502 -0.00000000000E+00 -0.00000000000E+00 -0.61480586744E+03  0.61480586744E+03  0.00000000000E+00 0.  1.
      99926    2    1    2    0    0 -0.71054273576E-14  0.00000000000E+00 -0.53142785452E+03  0.69818388037E+03  0.45281913193E+03 0.  0.
      99925    2    3    3    0    0  0.31692612908E+02  0.98877280814E+02 -0.27414680878E+03  0.39384495257E+03  0.26301375540E+03 0.  0.
         25    1    4    4    0    0 -0.21981830665E+02  0.32780275330E+02 -0.13605614805E+03  0.18898817648E+03  0.12509000000E+03 0.  0.
         25    1    3    3    0    0 -0.31692612908E+02 -0.98877280814E+02 -0.25728104574E+03  0.30433892780E+03  0.12509000000E+03 0.  0.
         25    1    4    4    0    0  0.53674443573E+02  0.66097005484E+02 -0.13809066073E+03  0.20485677609E+03  0.12509000000E+03 0.  0.
<mgrwt>
<rscale>  2 0.45281913E+03</rscale>
<asrwt>0</asrwt>
<pdfrwt beam="1">  1       21 0.12261472E-01 0.45281913E+03</pdfrwt>
<pdfrwt beam="2">  1       21 0.90412631E-01 0.45281913E+03</pdfrwt>
<totfact> 0.53921223E+04</totfact>
</mgrwt>
</event>
<event>
 7    0  0.4737014E-002  0.4551337E+03  0.7546771E-02  0.1026202E+00
         21   -1    0    0  502  501  0.00000000000E+00  0.00000000000E+00  0.18881811852E+03  0.18881811852E+03  0.00000000000E+00 0. -1.
         21   -1    0    0  501  502 -0.00000000000E+00 -0.00000000000E+00 -0.27426746347E+03  0.27426746347E+03  0.00000000000E+00 0. -1.
      99926    2    1    2    0    0 -0.71054273576E-14  0.00000000000E+00 -0.85449344948E+02  0.46308558198E+03  0.45513367892E+03 0.  0.
      99925    2    3    3    0    0 -0.61203500730E+02 -0.42047331037E+02  0.33289814676E+02  0.27530820668E+03  0.26300674964E+03 0.  0.
         25    1    4    4    0    0 -0.47044577747E+02 -0.22438954579E+02  0.54657622749E+02  0.14612208184E+03  0.12509000000E+03 0.  0.
         25    1    3    3    0    0  0.61203500730E+02  0.42047331037E+02 -0.11873915962E+03  0.18777737531E+03  0.12509000000E+03 0.  0.
         25    1    4    4    0    0 -0.14158922983E+02 -0.19608376458E+02 -0.21367808073E+02  0.12918612483E+03  0.12509000000E+03 0.  0.
<mgrwt>
<rscale>  2 0.45513368E+03</rscale>
<asrwt>0</asrwt>
<pdfrwt beam="1">  1       21 0.27767371E-01 0.45513368E+03</pdfrwt>
<pdfrwt beam="2">  1       21 0.40333450E-01 0.45513368E+03</pdfrwt>
<totfact> 0.67880345E+04</totfact>
</mgrwt>
</event>
<event>
 7    0  0.4737014E-002  0.4589041E+03  0.7546771E-02  0.1025100E+00
         21   -1    0    0  502  501  0.00000000000E+00  0.00000000000E+00  0.15300972111E+03  0.15300972111E+03  0.00000000000E+00 0.  1.
         21   -1    0    0  501  502 -0.00000000000E+00 -0.00000000000E+00 -0.34408424130E+03  0.34408424130E+03  0.00000000000E+00 0.  1.
      99926    2    1    2    0    0  0.00000000000E+00 -0.35527136788E-14 -0.19107452018E+03  0.49709396241E+03  0.45890405882E+03 0.  0.
      99925    2    3    3    0    0  0.26397914198E+02 -0.31167707985E+02 -0.23957469832E+03  0.35685113274E+03  0.26130139488E+03 0.  0.
         25    1    4    4    0    0  0.39686001865E+01 -0.28725906395E+02 -0.74310182018E+02  0.14835915454E+03  0.12509000000E+03 0.  0.
         25    1    4    4    0    0  0.22429314011E+02 -0.24418015903E+01 -0.16526451630E+03  0.20849197819E+03  0.12509000000E+03 0.  0.
         25    1    3    3    0    0 -0.26397914198E+02  0.31167707985E+02  0.48500178139E+02  0.14024282967E+03  0.12509000000E+03 0.  0.
<mgrwt>
<rscale>  2 0.45890406E+03</rscale>
<asrwt>0</asrwt>
<pdfrwt beam="1">  1       21 0.22501429E-01 0.45890406E+03</pdfrwt>
<pdfrwt beam="2">  1       21 0.50600624E-01 0.45890406E+03</pdfrwt>
<totfact> 0.63484816E+04</totfact>
</mgrwt>
</event>
<event>
 7    0  0.4737014E-002  0.4567890E+03  0.7546771E-02  0.1025717E+00
         21   -1    0    0  502  501  0.00000000000E+00  0.00000000000E+00  0.49742581894E+03  0.49742581894E+03  0.00000000000E+00 0.  1.
         21   -1    0    0  501  502 -0.00000000000E+00 -0.00000000000E+00 -0.10486798140E+03  0.10486798140E+03  0.00000000000E+00 0.  1.
      99926    2    1    2    0    0  0.35527136788E-14  0.00000000000E+00  0.39255783754E+03  0.60229380034E+03  0.45678897328E+03 0.  0.
      99925    2    3    3    0    0 -0.21761083030E+02 -0.59313299975E+02  0.12008884423E+03  0.29589785926E+03  0.26294980571E+03 0.  0.
         25    1    4    4    0    0 -0.19891522996E+02  0.10454099434E+02  0.52479503219E+02  0.13750115360E+03  0.12509000000E+03 0.  0.
         25    1    3    3    0    0  0.21761083030E+02  0.59313299975E+02  0.27246899332E+03  0.30639594107E+03  0.12509000000E+03 0.  0.
         25    1    4    4    0    0 -0.18695600341E+01 -0.69767399409E+02  0.67609341008E+02  0.15839670567E+03  0.12509000000E+03 0.  0.
<mgrwt>
<rscale>  2 0.45678897E+03</rscale>
<asrwt>0</asrwt>
<pdfrwt beam="1">  1       21 0.73150855E-01 0.45678897E+03</pdfrwt>
<pdfrwt beam="2">  1       21 0.15421762E-01 0.45678897E+03</pdfrwt>
<totfact> 0.57717171E+04</totfact>
</mgrwt>
</event>
<event>
 7    0  0.4737014E-002  0.4528372E+03  0.7546771E-02  0.1026879E+00
         21   -1    0    0  502  501  0.00000000000E+00  0.00000000000E+00  0.12141526951E+04  0.12141526951E+04  0.00000000000E+00 0. -1.
         21   -1    0    0  501  502 -0.00000000000E+00 -0.00000000000E+00 -0.42223174590E+02  0.42223174590E+02  0.00000000000E+00 0. -1.
      99926    2    1    2    0    0  0.71054273576E-14  0.00000000000E+00  0.11719295205E+04  0.12563758697E+04  0.45283719470E+03 0.  0.
      99925    2    3    3    0    0  0.60588350153E+02  0.75431390065E+02  0.58764866665E+03  0.65107225409E+03  0.26306516653E+03 0.  0.
         25    1    3    3    0    0 -0.60588350153E+02 -0.75431390065E+02  0.58428085389E+03  0.60530361564E+03  0.12509000000E+03 0.  0.
         25    1    4    4    0    0 -0.35557430459E+00  0.47598071287E+02  0.34390355563E+03  0.36902962821E+03  0.12509000000E+03 0.  0.
         25    1    4    4    0    0  0.60943924458E+02  0.27833318777E+02  0.24374511102E+03  0.28204262587E+03  0.12509000000E+03 0.  0.
<mgrwt>
<rscale>  2 0.45283719E+03</rscale>
<asrwt>0</asrwt>
<pdfrwt beam="1">  1       21 0.17855184E+00 0.45283719E+03</pdfrwt>
<pdfrwt beam="2">  1       21 0.62092912E-02 0.45283719E+03</pdfrwt>
<totfact> 0.30925769E+04</totfact>
</mgrwt>
</event>
<event>
 7    0  0.4737014E-002  0.4549168E+03  0.7546771E-02  0.1026266E+00
         21   -1    0    0  502  501  0.00000000000E+00  0.00000000000E+00  0.52365523867E+03  0.52365523867E+03  0.00000000000E+00 0. -1.
         21   -1    0    0  501  502 -0.00000000000E+00 -0.00000000000E+00 -0.98800346898E+02  0.98800346898E+02  0.00000000000E+00 0. -1.
      99926    2    1    2    0    0  0.00000000000E+00  0.00000000000E+00  0.42485489177E+03  0.62245558557E+03  0.45491678024E+03 0.  0.
      99925    2    3    3    0    0 -0.27143443440E+01  0.11297438990E+03  0.27320117283E+03  0.39570255029E+03  0.26300389167E+03 0.  0.
         25    1    3    3    0    0  0.27143443440E+01 -0.11297438990E+03  0.15165371894E+03  0.22675303528E+03  0.12509000000E+03 0.  0.
         25    1    4    4    0    0 -0.10809755291E+02  0.99369118780E+02  0.15636407228E+03  0.22380416390E+03  0.12509000000E+03 0.  0.
         25    1    4    4    0    0  0.80954109474E+01  0.13605271122E+02  0.11683710055E+03  0.17189838640E+03  0.12509000000E+03 0.  0.
<mgrwt>
<rscale>  2 0.45491678E+03</rscale>
<asrwt>0</asrwt>
<pdfrwt beam="1">  1       21 0.77008122E-01 0.45491678E+03</pdfrwt>
<pdfrwt beam="2">  1       21 0.14529463E-01 0.45491678E+03</pdfrwt>
<totfact> 0.57354606E+04</totfact>
</mgrwt>
</event>
<event>
 7    0  0.4737014E-002  0.4541857E+03  0.7546771E-02  0.1026481E+00
         21   -1    0    0  502  501  0.00000000000E+00  0.00000000000E+00  0.22956962773E+02  0.22956962773E+02  0.00000000000E+00 0.  1.
         21   -1    0    0  501  502 -0.00000000000E+00 -0.00000000000E+00 -0.22464282640E+04  0.22464282640E+04  0.00000000000E+00 0.  1.
      99926    2    1    2    0    0  0.71054273576E-14  0.00000000000E+00 -0.22234713013E+04  0.22693852268E+04  0.45418573307E+03 0.  0.
      99925    2    3    3    0    0  0.59044386270E+02 -0.84911062836E+02 -0.16204077039E+04  0.16448619377E+04  0.26297060467E+03 0.  0.
         25    1    4    4    0    0  0.81010549909E+01 -0.33195967275E+02 -0.96588957828E+03  0.97455517282E+03  0.12509000000E+03 0.  0.
         25    1    3    3    0    0 -0.59044386270E+02  0.84911062836E+02 -0.60306359736E+03  0.62452328916E+03  0.12509000000E+03 0.  0.
         25    1    4    4    0    0  0.50943331279E+02 -0.51715095561E+02 -0.65451812563E+03  0.67030676484E+03  0.12509000000E+03 0.  0.
<mgrwt>
<rscale>  2 0.45418573E+03</rscale>
<asrwt>0</asrwt>
<pdfrwt beam="1">  1       21 0.33760252E-02 0.45418573E+03</pdfrwt>
<pdfrwt beam="2">  1       21 0.33035697E+00 0.45418573E+03</pdfrwt>
<totfact> 0.98511915E+03</totfact>
</mgrwt>
</event>
<event>
 7    0  0.4737014E-002  0.4563212E+03  0.7546771E-02  0.1025854E+00
         21   -1    0    0  502  501  0.00000000000E+00  0.00000000000E+00  0.15007580389E+03  0.15007580389E+03  0.00000000000E+00 0. -1.
         21   -1    0    0  501  502 -0.00000000000E+00 -0.00000000000E+00 -0.34687305789E+03  0.34687305789E+03  0.00000000000E+00 0. -1.
      99926    2    1    2    0    0  0.00000000000E+00  0.00000000000E+00 -0.19679725399E+03  0.49694886178E+03  0.45632117204E+03 0.  0.
      99925    2    3    3    0    0 -0.14784802977E+02 -0.17478499165E+02 -0.17739133957E+01  0.26412768618E+03  0.26312772470E+03 0.  0.
         25    1    4    4    0    0  0.15238496817E+02 -0.42274468807E+02 -0.59610481839E+01  0.13305030888E+03  0.12509000000E+03 0.  0.
         25    1    3    3    0    0  0.14784802977E+02  0.17478499165E+02 -0.19502334060E+03  0.23282117560E+03  0.12509000000E+03 0.  0.
         25    1    4    4    0    0 -0.30023299794E+02  0.24795969642E+02  0.41871347881E+01  0.13107737730E+03  0.12509000000E+03 0.  0.
<mgrwt>
<rscale>  2 0.45632117E+03</rscale>
<asrwt>0</asrwt>
<pdfrwt beam="1">  1       21 0.22069971E-01 0.45632117E+03</pdfrwt>
<pdfrwt beam="2">  1       21 0.51010743E-01 0.45632117E+03</pdfrwt>
<totfact> 0.64803214E+04</totfact>
</mgrwt>
</event>
<event>
 7    0  0.4737014E-002  0.4580760E+03  0.7546771E-02  0.1025341E+00
         21   -1    0    0  502  501  0.00000000000E+00  0.00000000000E+00  0.20660006529E+03  0.20660006529E+03  0.00000000000E+00 0.  1.
         21   -1    0    0  501  502 -0.00000000000E+00 -0.00000000000E+00 -0.25391285492E+03  0.25391285492E+03  0.00000000000E+00 0.  1.
      99926    2    1    2    0    0  0.71054273576E-14  0.14210854715E-13 -0.47312789632E+02  0.46051292021E+03  0.45807603039E+03 0.  0.
      99925    2    3    3    0    0 -0.44409050810E+02 -0.97376717034E+02 -0.75228191018E+02  0.29353637531E+03  0.26277354146E+03 0.  0.
         25    1    3    3    0    0  0.44409050810E+02  0.97376717034E+02  0.27915401386E+02  0.16697654491E+03  0.12509000000E+03 0.  0.
         25    1    4    4    0    0  0.28470839114E+01 -0.63767430630E+02 -0.93962205292E+01  0.14074867018E+03  0.12509000000E+03 0.  0.
         25    1    4    4    0    0 -0.47256134722E+02 -0.33609286404E+02 -0.65831970489E+02  0.15278770513E+03  0.12509000000E+03 0.  0.
<mgrwt>
<rscale>  2 0.45807603E+03</rscale>
<asrwt>0</asrwt>
<pdfrwt beam="1">  1       21 0.30382363E-01 0.45807603E+03</pdfrwt>
<pdfrwt beam="2">  1       21 0.37340125E-01 0.45807603E+03</pdfrwt>
<totfact> 0.66496746E+04</totfact>
</mgrwt>
</event>
<event>
 7    0  0.4737014E-002  0.4554630E+03  0.7546771E-02  0.1026105E+00
         21   -1    0    0  502  501  0.00000000000E+00  0.00000000000E+00  0.29112023938E+02  0.29112023938E+02  0.00000000000E+00 0. -1.
         21   -1    0    0  501  502 -0.00000000000E+00 -0.00000000000E+00 -0.17814505148E+04  0.17814505148E+04  0.00000000000E+00 0. -1.
      99926    2    1    2    0    0  0.71054273576E-14 -0.14210854715E-13 -0.17523384909E+04  0.18105625388E+04  0.45546297339E+03 0.  0.
      99925    2    3    3    0    0 -0.54787560272E+02  0.93713421641E+02 -0.96872737482E+03  0.10096394641E+04  0.26297383643E+03 0.  0.
         25    1    4    4    0    0 -0.34878161775E+02  0.22344876503E+02 -0.34796894607E+03  0.37208288755E+03  0.12509000000E+03 0.  0.
         25    1    3    3    0    0  0.54787560272E+02 -0.93713421641E+02 -0.78361111607E+03  0.80092307464E+03  0.12509000000E+03 0.  0.
         25    1    4    4    0    0 -0.19909398497E+02  0.71368545138E+02 -0.62075842874E+03  0.63755657658E+03  0.12509000000E+03 0.  0.
<mgrwt>
<rscale>  2 0.45546297E+03</rscale>
<asrwt>0</asrwt>
<pdfrwt beam="1">  1       21 0.42811800E-02 0.45546297E+03</pdfrwt>
<pdfrwt beam="2">  1       21 0.26197801E+00 0.45546297E+03</pdfrwt>
<totfact> 0.16996218E+04</totfact>
</mgrwt>
</event>
<event>
 7    0  0.4737014E-002  0.4570982E+03  0.7546771E-02  0.1025626E+00
         21   -1    0    0  502  501  0.00000000000E+00  0.00000000000E+00  0.13014596065E+03  0.13014596065E+03  0.00000000000E+00 0. -1.
         21   -1    0    0  501  502 -0.00000000000E+00 -0.00000000000E+00 -0.40135462865E+03  0.40135462865E+03  0.00000000000E+00 0. -1.
      99926    2    1    2    0    0 -0.14210854715E-13  0.14210854715E-13 -0.27120866800E+03  0.53150058930E+03  0.45709816760E+03 0.  0.
      99925    2    3    3    0    0  0.72700386320E+02 -0.88007879117E+02 -0.15325045445E+03  0.32512137231E+03  0.26303511550E+03 0.  0.
         25    1    4    4    0    0  0.51496459900E+02 -0.56183665675E+01 -0.68874272767E+02  0.15190334089E+03  0.12509000000E+03 0.  0.
         25    1    4    4    0    0  0.21203926420E+02 -0.82389512550E+02 -0.84376181679E+02  0.17321803142E+03  0.12509000000E+03 0.  0.
         25    1    3    3    0    0 -0.72700386320E+02  0.88007879117E+02 -0.11795821356E+03  0.20637921698E+03  0.12509000000E+03 0.  0.
<mgrwt>
<rscale>  2 0.45709817E+03</rscale>
<asrwt>0</asrwt>
<pdfrwt beam="1">  1       21 0.19139112E-01 0.45709817E+03</pdfrwt>
<pdfrwt beam="2">  1       21 0.59022739E-01 0.45709817E+03</pdfrwt>
<totfact> 0.62066458E+04</totfact>
</mgrwt>
</event>
<event>
 7    0  0.4737014E-002  0.4505425E+03  0.7546771E-02  0.1027560E+00
         21   -1    0    0  502  501  0.00000000000E+00  0.00000000000E+00  0.32652939686E+02  0.32652939686E+02  0.00000000000E+00 0.  1.
         21   -1    0    0  501  502 -0.00000000000E+00 -0.00000000000E+00 -0.15541366476E+04  0.15541366476E+04  0.00000000000E+00 0.  1.
      99926    2    1    2    0    0 -0.17763568394E-14 -0.14210854715E-13 -0.15214837079E+04  0.15867895873E+04  0.45054247399E+03 0.  0.
      99925    2    3    3    0    0 -0.53070927336E+01 -0.82277374343E+02 -0.71023880700E+03  0.76182684333E+03  0.26295103096E+03 0.  0.
         25    1    4    4    0    0  0.82812769684E+01 -0.81890733500E+02 -0.38321996637E+03  0.41143617063E+03  0.12509000000E+03 0.  0.
         25    1    3    3    0    0  0.53070927336E+01  0.82277374343E+02 -0.81124490088E+03  0.82496274393E+03  0.12509000000E+03 0.  0.
         25    1    4    4    0    0 -0.13588369702E+02 -0.38664084300E+00 -0.32701884063E+03  0.35039067270E+03  0.12509000000E+03 0.  0.
<mgrwt>
<rscale>  2 0.45054247E+03</rscale>
<asrwt>0</asrwt>
<pdfrwt beam="1">  1       21 0.48019006E-02 0.45054247E+03</pdfrwt>
<pdfrwt beam="2">  1       21 0.22854962E+00 0.45054247E+03</pdfrwt>
<totfact> 0.22498640E+04</totfact>
</mgrwt>
</event>
<event>
 6    0  0.4737014E-002  0.4577171E+03  0.7546771E-02  0.1025445E+00
         21   -1    0    0  502  501  0.00000000000E+00  0.00000000000E+00  0.11942700029E+03  0.11942700029E+03  0.00000000000E+00 0. -1.
         21   -1    0    0  501  502 -0.00000000000E+00 -0.00000000000E+00 -0.43856269547E+03  0.43856269547E+03  0.00000000000E+00 0. -1.
      99926    2    1    2    0    0  0.71054273576E-14 -0.14210854715E-13 -0.31913569518E+03  0.55798969577E+03  0.45771706178E+03 0.  0.
         25    1    3    3    0    0 -0.43999397237E+02  0.79205053748E+02 -0.47859732727E+02  0.16170173040E+03  0.12509000000E+03 0.  0.
         25    1    3    3    0    0  0.36165640759E+02 -0.89663465660E+02 -0.11402563978E+03  0.19492779502E+03  0.12509000000E+03 0.  0.
         25    1    3    3    0    0  0.78337564782E+01  0.10458411912E+02 -0.15725032268E+03  0.20136017035E+03  0.12509000000E+03 0.  0.
<mgrwt>
<rscale>  2 0.45771706E+03</rscale>
<asrwt>0</asrwt>
<pdfrwt beam="1">  1       21 0.17562794E-01 0.45771706E+03</pdfrwt>
<pdfrwt beam="2">  1       21 0.64494514E-01 0.45771706E+03</pdfrwt>
<totfact> 0.60040722E+04</totfact>
</mgrwt>
</event>
<event>
 7    0  0.4737014E-002  0.4540616E+03  0.7546771E-02  0.1026518E+00
         21   -1    0    0  502  501  0.00000000000E+00  0.00000000000E+00  0.30346090772E+03  0.30346090772E+03  0.00000000000E+00 0. -1.
         21   -1    0    0  501  502 -0.00000000000E+00 -0.00000000000E+00 -0.16985045928E+03  0.16985045928E+03  0.00000000000E+00 0. -1.
      99926    2    1    2    0    0  0.00000000000E+00  0.00000000000E+00  0.13361044843E+03  0.47331136700E+03  0.45406155772E+03 0.  0.
      99925    2    3    3    0    0  0.19822812600E+02 -0.83974505335E+02  0.15904331642E+03  0.31923670874E+03  0.26300691676E+03 0.  0.
         25    1    4    4    0    0 -0.16306809317E+02 -0.70324579336E+02  0.67055689956E+02  0.15923389132E+03  0.12509000000E+03 0.  0.
         25    1    3    3    0    0 -0.19822812600E+02  0.83974505335E+02 -0.25432867985E+02  0.15407465827E+03  0.12509000000E+03 0.  0.
         25    1    4    4    0    0  0.36129621917E+02 -0.13649925999E+02  0.91987626463E+02  0.16000281742E+03  0.12509000000E+03 0.  0.
<mgrwt>
<rscale>  2 0.45406156E+03</rscale>
<asrwt>0</asrwt>
<pdfrwt beam="1">  1       21 0.44626604E-01 0.45406156E+03</pdfrwt>
<pdfrwt beam="2">  1       21 0.24978009E-01 0.45406156E+03</pdfrwt>
<totfact> 0.67693020E+04</totfact>
</mgrwt>
</event>
<event>
 7    0  0.4737014E-002  0.4413820E+03  0.7546771E-02  0.1030324E+00
         21   -1    0    0  502  501  0.00000000000E+00  0.00000000000E+00  0.64312069758E+02  0.64312069758E+02  0.00000000000E+00 0.  1.
         21   -1    0    0  501  502 -0.00000000000E+00 -0.00000000000E+00 -0.75731519214E+03  0.75731519214E+03  0.00000000000E+00 0.  1.
      99926    2    1    2    0    0  0.00000000000E+00  0.00000000000E+00 -0.69300312238E+03  0.82162726190E+03  0.44138195462E+03 0.  0.
      99925    2    3    3    0    0 -0.68044208629E+02 -0.10972891011E+02 -0.30772639689E+03  0.41073058149E+03  0.26316089482E+03 0.  0.
         25    1    3    3    0    0  0.68044208629E+02  0.10972891011E+02 -0.38527672549E+03  0.41089668040E+03  0.12509000000E+03 0.  0.
         25    1    4    4    0    0 -0.55545362280E+02 -0.20287439360E+02 -0.11242346033E+03  0.17827902288E+03  0.12509000000E+03 0.  0.
         25    1    4    4    0    0 -0.12498846349E+02  0.93145483489E+01 -0.19530293656E+03  0.23245155861E+03  0.12509000000E+03 0.  0.
<mgrwt>
<rscale>  2 0.44138195E+03</rscale>
<asrwt>0</asrwt>
<pdfrwt beam="1">  1       21 0.94576580E-02 0.44138195E+03</pdfrwt>
<pdfrwt beam="2">  1       21 0.11136987E+00 0.44138195E+03</pdfrwt>
<totfact> 0.52082681E+04</totfact>
</mgrwt>
</event>
<event>
 7    0  0.4737014E-002  0.4636014E+03  0.7546771E-02  0.1023742E+00
         21   -1    0    0  502  501  0.00000000000E+00  0.00000000000E+00  0.84261524874E+03  0.84261524874E+03  0.00000000000E+00 0. -1.
         21   -1    0    0  501  502 -0.00000000000E+00 -0.00000000000E+00 -0.63767616345E+02  0.63767616345E+02  0.00000000000E+00 0. -1.
      99926    2    1    2    0    0  0.00000000000E+00  0.00000000000E+00  0.77884763239E+03  0.90638286508E+03  0.46360140599E+03 0.  0.
      99925    2    3    3    0    0  0.45686606858E+02 -0.80624271822E+02  0.33471771200E+03  0.43575941312E+03  0.26317822885E+03 0.  0.
         25    1    3    3    0    0 -0.45686606858E+02  0.80624271822E+02  0.44412992039E+03  0.47062345197E+03  0.12509000000E+03 0.  0.
         25    1    4    4    0    0 -0.82216696738E+01 -0.63204561614E+02  0.14815608704E+03  0.20410817398E+03  0.12509000000E+03 0.  0.
         25    1    4    4    0    0  0.53908276532E+02 -0.17419710209E+02  0.18656162497E+03  0.23165123913E+03  0.12509000000E+03 0.  0.
<mgrwt>
<rscale>  2 0.46360141E+03</rscale>
<asrwt>0</asrwt>
<pdfrwt beam="1">  1       21 0.12391400E+00 0.46360141E+03</pdfrwt>
<pdfrwt beam="2">  1       21 0.93775911E-02 0.46360141E+03</pdfrwt>
<totfact> 0.40183822E+04</totfact>
</mgrwt>
</event>
<event>
 7    0  0.4737014E-002  0.4536074E+03  0.7546771E-02  0.1026652E+00
         21   -1    0    0  502  501  0.00000000000E+00  0.00000000000E+00  0.23944500443E+03  0.23944500443E+03  0.00000000000E+00 0.  1.
         21   -1    0    0  501  502 -0.00000000000E+00 -0.00000000000E+00 -0.21482974332E+03  0.21482974332E+03  0.00000000000E+00 0.  1.
      99926    2    1    2    0    0  0.00000000000E+00  0.00000000000E+00  0.24615261110E+02  0.45427474774E+03  0.45360735814E+03 0.  0.
      99925    2    3    3    0    0  0.41823300481E+02 -0.63656208750E+02 -0.66650803920E+02  0.28171083465E+03  0.26290181308E+03 0.  0.
         25    1    3    3    0    0 -0.41823300481E+02  0.63656208750E+02  0.91266065030E+02  0.17256391309E+03  0.12509000000E+03 0.  0.
         25    1    4    4    0    0  0.15208558516E+02  0.23107459314E+01 -0.79031129465E+01  0.12627987604E+03  0.12509000000E+03 0.  0.
         25    1    4    4    0    0  0.26614741965E+02 -0.65966954681E+02 -0.58747690973E+02  0.15543095861E+03  0.12509000000E+03 0.  0.
<mgrwt>
<rscale>  2 0.45360736E+03</rscale>
<asrwt>0</asrwt>
<pdfrwt beam="1">  1       21 0.35212501E-01 0.45360736E+03</pdfrwt>
<pdfrwt beam="2">  1       21 0.31592609E-01 0.45360736E+03</pdfrwt>
<totfact> 0.69366567E+04</totfact>
</mgrwt>
</event>
<event>
 7    0  0.4737014E-002  0.4598920E+03  0.7546771E-02  0.1024813E+00
         21   -1    0    0  502  501  0.00000000000E+00  0.00000000000E+00  0.60992270084E+02  0.60992270084E+02  0.00000000000E+00 0. -1.
         21   -1    0    0  501  502 -0.00000000000E+00 -0.00000000000E+00 -0.86691598777E+03  0.86691598777E+03  0.00000000000E+00 0. -1.
      99926    2    1    2    0    0  0.00000000000E+00  0.00000000000E+00 -0.80592371769E+03  0.92790825786E+03  0.45989204849E+03 0.  0.
      99925    2    3    3    0    0  0.26659452793E+02 -0.40980939484E+02 -0.72095486780E+03  0.76898256020E+03  0.26299827503E+03 0.  0.
         25    1    3    3    0    0 -0.26659452793E+02  0.40980939484E+02 -0.84968849892E+02  0.15892569766E+03  0.12509000000E+03 0.  0.
         25    1    4    4    0    0  0.37483691642E+02  0.51079256624E+01 -0.41446947607E+03  0.43458436780E+03  0.12509000000E+03 0.  0.
         25    1    4    4    0    0 -0.10824238849E+02 -0.46088865146E+02 -0.30648539173E+03  0.33439819240E+03  0.12509000000E+03 0.  0.
<mgrwt>
<rscale>  2 0.45989205E+03</rscale>
<asrwt>0</asrwt>
<pdfrwt beam="1">  1       21 0.89694514E-02 0.45989205E+03</pdfrwt>
<pdfrwt beam="2">  1       21 0.12748765E+00 0.45989205E+03</pdfrwt>
<totfact> 0.40477075E+04</totfact>
</mgrwt>
</event>
<event>
 7    0  0.4737014E-002  0.4538997E+03  0.7546771E-02  0.1026565E+00
         21   -1    0    0  502  501  0.00000000000E+00  0.00000000000E+00  0.29416810298E+03  0.29416810298E+03  0.00000000000E+00 0.  1.
         21   -1    0    0  501  502 -0.00000000000E+00 -0.00000000000E+00 -0.17509115313E+03  0.17509115313E+03  0.00000000000E+00 0.  1.
      99926    2    1    2    0    0  0.00000000000E+00  0.00000000000E+00  0.11907694986E+03  0.46925925611E+03  0.45389969096E+03 0.  0.
      99925    2    3    3    0    0  0.44912909790E+02  0.10278917107E+03  0.73083014673E+02  0.29505898823E+03  0.26293705777E+03 0.  0.
         25    1    4    4    0    0  0.59322609963E+02  0.61472573535E+02  0.55733555015E+02  0.16140565853E+03  0.12509000000E+03 0.  0.
         25    1    3    3    0    0 -0.44912909790E+02 -0.10278917107E+03  0.45993935182E+02  0.17420026788E+03  0.12509000000E+03 0.  0.
         25    1    4    4    0    0 -0.14409700173E+02  0.41316597533E+02  0.17349459658E+02  0.13365332970E+03  0.12509000000E+03 0.  0.
<mgrwt>
<rscale>  2 0.45389969E+03</rscale>
<asrwt>0</asrwt>
<pdfrwt beam="1">  1       21 0.43260015E-01 0.45389969E+03</pdfrwt>
<pdfrwt beam="2">  1       21 0.25748699E-01 0.45389969E+03</pdfrwt>
<totfact> 0.68083191E+04</totfact>
</mgrwt>
</event>
<event>
 7    0  0.4737014E-002  0.4535385E+03  0.7546771E-02  0.1026672E+00
         21   -1    0    0  502  501  0.00000000000E+00  0.00000000000E+00  0.31638634095E+03  0.31638634095E+03  0.00000000000E+00 0. -1.
         21   -1    0    0  501  502 -0.00000000000E+00 -0.00000000000E+00 -0.16253641513E+03  0.16253641513E+03  0.00000000000E+00 0. -1.
      99926    2    1    2    0    0  0.00000000000E+00  0.00000000000E+00  0.15384992582E+03  0.47892275608E+03  0.45353853929E+03 0.  0.
      99925    2    3    3    0    0 -0.65875591791E+02  0.79902433160E+02  0.52724318632E+02  0.28761700879E+03  0.26309636552E+03 0.  0.
         25    1    3    3    0    0  0.65875591791E+02 -0.79902433160E+02  0.10112560718E+03  0.19130574729E+03  0.12509000000E+03 0.  0.
         25    1    4    4    0    0 -0.60893220963E+02  0.65478719916E+02  0.82568654309E+01  0.15398419090E+03  0.12509000000E+03 0.  0.
         25    1    4    4    0    0 -0.49823708279E+01  0.14423713244E+02  0.44467453201E+02  0.13363281789E+03  0.12509000000E+03 0.  0.
<mgrwt>
<rscale>  2 0.45353854E+03</rscale>
<asrwt>0</asrwt>
<pdfrwt beam="1">  1       21 0.46527403E-01 0.45353854E+03</pdfrwt>
<pdfrwt beam="2">  1       21 0.23902414E-01 0.45353854E+03</pdfrwt>
<totfact> 0.67558896E+04</totfact>
</mgrwt>
</event>
<event>
 7    0  0.4737014E-002  0.4543079E+03  0.7546771E-02  0.1026445E+00
         21   -1    0    0  502  501  0.00000000000E+00  0.00000000000E+00  0.65287701225E+02  0.65287701225E+02  0.00000000000E+00 0. -1.
         21   -1    0    0  501  502 -0.00000000000E+00 -0.00000000000E+00 -0.79033134966E+03  0.79033134966E+03  0.00000000000E+00 0. -1.
      99926    2    1    2    0    0 -0.35527136788E-14  0.00000000000E+00 -0.72504364843E+03  0.85561905088E+03  0.45430790011E+03 0.  0.
      99925    2    3    3    0    0  0.18396149985E+02  0.98183688776E+02 -0.35728503122E+03  0.45453007857E+03  0.26261482006E+03 0.  0.
         25    1    3    3    0    0 -0.18396149985E+02 -0.98183688776E+02 -0.36775861722E+03  0.40108897232E+03  0.12509000000E+03 0.  0.
         25    1    4    4    0    0  0.21113160560E+02  0.88828796962E+02 -0.18209714204E+03  0.23904643473E+03  0.12509000000E+03 0.  0.
         25    1    4    4    0    0 -0.27170105750E+01  0.93548918137E+01 -0.17518788917E+03  0.21548364383E+03  0.12509000000E+03 0.  0.
<mgrwt>
<rscale>  2 0.45430790E+03</rscale>
<asrwt>0</asrwt>
<pdfrwt beam="1">  1       21 0.96011330E-02 0.45430790E+03</pdfrwt>
<pdfrwt beam="2">  1       21 0.11622519E+00 0.45430790E+03</pdfrwt>
<totfact> 0.45435205E+04</totfact>
</mgrwt>
</event>
<event>
 7    0  0.4737014E-002  0.4585202E+03  0.7546771E-02  0.1025211E+00
         21   -1    0    0  502  501  0.00000000000E+00  0.00000000000E+00  0.69726414780E+02  0.69726414780E+02  0.00000000000E+00 0. -1.
         21   -1    0    0  501  502 -0.00000000000E+00 -0.00000000000E+00 -0.75380618986E+03  0.75380618986E+03  0.00000000000E+00 0. -1.
      99926    2    1    2    0    0  0.00000000000E+00  0.00000000000E+00 -0.68407977508E+03  0.82353260464E+03  0.45852024190E+03 0.  0.
      99925    2    3    3    0    0  0.64129039532E+02 -0.68684518213E+02 -0.55176949865E+03  0.61863357072E+03  0.26349159080E+03 0.  0.
         25    1    4    4    0    0  0.46238995866E+02 -0.35045733262E+02 -0.36884389349E+03  0.39377604552E+03  0.12509000000E+03 0.  0.
         25    1    4    4    0    0  0.17890043666E+02 -0.33638784950E+02 -0.18292560516E+03  0.22485752520E+03  0.12509000000E+03 0.  0.
         25    1    3    3    0    0 -0.64129039532E+02  0.68684518213E+02 -0.13231027643E+03  0.20489903392E+03  0.12509000000E+03 0.  0.
<mgrwt>
<rscale>  2 0.45852024E+03</rscale>
<asrwt>0</asrwt>
<pdfrwt beam="1">  1       21 0.10253884E-01 0.45852024E+03</pdfrwt>
<pdfrwt beam="2">  1       21 0.11085385E+00 0.45852024E+03</pdfrwt>
<totfact> 0.45381007E+04</totfact>
</mgrwt>
</event>
<event>
 7    0  0.4737014E-002  0.4521920E+03  0.7546771E-02  0.1027070E+00
         21   -1    0    0  502  501  0.00000000000E+00  0.00000000000E+00  0.95803618766E+03  0.95803618766E+03  0.00000000000E+00 0. -1.
         21   -1    0    0  501  502 -0.00000000000E+00 -0.00000000000E+00 -0.53358536568E+02  0.53358536568E+02  0.00000000000E+00 0. -1.
      99926    2    1    2    0    0  0.00000000000E+00 -0.35527136788E-14  0.90467765109E+03  0.10113947242E+04  0.45219203422E+03 0.  0.
      99925    2    3    3    0    0  0.75124151269E+02  0.25681255860E+02  0.39793655270E+03  0.48343903109E+03  0.26278628543E+03 0.  0.
         25    1    3    3    0    0 -0.75124151269E+02 -0.25681255860E+02  0.50674109839E+03  0.52795569313E+03  0.12509000000E+03 0.  0.
         25    1    4    4    0    0  0.62570168952E-01 -0.60004948019E+01  0.18117729946E+03  0.22024697907E+03  0.12509000000E+03 0.  0.
         25    1    4    4    0    0  0.75061581100E+02  0.31681750662E+02  0.21675925324E+03  0.26319205202E+03  0.12509000000E+03 0.  0.
<mgrwt>
<rscale>  2 0.45219203E+03</rscale>
<asrwt>0</asrwt>
<pdfrwt beam="1">  1       21 0.14088766E+00 0.45219203E+03</pdfrwt>
<pdfrwt beam="2">  1       21 0.78468442E-02 0.45219203E+03</pdfrwt>
<totfact> 0.39587390E+04</totfact>
</mgrwt>
</event>
<event>
 7    0  0.4737014E-002  0.4520076E+03  0.7546771E-02  0.1027125E+00
         21   -1    0    0  502  501  0.00000000000E+00  0.00000000000E+00  0.65135927417E+02  0.65135927417E+02  0.00000000000E+00 0. -1.
         21   -1    0    0  501  502 -0.00000000000E+00 -0.00000000000E+00 -0.78417114544E+03  0.78417114544E+03  0.00000000000E+00 0. -1.
      99926    2    1    2    0    0  0.00000000000E+00  0.00000000000E+00 -0.71903521802E+03  0.84930707286E+03  0.45200758760E+03 0.  0.
      99925    2    3    3    0    0  0.67985919666E+02 -0.77023974315E+02 -0.52923295407E+03  0.59985329880E+03  0.26302411013E+03 0.  0.
         25    1    4    4    0    0  0.63261517016E+02 -0.15284974910E+02 -0.29969004558E+03  0.33120579933E+03  0.12509000000E+03 0.  0.
         25    1    4    4    0    0  0.47244026503E+01 -0.61738999405E+02 -0.22954290850E+03  0.26864749947E+03  0.12509000000E+03 0.  0.
         25    1    3    3    0    0 -0.67985919666E+02  0.77023974315E+02 -0.18980226395E+03  0.24945377406E+03  0.12509000000E+03 0.  0.
<mgrwt>
<rscale>  2 0.45200759E+03</rscale>
<asrwt>0</asrwt>
<pdfrwt beam="1">  1       21 0.95788127E-02 0.45200759E+03</pdfrwt>
<pdfrwt beam="2">  1       21 0.11531929E+00 0.45200759E+03</pdfrwt>
<totfact> 0.46553610E+04</totfact>
</mgrwt>
</event>
<event>
 7    0  0.4737014E-002  0.4551130E+03  0.7546771E-02  0.1026208E+00
         21   -1    0    0  502  501  0.00000000000E+00  0.00000000000E+00  0.16549189038E+03  0.16549189038E+03  0.00000000000E+00 0. -1.
         21   -1    0    0  501  502 -0.00000000000E+00 -0.00000000000E+00 -0.31289729609E+03  0.31289729609E+03  0.00000000000E+00 0. -1.
      99926    2    1    2    0    0  0.00000000000E+00  0.00000000000E+00 -0.14740540570E+03  0.47838918647E+03  0.45511301904E+03 0.  0.
      99925    2    3    3    0    0 -0.88293296549E+02 -0.61824664839E+02 -0.56375078882E+02  0.28983674311E+03  0.26307640095E+03 0.  0.
         25    1    3    3    0    0  0.88293296549E+02  0.61824664839E+02 -0.91030326821E+02  0.18855244337E+03  0.12509000000E+03 0.  0.
         25    1    4    4    0    0 -0.42737043587E+02 -0.16379031667E+02  0.11406883444E+02  0.13368751872E+03  0.12509000000E+03 0.  0.
         25    1    4    4    0    0 -0.45556252962E+02 -0.45445633172E+02 -0.67781962326E+02  0.15614922438E+03  0.12509000000E+03 0.  0.
<mgrwt>
<rscale>  2 0.45511302E+03</rscale>
<asrwt>0</asrwt>
<pdfrwt beam="1">  1       21 0.24337043E-01 0.45511302E+03</pdfrwt>
<pdfrwt beam="2">  1       21 0.46014307E-01 0.45511302E+03</pdfrwt>
<totfact> 0.66757634E+04</totfact>
</mgrwt>
</event>
<event>
 7    0  0.4737014E-002  0.4560299E+03  0.7546771E-02  0.1025939E+00
         21   -1    0    0  502  501  0.00000000000E+00  0.00000000000E+00  0.14370598691E+03  0.14370598691E+03  0.00000000000E+00 0.  1.
         21   -1    0    0  501  502 -0.00000000000E+00 -0.00000000000E+00 -0.36178608158E+03  0.36178608158E+03  0.00000000000E+00 0.  1.
      99926    2    1    2    0    0 -0.35527136788E-14  0.00000000000E+00 -0.21808009467E+03  0.50549206848E+03  0.45602993719E+03 0.  0.
      99925    2    3    3    0    0 -0.10441720554E+02  0.11338745632E+03 -0.14734037714E+03  0.32214169212E+03  0.26286943201E+03 0.  0.
         25    1    3    3    0    0  0.10441720554E+02 -0.11338745632E+03 -0.70739717526E+02  0.18335037637E+03  0.12509000000E+03 0.  0.
         25    1    4    4    0    0 -0.45526745925E+02  0.55277119254E+02 -0.75658838801E+02  0.16278824434E+03  0.12509000000E+03 0.  0.
         25    1    4    4    0    0  0.35085025371E+02  0.58110337062E+02 -0.71681538341E+02  0.15935344777E+03  0.12509000000E+03 0.  0.
<mgrwt>
<rscale>  2 0.45602994E+03</rscale>
<asrwt>0</asrwt>
<pdfrwt beam="1">  1       21 0.21133234E-01 0.45602994E+03</pdfrwt>
<pdfrwt beam="2">  1       21 0.53203834E-01 0.45602994E+03</pdfrwt>
<totfact> 0.64358785E+04</totfact>
</mgrwt>
</event>
<event>
 7    0  0.4737014E-002  0.4607337E+03  0.7546771E-02  0.1024569E+00
         21   -1    0    0  502  501  0.00000000000E+00  0.00000000000E+00  0.59399784595E+02  0.59399784595E+02  0.00000000000E+00 0. -1.
         21   -1    0    0  501  502 -0.00000000000E+00 -0.00000000000E+00 -0.89341892971E+03  0.89341892971E+03  0.00000000000E+00 0. -1.
      99926    2    1    2    0    0  0.00000000000E+00  0.00000000000E+00 -0.83401914512E+03  0.95281871431E+03  0.46073372778E+03 0.  0.
      99925    2    3    3    0    0 -0.78524733504E+02  0.42552191177E+02 -0.36157051904E+03  0.45599677927E+03  0.26310264104E+03 0.  0.
         25    1    4    4    0    0 -0.65475898317E+02  0.53711927226E+02 -0.18294784701E+03  0.23725405626E+03  0.12509000000E+03 0.  0.
         25    1    4    4    0    0 -0.13048835187E+02 -0.11159736048E+02 -0.17862267203E+03  0.21874272301E+03  0.12509000000E+03 0.  0.
         25    1    3    3    0    0  0.78524733504E+02 -0.42552191177E+02 -0.47244862608E+03  0.49682193503E+03  0.12509000000E+03 0.  0.
<mgrwt>
<rscale>  2 0.46073373E+03</rscale>
<asrwt>0</asrwt>
<pdfrwt beam="1">  1       21 0.87352631E-02 0.46073373E+03</pdfrwt>
<pdfrwt beam="2">  1       21 0.13138513E+00 0.46073373E+03</pdfrwt>
<totfact> 0.39237867E+04</totfact>
</mgrwt>
</event>
<event>
 7    0  0.4737014E-002  0.4581915E+03  0.7546771E-02  0.1025307E+00
         21   -1    0    0  502  501  0.00000000000E+00  0.00000000000E+00  0.47588542854E+03  0.47588542854E+03  0.00000000000E+00 0. -1.
         21   -1    0    0  501  502 -0.00000000000E+00 -0.00000000000E+00 -0.11028887602E+03  0.11028887602E+03  0.00000000000E+00 0. -1.
      99926    2    1    2    0    0  0.71054273576E-14 -0.17763568394E-14  0.36559655252E+03  0.58617430455E+03  0.45819152775E+03 0.  0.
      99925    2    3    3    0    0  0.55863960186E+02 -0.13144452538E+02  0.35890034584E+03  0.44838495096E+03  0.26257579348E+03 0.  0.
         25    1    4    4    0    0  0.41227380477E+02  0.28330780042E+02  0.15755703938E+03  0.20730185420E+03  0.12509000000E+03 0.  0.
         25    1    4    4    0    0  0.14636579708E+02 -0.41475232581E+02  0.20134330646E+03  0.24108309675E+03  0.12509000000E+03 0.  0.
         25    1    3    3    0    0 -0.55863960186E+02  0.13144452538E+02  0.66962066816E+01  0.13778935359E+03  0.12509000000E+03 0.  0.
<mgrwt>
<rscale>  2 0.45819153E+03</rscale>
<asrwt>0</asrwt>
<pdfrwt beam="1">  1       21 0.69983150E-01 0.45819153E+03</pdfrwt>
<pdfrwt beam="2">  1       21 0.16218953E-01 0.45819153E+03</pdfrwt>
<totfact> 0.58058857E+04</totfact>
</mgrwt>
</event>
<event>
 7    0  0.4737014E-002  0.4587861E+03  0.7546771E-02  0.1025134E+00
         21   -1    0    0  502  501  0.00000000000E+00  0.00000000000E+00  0.16236944265E+02  0.16236944265E+02  0.00000000000E+00 0. -1.
         21   -1    0    0  501  502 -0.00000000000E+00 -0.00000000000E+00 -0.32408301306E+04  0.32408301306E+04  0.00000000000E+00 0. -1.
      99926    2    1    2    0    0  0.71054273576E-14  0.00000000000E+00 -0.32245931863E+04  0.32570670748E+04  0.45878612970E+03 0.  0.
      99925    2    3    3    0    0  0.61564669337E+02 -0.67692748092E+02 -0.25363335983E+04  0.25515734284E+04  0.26299490815E+03 0.  0.
         25    1    4    4    0    0  0.70969017481E+02 -0.31756026538E+02 -0.14337333423E+04  0.14412785475E+04  0.12509000000E+03 0.  0.
         25    1    4    4    0    0 -0.94043481436E+01 -0.35936721554E+02 -0.11026002560E+04  0.11102948808E+04  0.12509000000E+03 0.  0.
         25    1    3    3    0    0 -0.61564669337E+02  0.67692748092E+02 -0.68825958797E+03  0.70549364645E+03  0.12509000000E+03 0.  0.
<mgrwt>
<rscale>  2 0.45878613E+03</rscale>
<asrwt>0</asrwt>
<pdfrwt beam="1">  1       21 0.23877894E-02 0.45878613E+03</pdfrwt>
<pdfrwt beam="2">  1       21 0.47659197E+00 0.45878613E+03</pdfrwt>
<totfact> 0.19931969E+03</totfact>
</mgrwt>
</event>
<event>
 7    0  0.4737014E-002  0.4484671E+03  0.7546771E-02  0.1028180E+00
         21   -1    0    0  502  501  0.00000000000E+00  0.00000000000E+00  0.17346194712E+04  0.17346194712E+04  0.00000000000E+00 0. -1.
         21   -1    0    0  501  502 -0.00000000000E+00 -0.00000000000E+00 -0.28986581593E+02  0.28986581593E+02  0.00000000000E+00 0. -1.
      99926    2    1    2    0    0  0.71054273576E-14  0.00000000000E+00  0.17056328896E+04  0.17636060528E+04  0.44846711735E+03 0.  0.
      99925    2    3    3    0    0 -0.56528627337E+02  0.88412260748E+02  0.99911608690E+03  0.10384676424E+04  0.26300166489E+03 0.  0.
         25    1    4    4    0    0 -0.15403720326E+02  0.39441241305E+01  0.41179828401E+03  0.43067176077E+03  0.12509000000E+03 0.  0.
         25    1    4    4    0    0 -0.41124907010E+02  0.84468136618E+02  0.58731780289E+03  0.60779588167E+03  0.12509000000E+03 0.  0.
         25    1    3    3    0    0  0.56528627337E+02 -0.88412260748E+02  0.70651680275E+03  0.72513841039E+03  0.12509000000E+03 0.  0.
<mgrwt>
<rscale>  2 0.44846712E+03</rscale>
<asrwt>0</asrwt>
<pdfrwt beam="1">  1       21 0.25509103E+00 0.44846712E+03</pdfrwt>
<pdfrwt beam="2">  1       21 0.42627338E-02 0.44846712E+03</pdfrwt>
<totfact> 0.18910438E+04</totfact>
</mgrwt>
</event>
<event>
 7    0  0.4737014E-002  0.4561938E+03  0.7546771E-02  0.1025891E+00
         21   -1    0    0  502  501  0.00000000000E+00  0.00000000000E+00  0.31913740102E+03  0.31913740102E+03  0.00000000000E+00 0.  1.
         21   -1    0    0  501  502 -0.00000000000E+00 -0.00000000000E+00 -0.16302754946E+03  0.16302754946E+03  0.00000000000E+00 0.  1.
      99926    2    1    2    0    0  0.00000000000E+00  0.00000000000E+00  0.15610985156E+03  0.48216495047E+03  0.45619376773E+03 0.  0.
      99925    2    3    3    0    0 -0.97310017664E+02  0.62157544107E+02  0.10253128285E+03  0.30369654724E+03  0.26150741675E+03 0.  0.
         25    1    3    3    0    0  0.97310017664E+02 -0.62157544107E+02  0.53578568705E+02  0.17846840323E+03  0.12509000000E+03 0.  0.
         25    1    4    4    0    0 -0.88394517006E+02  0.42168257342E+02  0.55994820629E+02  0.16844785722E+03  0.12509000000E+03 0.  0.
         25    1    4    4    0    0 -0.89155006580E+01  0.19989286764E+02  0.46536462223E+02  0.13524869003E+03  0.12509000000E+03 0.  0.
<mgrwt>
<rscale>  2 0.45619377E+03</rscale>
<asrwt>0</asrwt>
<pdfrwt beam="1">  1       21 0.46931971E-01 0.45619377E+03</pdfrwt>
<pdfrwt beam="2">  1       21 0.23974640E-01 0.45619377E+03</pdfrwt>
<totfact> 0.65916013E+04</totfact>
</mgrwt>
</event>
<event>
 7    0  0.4737014E-002  0.4479274E+03  0.7546771E-02  0.1028342E+00
         21   -1    0    0  502  501  0.00000000000E+00  0.00000000000E+00  0.28903514973E+03  0.28903514973E+03  0.00000000000E+00 0.  1.
         21   -1    0    0  501  502 -0.00000000000E+00 -0.00000000000E+00 -0.17354197758E+03  0.17354197758E+03  0.00000000000E+00 0.  1.
      99926    2    1    2    0    0  0.71054273576E-14  0.14210854715E-13  0.11549317215E+03  0.46257712731E+03  0.44792736677E+03 0.  0.
      99925    2    3    3    0    0 -0.48361162582E+02  0.93847561650E+02  0.87200276672E+02  0.29646221857E+03  0.26294446545E+03 0.  0.
         25    1    3    3    0    0  0.48361162582E+02 -0.93847561650E+02  0.28292895477E+02  0.16611490875E+03  0.12509000000E+03 0.  0.
         25    1    4    4    0    0 -0.28793825728E+02  0.22572047523E+02  0.70376682252E+01  0.13052056774E+03  0.12509000000E+03 0.  0.
         25    1    4    4    0    0 -0.19567336854E+02  0.71275514127E+02  0.80162608446E+02  0.16594165083E+03  0.12509000000E+03 0.  0.
<mgrwt>
<rscale>  2 0.44792737E+03</rscale>
<asrwt>0</asrwt>
<pdfrwt beam="1">  1       21 0.42505169E-01 0.44792737E+03</pdfrwt>
<pdfrwt beam="2">  1       21 0.25520879E-01 0.44792737E+03</pdfrwt>
<totfact> 0.71944241E+04</totfact>
</mgrwt>
</event>
<event>
 7    0  0.4737014E-002  0.4473354E+03  0.7546771E-02  0.1028520E+00
         21   -1    0    0  502  501  0.00000000000E+00  0.00000000000E+00  0.67475569292E+03  0.67475569292E+03  0.00000000000E+00 0.  1.
         21   -1    0    0  501  502 -0.00000000000E+00 -0.00000000000E+00 -0.74141262330E+02  0.74141262330E+02  0.00000000000E+00 0.  1.
      99926    2    1    2    0    0  0.00000000000E+00  0.00000000000E+00  0.60061443059E+03  0.74889695525E+03  0.44733539470E+03 0.  0.
      99925    2    3    3    0    0  0.31510321132E+02  0.99623446860E+02  0.35216429210E+03  0.45175606120E+03  0.26295649583E+03 0.  0.
         25    1    3    3    0    0 -0.31510321132E+02 -0.99623446860E+02  0.24845013849E+03  0.29714089405E+03  0.12509000000E+03 0.  0.
         25    1    4    4    0    0 -0.13660598906E+02  0.72468708949E+02  0.15509887891E+03  0.21246528206E+03  0.12509000000E+03 0.  0.
         25    1    4    4    0    0  0.45170920038E+02  0.27154737911E+02  0.19706541319E+03  0.23929077915E+03  0.12509000000E+03 0.  0.
<mgrwt>
<rscale>  2 0.44733539E+03</rscale>
<asrwt>0</asrwt>
<pdfrwt beam="1">  1       21 0.99228775E-01 0.44733539E+03</pdfrwt>
<pdfrwt beam="2">  1       21 0.10903127E-01 0.44733539E+03</pdfrwt>
<totfact> 0.53476676E+04</totfact>
</mgrwt>
</event>
<event>
 7    0  0.4737014E-002  0.4444889E+03  0.7546771E-02  0.1029378E+00
         21   -1    0    0  502  501  0.00000000000E+00  0.00000000000E+00  0.31289867454E+03  0.31289867454E+03  0.00000000000E+00 0. -1.
         21   -1    0    0  501  502 -0.00000000000E+00 -0.00000000000E+00 -0.15785493100E+03  0.15785493100E+03  0.00000000000E+00 0. -1.
      99926    2    1    2    0    0 -0.71054273576E-14  0.00000000000E+00  0.15504374354E+03  0.47075360554E+03  0.44448891405E+03 0.  0.
      99925    2    3    3    0    0 -0.39550899473E+02 -0.93699878043E+02  0.81740938240E+02  0.29365264518E+03  0.26307100609E+03 0.  0.
         25    1    4    4    0    0  0.52020875103E+01 -0.27041952413E+02  0.96352305890E+01  0.12844716686E+03  0.12509000000E+03 0.  0.
         25    1    4    4    0    0 -0.44752986984E+02 -0.66657925630E+02  0.72105707651E+02  0.16520547833E+03  0.12509000000E+03 0.  0.
         25    1    3    3    0    0  0.39550899473E+02  0.93699878043E+02  0.73302805298E+02  0.17710096036E+03  0.12509000000E+03 0.  0.
<mgrwt>
<rscale>  2 0.44448891E+03</rscale>
<asrwt>0</asrwt>
<pdfrwt beam="1">  1       21 0.46014511E-01 0.44448891E+03</pdfrwt>
<pdfrwt beam="2">  1       21 0.23213960E-01 0.44448891E+03</pdfrwt>
<totfact> 0.73306642E+04</totfact>
</mgrwt>
</event>
<event>
 7    0  0.4737014E-002  0.4492226E+03  0.7546771E-02  0.1027954E+00
         21   -1    0    0  502  501  0.00000000000E+00  0.00000000000E+00  0.28838911294E+03  0.28838911294E+03  0.00000000000E+00 0.  1.
         21   -1    0    0  501  502 -0.00000000000E+00 -0.00000000000E+00 -0.17493810628E+03  0.17493810628E+03  0.00000000000E+00 0.  1.
      99926    2    1    2    0    0  0.35527136788E-14  0.14210854715E-13  0.11345100666E+03  0.46332721922E+03  0.44922264097E+03 0.  0.
      99925    2    3    3    0    0  0.26068966535E+02  0.78844908520E+02  0.13452753530E+01  0.27594708765E+03  0.26315180942E+03 0.  0.
         25    1    4    4    0    0  0.50541372424E+02  0.42831900387E+02 -0.15637329380E+02  0.14241150300E+03  0.12509000000E+03 0.  0.
         25    1    3    3    0    0 -0.26068966535E+02 -0.78844908520E+02  0.11210573130E+03  0.18738013157E+03  0.12509000000E+03 0.  0.
         25    1    4    4    0    0 -0.24472405890E+02  0.36013008133E+02  0.16982604733E+02  0.13353558465E+03  0.12509000000E+03 0.  0.
<mgrwt>
<rscale>  2 0.44922264E+03</rscale>
<asrwt>0</asrwt>
<pdfrwt beam="1">  1       21 0.42410164E-01 0.44922264E+03</pdfrwt>
<pdfrwt beam="2">  1       21 0.25726192E-01 0.44922264E+03</pdfrwt>
<totfact> 0.71140078E+04</totfact>
</mgrwt>
</event>
<event>
 7    0  0.4737014E-002  0.4503827E+03  0.7546771E-02  0.1027608E+00
         21   -1    0    0  502  501  0.00000000000E+00  0.00000000000E+00  0.19053139201E+03  0.19053139201E+03  0.00000000000E+00 0. -1.
         21   -1    0    0  501  502 -0.00000000000E+00 -0.00000000000E+00 -0.26615641412E+03  0.26615641412E+03  0.00000000000E+00 0. -1.
      99926    2    1    2    0    0  0.00000000000E+00  0.00000000000E+00 -0.75625022118E+02  0.45668780613E+03  0.45038273535E+03 0.  0.
      99925    2    3    3    0    0  0.10460002944E+03 -0.22826464839E+02 -0.58750227284E+02  0.29117502579E+03  0.26432762395E+03 0.  0.
         25    1    3    3    0    0 -0.10460002944E+03  0.22826464839E+02 -0.16874794834E+02  0.16551278034E+03  0.12509000000E+03 0.  0.
         25    1    4    4    0    0  0.64212143118E+02  0.27401978316E+02 -0.43058056902E+02  0.14958466534E+03  0.12509000000E+03 0.  0.
         25    1    4    4    0    0  0.40387886318E+02 -0.50228443156E+02 -0.15692170382E+02  0.14159036046E+03  0.12509000000E+03 0.  0.
<mgrwt>
<rscale>  2 0.45038274E+03</rscale>
<asrwt>0</asrwt>
<pdfrwt beam="1">  1       21 0.28019322E-01 0.45038274E+03</pdfrwt>
<pdfrwt beam="2">  1       21 0.39140649E-01 0.45038274E+03</pdfrwt>
<totfact> 0.71001007E+04</totfact>
</mgrwt>
</event>
<event>
 7    0  0.4737014E-002  0.4368674E+03  0.7546771E-02  0.1031712E+00
         21   -1    0    0  502  501  0.00000000000E+00  0.00000000000E+00  0.11663544710E+03  0.11663544710E+03  0.00000000000E+00 0. -1.
         21   -1    0    0  501  502 -0.00000000000E+00 -0.00000000000E+00 -0.40908042590E+03  0.40908042590E+03  0.00000000000E+00 0. -1.
      99926    2    1    2    0    0  0.00000000000E+00  0.71054273576E-14 -0.29244497880E+03  0.52571587299E+03  0.43686738662E+03 0.  0.
      99925    2    3    3    0    0 -0.76698845182E+02 -0.56859206546E+02 -0.19672021973E+03  0.34152461419E+03  0.26234430626E+03 0.  0.
         25    1    4    4    0    0 -0.17505459585E+02 -0.24419345923E+02 -0.52248571297E+02  0.13885304056E+03  0.12509000000E+03 0.  0.
         25    1    4    4    0    0 -0.59193385597E+02 -0.32439860624E+02 -0.14447164844E+03  0.20267157363E+03  0.12509000000E+03 0.  0.
         25    1    3    3    0    0  0.76698845182E+02  0.56859206546E+02 -0.95724759066E+02  0.18419125880E+03  0.12509000000E+03 0.  0.
<mgrwt>
<rscale>  2 0.43686739E+03</rscale>
<asrwt>0</asrwt>
<pdfrwt beam="1">  1       21 0.17152272E-01 0.43686739E+03</pdfrwt>
<pdfrwt beam="2">  1       21 0.60158886E-01 0.43686739E+03</pdfrwt>
<totfact> 0.73495997E+04</totfact>
</mgrwt>
</event>
<event>
 7    0  0.4737014E-002  0.4570292E+03  0.7546771E-02  0.1025646E+00
         21   -1    0    0  502  501  0.00000000000E+00  0.00000000000E+00  0.13617506587E+04  0.13617506587E+04  0.00000000000E+00 0. -1.
         21   -1    0    0  501  502 -0.00000000000E+00 -0.00000000000E+00 -0.38346902976E+02  0.38346902976E+02  0.00000000000E+00 0. -1.
      99926    2    1    2    0    0  0.00000000000E+00  0.00000000000E+00  0.13234037557E+04  0.14000975616E+04  0.45702919112E+03 0.  0.
      99925    2    3    3    0    0 -0.92905582558E+02 -0.17115014842E+02  0.10324924474E+04  0.10696414097E+04  0.26299756703E+03 0.  0.
         25    1    4    4    0    0 -0.41440292079E+02  0.56332440159E+01  0.65133636749E+03  0.66455669657E+03  0.12509000000E+03 0.  0.
         25    1    4    4    0    0 -0.51465290479E+02 -0.22748258858E+02  0.38115607996E+03  0.40508471311E+03  0.12509000000E+03 0.  0.
         25    1    3    3    0    0  0.92905582558E+02  0.17115014842E+02  0.29091130823E+03  0.33045615195E+03  0.12509000000E+03 0.  0.
<mgrwt>
<rscale>  2 0.45702919E+03</rscale>
<asrwt>0</asrwt>
<pdfrwt beam="1">  1       21 0.20025742E+00 0.45702919E+03</pdfrwt>
<pdfrwt beam="2">  1       21 0.56392513E-02 0.45702919E+03</pdfrwt>
<totfact> 0.25918278E+04</totfact>
</mgrwt>
</event>
<event>
 7    0  0.4737014E-002  0.4430905E+03  0.7546771E-02  0.1029803E+00
         21   -1    0    0  502  501  0.00000000000E+00  0.00000000000E+00  0.64886049601E+03  0.64886049601E+03  0.00000000000E+00 0. -1.
         21   -1    0    0  501  502 -0.00000000000E+00 -0.00000000000E+00 -0.75643829382E+02  0.75643829382E+02  0.00000000000E+00 0. -1.
      99926    2    1    2    0    0  0.71054273576E-14  0.00000000000E+00  0.57321666663E+03  0.72450432539E+03  0.44309047678E+03 0.  0.
      99925    2    3    3    0    0 -0.51811121944E+02  0.87221660092E+02  0.35678988296E+03  0.45472650730E+03  0.26303073112E+03 0.  0.
         25    1    4    4    0    0 -0.44590846706E+02  0.79002526599E+02  0.17089397021E+03  0.23039531239E+03  0.12509000000E+03 0.  0.
         25    1    3    3    0    0  0.51811121944E+02 -0.87221660092E+02  0.21642678367E+03  0.26977781809E+03  0.12509000000E+03 0.  0.
         25    1    4    4    0    0 -0.72202752382E+01  0.82191334927E+01  0.18589591276E+03  0.22433119491E+03  0.12509000000E+03 0.  0.
<mgrwt>
<rscale>  2 0.44309048E+03</rscale>
<asrwt>0</asrwt>
<pdfrwt beam="1">  1       21 0.95420658E-01 0.44309048E+03</pdfrwt>
<pdfrwt beam="2">  1       21 0.11124093E-01 0.44309048E+03</pdfrwt>
<totfact> 0.56721622E+04</totfact>
</mgrwt>
</event>
<event>
 7    0  0.4737014E-002  0.4566595E+03  0.7546771E-02  0.1025755E+00
         21   -1    0    0  502  501  0.00000000000E+00  0.00000000000E+00  0.29816655426E+02  0.29816655426E+02  0.00000000000E+00 0.  1.
         21   -1    0    0  501  502 -0.00000000000E+00 -0.00000000000E+00 -0.17485017650E+04  0.17485017650E+04  0.00000000000E+00 0.  1.
      99926    2    1    2    0    0  0.14210854715E-13  0.00000000000E+00 -0.17186851096E+04  0.17783184204E+04  0.45665949958E+03 0.  0.
      99925    2    3    3    0    0  0.83971231676E+02 -0.77817854374E+02 -0.11070480431E+04  0.11436104597E+04  0.26302609685E+03 0.  0.
         25    1    3    3    0    0 -0.83971231676E+02  0.77817854374E+02 -0.61163706649E+03  0.63470796073E+03  0.12509000000E+03 0.  0.
         25    1    4    4    0    0  0.74028554668E+01 -0.55661035112E+02 -0.58875269358E+03  0.60450822608E+03  0.12509000000E+03 0.  0.
         25    1    4    4    0    0  0.76568376209E+02 -0.22156819262E+02 -0.51829534952E+03  0.53910223363E+03  0.12509000000E+03 0.  0.
<mgrwt>
<rscale>  2 0.45665950E+03</rscale>
<asrwt>0</asrwt>
<pdfrwt beam="1">  1       21 0.43848013E-02 0.45665950E+03</pdfrwt>
<pdfrwt beam="2">  1       21 0.25713267E+00 0.45665950E+03</pdfrwt>
<totfact> 0.17453832E+04</totfact>
</mgrwt>
</event>
<event>
 7    0  0.4737014E-002  0.4535366E+03  0.7546771E-02  0.1026673E+00
         21   -1    0    0  502  501  0.00000000000E+00  0.00000000000E+00  0.29693450057E+03  0.29693450057E+03  0.00000000000E+00 0.  1.
         21   -1    0    0  501  502 -0.00000000000E+00 -0.00000000000E+00 -0.17318254358E+03  0.17318254358E+03  0.00000000000E+00 0.  1.
      99926    2    1    2    0    0  0.00000000000E+00  0.00000000000E+00  0.12375195699E+03  0.47011704414E+03  0.45353664498E+03 0.  0.
      99925    2    3    3    0    0  0.34334934666E+02  0.88713492311E+02  0.13877536311E+03  0.31224943414E+03  0.26304398161E+03 0.  0.
         25    1    4    4    0    0  0.21203844284E+02  0.41623016667E+02  0.24177237043E+02  0.13569865666E+03  0.12509000000E+03 0.  0.
         25    1    3    3    0    0 -0.34334934666E+02 -0.88713492311E+02 -0.15023406121E+02  0.15786761000E+03  0.12509000000E+03 0.  0.
         25    1    4    4    0    0  0.13131090382E+02  0.47090475644E+02  0.11459812606E+03  0.17655077748E+03  0.12509000000E+03 0.  0.
<mgrwt>
<rscale>  2 0.45353664E+03</rscale>
<asrwt>0</asrwt>
<pdfrwt beam="1">  1       21 0.43666838E-01 0.45353664E+03</pdfrwt>
<pdfrwt beam="2">  1       21 0.25468021E-01 0.45353664E+03</pdfrwt>
<totfact> 0.68215520E+04</totfact>
</mgrwt>
</event>
<event>
 7    0  0.4737014E-002  0.4561926E+03  0.7546771E-02  0.1025891E+00
         21   -1    0    0  502  501  0.00000000000E+00  0.00000000000E+00  0.10187928144E+04  0.10187928144E+04  0.00000000000E+00 0. -1.
         21   -1    0    0  501  502 -0.00000000000E+00 -0.00000000000E+00 -0.51068209276E+02  0.51068209276E+02  0.00000000000E+00 0. -1.
      99926    2    1    2    0    0  0.00000000000E+00  0.00000000000E+00  0.96772460515E+03  0.10698610237E+04  0.45619261132E+03 0.  0.
      99925    2    3    3    0    0 -0.93092334879E+02 -0.65201459792E+02  0.63651060609E+03  0.69801746191E+03  0.26299279894E+03 0.  0.
         25    1    4    4    0    0 -0.12732577643E+02 -0.11563040766E+02  0.24054185688E+03  0.27166839245E+03  0.12509000000E+03 0.  0.
         25    1    3    3    0    0  0.93092334879E+02  0.65201459792E+02  0.33121399906E+03  0.37184356179E+03  0.12509000000E+03 0.  0.
         25    1    4    4    0    0 -0.80359757236E+02 -0.53638419026E+02  0.39596874920E+03  0.42634906945E+03  0.12509000000E+03 0.  0.
<mgrwt>
<rscale>  2 0.45619261E+03</rscale>
<asrwt>0</asrwt>
<pdfrwt beam="1">  1       21 0.14982246E+00 0.45619261E+03</pdfrwt>
<pdfrwt beam="2">  1       21 0.75100314E-02 0.45619261E+03</pdfrwt>
<totfact> 0.36218720E+04</totfact>
</mgrwt>
</event>
<event>
 7    0  0.4737014E-002  0.4546531E+03  0.7546771E-02  0.1026343E+00
         21   -1    0    0  502  501  0.00000000000E+00  0.00000000000E+00  0.15021949141E+03  0.15021949141E+03  0.00000000000E+00 0. -1.
         21   -1    0    0  501  502 -0.00000000000E+00 -0.00000000000E+00 -0.34401229606E+03  0.34401229606E+03  0.00000000000E+00 0. -1.
      99926    2    1    2    0    0  0.00000000000E+00 -0.14210854715E-13 -0.19379280465E+03  0.49423178747E+03  0.45465306401E+03 0.  0.
      99925    2    3    3    0    0  0.38136738438E+02 -0.90750316674E+02 -0.18193324710E+03  0.33461290388E+03  0.26301341838E+03 0.  0.
         25    1    4    4    0    0  0.24114808527E+02 -0.15728211286E+02 -0.51059012865E+02  0.13814279393E+03  0.12509000000E+03 0.  0.
         25    1    4    4    0    0  0.14021929911E+02 -0.75022105389E+02 -0.13087423424E+03  0.19647010995E+03  0.12509000000E+03 0.  0.
         25    1    3    3    0    0 -0.38136738438E+02  0.90750316674E+02 -0.11859557554E+02  0.15961888360E+03  0.12509000000E+03 0.  0.
<mgrwt>
<rscale>  2 0.45465306E+03</rscale>
<asrwt>0</asrwt>
<pdfrwt beam="1">  1       21 0.22091102E-01 0.45465306E+03</pdfrwt>
<pdfrwt beam="2">  1       21 0.50590044E-01 0.45465306E+03</pdfrwt>
<totfact> 0.65859020E+04</totfact>
</mgrwt>
</event>
<event>
 7    0  0.4737014E-002  0.4558075E+03  0.7546771E-02  0.1026004E+00
         21   -1    0    0  502  501  0.00000000000E+00  0.00000000000E+00  0.14619552317E+03  0.14619552317E+03  0.00000000000E+00 0.  1.
         21   -1    0    0  501  502 -0.00000000000E+00 -0.00000000000E+00 -0.35527838076E+03  0.35527838076E+03  0.00000000000E+00 0.  1.
      99926    2    1    2    0    0  0.00000000000E+00 -0.17763568394E-14 -0.20908285758E+03  0.50147390393E+03  0.45580745385E+03 0.  0.
      99925    2    3    3    0    0 -0.11276091349E+03 -0.13087490326E+02 -0.14378465717E+03  0.32037263643E+03  0.26282749575E+03 0.  0.
         25    1    3    3    0    0  0.11276091349E+03  0.13087490326E+02 -0.65298200414E+02  0.18110126750E+03  0.12509000000E+03 0.  0.
         25    1    4    4    0    0 -0.36514760997E+02 -0.41792860175E+02 -0.74199069897E+02  0.15566946074E+03  0.12509000000E+03 0.  0.
         25    1    4    4    0    0 -0.76246152489E+02  0.28705369849E+02 -0.69585587271E+02  0.16470317569E+03  0.12509000000E+03 0.  0.
<mgrwt>
<rscale>  2 0.45580745E+03</rscale>
<asrwt>0</asrwt>
<pdfrwt beam="1">  1       21 0.21499342E-01 0.45580745E+03</pdfrwt>
<pdfrwt beam="2">  1       21 0.52246820E-01 0.45580745E+03</pdfrwt>
<totfact> 0.64751220E+04</totfact>
</mgrwt>
</event>
<event>
 7    0  0.4737014E-002  0.4456237E+03  0.7546771E-02  0.1029035E+00
         21   -1    0    0  502  501  0.00000000000E+00  0.00000000000E+00  0.34539133805E+03  0.34539133805E+03  0.00000000000E+00 0. -1.
         21   -1    0    0  501  502 -0.00000000000E+00 -0.00000000000E+00 -0.14373586406E+03  0.14373586406E+03  0.00000000000E+00 0. -1.
      99926    2    1    2    0    0  0.00000000000E+00  0.71054273576E-14  0.20165547398E+03  0.48912720211E+03  0.44562370859E+03 0.  0.
      99925    2    3    3    0    0  0.95534473002E+02  0.40509304248E+02  0.13674972955E+03  0.31411833656E+03  0.26306273314E+03 0.  0.
         25    1    4    4    0    0  0.22972264905E+02  0.48953752049E+02  0.83258794902E+02  0.15969887233E+03  0.12509000000E+03 0.  0.
         25    1    3    3    0    0 -0.95534473002E+02 -0.40509304248E+02  0.64905744431E+02  0.17500886555E+03  0.12509000000E+03 0.  0.
         25    1    4    4    0    0  0.72562208097E+02 -0.84444478018E+01  0.53490934649E+02  0.15441946423E+03  0.12509000000E+03 0.  0.
<mgrwt>
<rscale>  2 0.44562371E+03</rscale>
<asrwt>0</asrwt>
<pdfrwt beam="1">  1       21 0.50792843E-01 0.44562371E+03</pdfrwt>
<pdfrwt beam="2">  1       21 0.21137627E-01 0.44562371E+03</pdfrwt>
<totfact> 0.71195050E+04</totfact>
</mgrwt>
</event>
<event>
 7    0  0.4737014E-002  0.4590184E+03  0.7546771E-02  0.1025066E+00
         21   -1    0    0  502  501  0.00000000000E+00  0.00000000000E+00  0.16843009808E+03  0.16843009808E+03  0.00000000000E+00 0. -1.
         21   -1    0    0  501  502 -0.00000000000E+00 -0.00000000000E+00 -0.31273782875E+03  0.31273782875E+03  0.00000000000E+00 0. -1.
      99926    2    1    2    0    0  0.00000000000E+00  0.00000000000E+00 -0.14430773067E+03  0.48116792684E+03  0.45901835768E+03 0.  0.
      99925    2    3    3    0    0 -0.76071967094E+02  0.42238834001E+02 -0.86877475222E+01  0.27717932126E+03  0.26302440173E+03 0.  0.
         25    1    4    4    0    0 -0.19792797177E+02  0.33358916570E+02 -0.38543516871E+02  0.13651989938E+03  0.12509000000E+03 0.  0.
         25    1    4    4    0    0 -0.56279169917E+02  0.88799174307E+01  0.29855769348E+02  0.14065942188E+03  0.12509000000E+03 0.  0.
         25    1    3    3    0    0  0.76071967094E+02 -0.42238834001E+02 -0.13561998315E+03  0.20398860557E+03  0.12509000000E+03 0.  0.
<mgrwt>
<rscale>  2 0.45901836E+03</rscale>
<asrwt>0</asrwt>
<pdfrwt beam="1">  1       21 0.24769132E-01 0.45901836E+03</pdfrwt>
<pdfrwt beam="2">  1       21 0.45990857E-01 0.45901836E+03</pdfrwt>
<totfact> 0.64532282E+04</totfact>
</mgrwt>
</event>
<event>
 7    0  0.4737014E-002  0.4456269E+03  0.7546771E-02  0.1029034E+00
         21   -1    0    0  502  501  0.00000000000E+00  0.00000000000E+00  0.12057170677E+03  0.12057170677E+03  0.00000000000E+00 0. -1.
         21   -1    0    0  501  502 -0.00000000000E+00 -0.00000000000E+00 -0.41175361243E+03  0.41175361243E+03  0.00000000000E+00 0. -1.
      99926    2    1    2    0    0  0.00000000000E+00  0.35527136788E-14 -0.29118190567E+03  0.53232531920E+03  0.44562691041E+03 0.  0.
      99925    2    3    3    0    0  0.55688346830E+02 -0.15712008902E+02 -0.28826980181E+03  0.39447015011E+03  0.26298129496E+03 0.  0.
         25    1    4    4    0    0  0.90579969541E+01 -0.41621826956E+02 -0.12397041550E+03  0.18119215161E+03  0.12509000000E+03 0.  0.
         25    1    3    3    0    0 -0.55688346830E+02  0.15712008902E+02 -0.29121038558E+01  0.13785516909E+03  0.12509000000E+03 0.  0.
         25    1    4    4    0    0  0.46630349876E+02  0.25909818054E+02 -0.16429938631E+03  0.21327799850E+03  0.12509000000E+03 0.  0.
<mgrwt>
<rscale>  2 0.44562691E+03</rscale>
<asrwt>0</asrwt>
<pdfrwt beam="1">  1       21 0.17731133E-01 0.44562691E+03</pdfrwt>
<pdfrwt beam="2">  1       21 0.60552002E-01 0.44562691E+03</pdfrwt>
<totfact> 0.67952702E+04</totfact>
</mgrwt>
</event>
<event>
 7    0  0.4737014E-002  0.4513245E+03  0.7546771E-02  0.1027328E+00
         21   -1    0    0  502  501  0.00000000000E+00  0.00000000000E+00  0.53311018366E+03  0.53311018366E+03  0.00000000000E+00 0.  1.
         21   -1    0    0  501  502 -0.00000000000E+00 -0.00000000000E+00 -0.95521427911E+02  0.95521427911E+02  0.00000000000E+00 0.  1.
      99926    2    1    2    0    0  0.71054273576E-14  0.00000000000E+00  0.43758875575E+03  0.62863161158E+03  0.45132447741E+03 0.  0.
      99925    2    3    3    0    0 -0.39238857617E+02  0.95865551034E+02  0.22606395724E+03  0.36194801570E+03  0.26300486970E+03 0.  0.
         25    1    3    3    0    0  0.39238857617E+02 -0.95865551034E+02  0.21152479851E+03  0.26668359587E+03  0.12509000000E+03 0.  0.
         25    1    4    4    0    0 -0.50609091479E+02  0.77379680943E+02  0.11844415214E+03  0.19551322318E+03  0.12509000000E+03 0.  0.
         25    1    4    4    0    0  0.11370233861E+02  0.18485870091E+02  0.10761980511E+03  0.16643479252E+03  0.12509000000E+03 0.  0.
<mgrwt>
<rscale>  2 0.45132448E+03</rscale>
<asrwt>0</asrwt>
<pdfrwt beam="1">  1       21 0.78398555E-01 0.45132448E+03</pdfrwt>
<pdfrwt beam="2">  1       21 0.14047269E-01 0.45132448E+03</pdfrwt>
<totfact> 0.58632444E+04</totfact>
</mgrwt>
</event>
<event>
 7    0  0.4737014E-002  0.4547147E+03  0.7546771E-02  0.1026325E+00
         21   -1    0    0  502  501  0.00000000000E+00  0.00000000000E+00  0.14708083926E+04  0.14708083926E+04  0.00000000000E+00 0.  1.
         21   -1    0    0  501  502 -0.00000000000E+00 -0.00000000000E+00 -0.35144863584E+02  0.35144863584E+02  0.00000000000E+00 0.  1.
      99926    2    1    2    0    0 -0.71054273576E-14  0.00000000000E+00  0.14356635290E+04  0.15059532562E+04  0.45471468116E+03 0.  0.
      99925    2    3    3    0    0 -0.49406214540E+02 -0.35962364562E+02  0.58991036415E+03  0.64881838367E+03  0.26312884972E+03 0.  0.
         25    1    4    4    0    0 -0.49227101873E+01 -0.43664828416E+02  0.35388284949E+03  0.37790399519E+03  0.12509000000E+03 0.  0.
         25    1    3    3    0    0  0.49406214540E+02  0.35962364562E+02  0.84575316484E+03  0.85713487249E+03  0.12509000000E+03 0.  0.
         25    1    4    4    0    0 -0.44483504352E+02  0.77024638535E+01  0.23602751466E+03  0.27091438848E+03  0.12509000000E+03 0.  0.
<mgrwt>
<rscale>  2 0.45471468E+03</rscale>
<asrwt>0</asrwt>
<pdfrwt beam="1">  1       21 0.21629531E+00 0.45471468E+03</pdfrwt>
<pdfrwt beam="2">  1       21 0.51683633E-02 0.45471468E+03</pdfrwt>
<totfact> 0.23686043E+04</totfact>
</mgrwt>
</event>
<event>
 7    0  0.4737014E-002  0.4520756E+03  0.7546771E-02  0.1027105E+00
         21   -1    0    0  502  501  0.00000000000E+00  0.00000000000E+00  0.68628367374E+03  0.68628367374E+03  0.00000000000E+00 0.  1.
         21   -1    0    0  501  502 -0.00000000000E+00 -0.00000000000E+00 -0.74448948713E+02  0.74448948713E+02  0.00000000000E+00 0.  1.
      99926    2    1    2    0    0  0.00000000000E+00  0.00000000000E+00  0.61183472503E+03  0.76073262246E+03  0.45207564867E+03 0.  0.
      99925    2    3    3    0    0 -0.10597831929E+03  0.13451277392E+02  0.43250821182E+03  0.51738544769E+03  0.26308174999E+03 0.  0.
         25    1    4    4    0    0 -0.84873108511E+02 -0.34736272418E+01  0.28064151223E+03  0.31878311926E+03  0.12509000000E+03 0.  0.
         25    1    3    3    0    0  0.10597831929E+03 -0.13451277392E+02  0.17932651322E+03  0.24334717476E+03  0.12509000000E+03 0.  0.
         25    1    4    4    0    0 -0.21105210777E+02  0.16924904634E+02  0.15186669958E+03  0.19860232844E+03  0.12509000000E+03 0.  0.
<mgrwt>
<rscale>  2 0.45207565E+03</rscale>
<asrwt>0</asrwt>
<pdfrwt beam="1">  1       21 0.10092407E+00 0.45207565E+03</pdfrwt>
<pdfrwt beam="2">  1       21 0.10948375E-01 0.45207565E+03</pdfrwt>
<totfact> 0.50880551E+04</totfact>
</mgrwt>
</event>
<event>
 7    0  0.4737014E-002  0.4342039E+03  0.7546771E-02  0.1032540E+00
         21   -1    0    0  502  501  0.00000000000E+00  0.00000000000E+00  0.29061991107E+03  0.29061991107E+03  0.00000000000E+00 0.  1.
         21   -1    0    0  501  502 -0.00000000000E+00 -0.00000000000E+00 -0.16218181162E+03  0.16218181162E+03  0.00000000000E+00 0.  1.
      99926    2    1    2    0    0 -0.35527136788E-14  0.14210854715E-13  0.12843809945E+03  0.45280172270E+03  0.43420393214E+03 0.  0.
      99925    2    3    3    0    0 -0.28071173943E+02  0.72383752049E+02  0.13443159182E+03  0.30545577461E+03  0.26306649158E+03 0.  0.
         25    1    4    4    0    0 -0.32798743334E+02  0.32796287076E+02  0.10773098830E+03  0.17147836000E+03  0.12509000000E+03 0.  0.
         25    1    3    3    0    0  0.28071173943E+02 -0.72383752049E+02 -0.59934923699E+01  0.14734594809E+03  0.12509000000E+03 0.  0.
         25    1    4    4    0    0  0.47275693913E+01  0.39587464973E+02  0.26700603526E+02  0.13397741460E+03  0.12509000000E+03 0.  0.
<mgrwt>
<rscale>  2 0.43420393E+03</rscale>
<asrwt>0</asrwt>
<pdfrwt beam="1">  1       21 0.42738222E-01 0.43420393E+03</pdfrwt>
<pdfrwt beam="2">  1       21 0.23850266E-01 0.43420393E+03</pdfrwt>
<totfact> 0.81351439E+04</totfact>
</mgrwt>
</event>
<event>
 7    0  0.4737014E-002  0.4711743E+03  0.7546771E-02  0.1021589E+00
         21   -1    0    0  502  501  0.00000000000E+00  0.00000000000E+00  0.13748043262E+03  0.13748043262E+03  0.00000000000E+00 0. -1.
         21   -1    0    0  501  502 -0.00000000000E+00 -0.00000000000E+00 -0.40370326481E+03  0.40370326481E+03  0.00000000000E+00 0. -1.
      99926    2    1    2    0    0  0.00000000000E+00  0.00000000000E+00 -0.26622283219E+03  0.54118369743E+03  0.47117427559E+03 0.  0.
      99925    2    3    3    0    0 -0.34988347120E+02  0.96293119393E+02 -0.25290370909E+03  0.37894481054E+03  0.26294929946E+03 0.  0.
         25    1    3    3    0    0  0.34988347120E+02 -0.96293119393E+02 -0.13319123097E+02  0.16223888688E+03  0.12509000000E+03 0.  0.
         25    1    4    4    0    0 -0.33711792728E+02  0.88416569228E+02 -0.14221415551E+03  0.21172233895E+03  0.12509000000E+03 0.  0.
         25    1    4    4    0    0 -0.12765543921E+01  0.78765501654E+01 -0.11068955358E+03  0.16722247159E+03  0.12509000000E+03 0.  0.
<mgrwt>
<rscale>  2 0.47117428E+03</rscale>
<asrwt>0</asrwt>
<pdfrwt beam="1">  1       21 0.20217711E-01 0.47117428E+03</pdfrwt>
<pdfrwt beam="2">  1       21 0.59368128E-01 0.47117428E+03</pdfrwt>
<totfact> 0.55052588E+04</totfact>
</mgrwt>
</event>
<event>
 7    0  0.4737014E-002  0.4493859E+03  0.7546771E-02  0.1027905E+00
         21   -1    0    0  502  501  0.00000000000E+00  0.00000000000E+00  0.22243514056E+03  0.22243514056E+03  0.00000000000E+00 0.  1.
         21   -1    0    0  501  502 -0.00000000000E+00 -0.00000000000E+00 -0.22697368059E+03  0.22697368059E+03  0.00000000000E+00 0.  1.
      99926    2    1    2    0    0  0.00000000000E+00  0.00000000000E+00 -0.45385400253E+01  0.44940882115E+03  0.44938590341E+03 0.  0.
      99925    2    3    3    0    0  0.42751423694E+02 -0.85848092510E+02 -0.52005347082E+02  0.28479355731E+03  0.26306887871E+03 0.  0.
         25    1    3    3    0    0 -0.42751423694E+02  0.85848092510E+02  0.47466807057E+02  0.16461526384E+03  0.12509000000E+03 0.  0.
         25    1    4    4    0    0 -0.88715518022E+01 -0.59637805978E+02 -0.42867887095E+01  0.13892896383E+03  0.12509000000E+03 0.  0.
         25    1    4    4    0    0  0.51622975496E+02 -0.26210286532E+02 -0.47718558373E+02  0.14586459348E+03  0.12509000000E+03 0.  0.
<mgrwt>
<rscale>  2 0.44938590E+03</rscale>
<asrwt>0</asrwt>
<pdfrwt beam="1">  1       21 0.32711050E-01 0.44938590E+03</pdfrwt>
<pdfrwt beam="2">  1       21 0.33378482E-01 0.44938590E+03</pdfrwt>
<totfact> 0.72134858E+04</totfact>
</mgrwt>
</event>
<event>
 7    0  0.4737014E-002  0.4541325E+03  0.7546771E-02  0.1026497E+00
         21   -1    0    0  502  501  0.00000000000E+00  0.00000000000E+00  0.12447580513E+03  0.12447580513E+03  0.00000000000E+00 0. -1.
         21   -1    0    0  501  502 -0.00000000000E+00 -0.00000000000E+00 -0.41420960435E+03  0.41420960435E+03  0.00000000000E+00 0. -1.
      99926    2    1    2    0    0  0.00000000000E+00  0.00000000000E+00 -0.28973379922E+03  0.53868540947E+03  0.45413246522E+03 0.  0.
      99925    2    3    3    0    0  0.78747120826E+02 -0.74358804681E+02 -0.14715381745E+03  0.32026631650E+03  0.26303217793E+03 0.  0.
         25    1    4    4    0    0  0.84703992252E+00 -0.20344750157E+02 -0.77497703063E+02  0.14855311648E+03  0.12509000000E+03 0.  0.
         25    1    3    3    0    0 -0.78747120826E+02  0.74358804681E+02 -0.14257998177E+03  0.21841909297E+03  0.12509000000E+03 0.  0.
         25    1    4    4    0    0  0.77900080903E+02 -0.54014054524E+02 -0.69656114383E+02  0.17171320002E+03  0.12509000000E+03 0.  0.
<mgrwt>
<rscale>  2 0.45413247E+03</rscale>
<asrwt>0</asrwt>
<pdfrwt beam="1">  1       21 0.18305266E-01 0.45413247E+03</pdfrwt>
<pdfrwt beam="2">  1       21 0.60913177E-01 0.45413247E+03</pdfrwt>
<totfact> 0.63052230E+04</totfact>
</mgrwt>
</event>
<event>
 7    0  0.4737014E-002  0.4523501E+03  0.7546771E-02  0.1027024E+00
         21   -1    0    0  502  501  0.00000000000E+00  0.00000000000E+00  0.57469506193E+02  0.57469506193E+02  0.00000000000E+00 0.  1.
         21   -1    0    0  501  502 -0.00000000000E+00 -0.00000000000E+00 -0.89012675306E+03  0.89012675306E+03  0.00000000000E+00 0.  1.
      99926    2    1    2    0    0 -0.71054273576E-14  0.00000000000E+00 -0.83265724687E+03  0.94759625926E+03  0.45235006332E+03 0.  0.
      99925    2    3    3    0    0  0.32625668522E+02 -0.36406090761E+02 -0.73362443576E+03  0.78072851682E+03  0.26256878438E+03 0.  0.
         25    1    4    4    0    0  0.48466815760E+00  0.16655488990E+02 -0.38623958083E+03  0.40633257575E+03  0.12509000000E+03 0.  0.
         25    1    4    4    0    0  0.32141000365E+02 -0.53061579751E+02 -0.34738485493E+03  0.37439594107E+03  0.12509000000E+03 0.  0.
         25    1    3    3    0    0 -0.32625668522E+02  0.36406090761E+02 -0.99032811110E+02  0.16686774244E+03  0.12509000000E+03 0.  0.
<mgrwt>
<rscale>  2 0.45235006E+03</rscale>
<asrwt>0</asrwt>
<pdfrwt beam="1">  1       21 0.84513986E-02 0.45235006E+03</pdfrwt>
<pdfrwt beam="2">  1       21 0.13090098E+00 0.45235006E+03</pdfrwt>
<totfact> 0.42104040E+04</totfact>
</mgrwt>
</event>
<event>
 7    0  0.4737014E-002  0.4602724E+03  0.7546771E-02  0.1024702E+00
         21   -1    0    0  502  501  0.00000000000E+00  0.00000000000E+00  0.83333693895E+02  0.83333693895E+02  0.00000000000E+00 0.  1.
         21   -1    0    0  501  502 -0.00000000000E+00 -0.00000000000E+00 -0.63554930994E+03  0.63554930994E+03  0.00000000000E+00 0.  1.
      99926    2    1    2    0    0  0.71054273576E-14 -0.17763568394E-14 -0.55221561605E+03  0.71888300384E+03  0.46027240478E+03 0.  0.
      99925    2    3    3    0    0 -0.48615785123E+02  0.95500867395E+01 -0.51321708358E+03  0.57880055542E+03  0.26298975143E+03 0.  0.
         25    1    3    3    0    0  0.48615785123E+02 -0.95500867395E+01 -0.38998532465E+02  0.14008244842E+03  0.12509000000E+03 0.  0.
         25    1    4    4    0    0 -0.20666170306E+02  0.27418885144E+02 -0.32918697261E+03  0.35382263479E+03  0.12509000000E+03 0.  0.
         25    1    4    4    0    0 -0.27949614816E+02 -0.17868798405E+02 -0.18403011098E+03  0.22497792063E+03  0.12509000000E+03 0.  0.
<mgrwt>
<rscale>  2 0.46027240E+03</rscale>
<asrwt>0</asrwt>
<pdfrwt beam="1">  1       21 0.12254955E-01 0.46027240E+03</pdfrwt>
<pdfrwt beam="2">  1       21 0.93463136E-01 0.46027240E+03</pdfrwt>
<totfact> 0.49792374E+04</totfact>
</mgrwt>
</event>
<event>
 7    0  0.4737014E-002  0.4559206E+03  0.7546771E-02  0.1025971E+00
         21   -1    0    0  502  501  0.00000000000E+00  0.00000000000E+00  0.27453353334E+03  0.27453353334E+03  0.00000000000E+00 0.  1.
         21   -1    0    0  501  502 -0.00000000000E+00 -0.00000000000E+00 -0.18928799542E+03  0.18928799542E+03  0.00000000000E+00 0.  1.
      99926    2    1    2    0    0  0.14210854715E-13  0.00000000000E+00  0.85245537919E+02  0.46382152875E+03  0.45592061677E+03 0.  0.
      99925    2    3    3    0    0  0.66292997892E+02  0.44907315074E+02  0.13614959949E+03  0.30681783421E+03  0.26303809882E+03 0.  0.
         25    1    4    4    0    0  0.56278845880E+02  0.20191977632E+02  0.33032418047E+02  0.14252604392E+03  0.12509000000E+03 0.  0.
         25    1    4    4    0    0  0.10014152012E+02  0.24715337442E+02  0.10311718145E+03  0.16429179028E+03  0.12509000000E+03 0.  0.
         25    1    3    3    0    0 -0.66292997892E+02 -0.44907315074E+02 -0.50904061573E+02  0.15700369455E+03  0.12509000000E+03 0.  0.
<mgrwt>
<rscale>  2 0.45592062E+03</rscale>
<asrwt>0</asrwt>
<pdfrwt beam="1">  1       21 0.40372579E-01 0.45592062E+03</pdfrwt>
<pdfrwt beam="2">  1       21 0.27836470E-01 0.45592062E+03</pdfrwt>
<totfact> 0.67403101E+04</totfact>
</mgrwt>
</event>
<event>
 7    0  0.4737014E-002  0.4559222E+03  0.7546771E-02  0.1025971E+00
         21   -1    0    0  502  501  0.00000000000E+00  0.00000000000E+00  0.71458186623E+03  0.71458186623E+03  0.00000000000E+00 0.  1.
         21   -1    0    0  501  502 -0.00000000000E+00 -0.00000000000E+00 -0.72722622402E+02  0.72722622402E+02  0.00000000000E+00 0.  1.
      99926    2    1    2    0    0  0.00000000000E+00 -0.14210854715E-13  0.64185924383E+03  0.78730448863E+03  0.45592221807E+03 0.  0.
      99925    2    3    3    0    0 -0.32194019923E+02 -0.86805392993E+02  0.51848107112E+03  0.58870611811E+03  0.26302213068E+03 0.  0.
         25    1    3    3    0    0  0.32194019923E+02  0.86805392993E+02  0.12337817271E+03  0.19859837052E+03  0.12509000000E+03 0.  0.
         25    1    4    4    0    0 -0.91434562246E+01 -0.82076364297E+02  0.24812151317E+03  0.28988260687E+03  0.12509000000E+03 0.  0.
         25    1    4    4    0    0 -0.23050563698E+02 -0.47290286955E+01  0.27035955794E+03  0.29882351124E+03  0.12509000000E+03 0.  0.
<mgrwt>
<rscale>  2 0.45592222E+03</rscale>
<asrwt>0</asrwt>
<pdfrwt beam="1">  1       21 0.10508556E+00 0.45592222E+03</pdfrwt>
<pdfrwt beam="2">  1       21 0.10694504E-01 0.45592222E+03</pdfrwt>
<totfact> 0.48036397E+04</totfact>
</mgrwt>
</event>
<event>
 7    0  0.4737014E-002  0.4530811E+03  0.7546771E-02  0.1026807E+00
         21   -1    0    0  502  501  0.00000000000E+00  0.00000000000E+00  0.38993950327E+02  0.38993950327E+02  0.00000000000E+00 0. -1.
         21   -1    0    0  501  502 -0.00000000000E+00 -0.00000000000E+00 -0.13161175280E+04  0.13161175280E+04  0.00000000000E+00 0. -1.
      99926    2    1    2    0    0  0.00000000000E+00  0.00000000000E+00 -0.12771235777E+04  0.13551114784E+04  0.45308110317E+03 0.  0.
      99925    2    3    3    0    0  0.10944420578E+03  0.94224596994E+01 -0.85885479692E+03  0.90493029483E+03  0.26305980190E+03 0.  0.
         25    1    3    3    0    0 -0.10944420578E+03 -0.94224596994E+01 -0.41826878079E+03  0.45018118354E+03  0.12509000000E+03 0.  0.
         25    1    4    4    0    0  0.26670646968E+02  0.26059475551E+02 -0.32733249540E+03  0.35239819852E+03  0.12509000000E+03 0.  0.
         25    1    4    4    0    0  0.82773558816E+02 -0.16637015851E+02 -0.53152230153E+03  0.55253209631E+03  0.12509000000E+03 0.  0.
<mgrwt>
<rscale>  2 0.45308110E+03</rscale>
<asrwt>0</asrwt>
<pdfrwt beam="1">  1       21 0.57344051E-02 0.45308110E+03</pdfrwt>
<pdfrwt beam="2">  1       21 0.19354667E+00 0.45308110E+03</pdfrwt>
<totfact> 0.27967988E+04</totfact>
</mgrwt>
</event>
<event>
 7    0  0.4737014E-002  0.4434235E+03  0.7546771E-02  0.1029702E+00
         21   -1    0    0  502  501  0.00000000000E+00  0.00000000000E+00  0.36373459333E+03  0.36373459333E+03  0.00000000000E+00 0. -1.
         21   -1    0    0  501  502 -0.00000000000E+00 -0.00000000000E+00 -0.13514276153E+03  0.13514276153E+03  0.00000000000E+00 0. -1.
      99926    2    1    2    0    0  0.71054273576E-14  0.71054273576E-14  0.22859183180E+03  0.49887735486E+03  0.44342348791E+03 0.  0.
      99925    2    3    3    0    0 -0.51399905627E+02 -0.63221635941E+02  0.76633336631E+02  0.28585665657E+03  0.26306355557E+03 0.  0.
         25    1    4    4    0    0 -0.23278616567E+02  0.99631500004E+01  0.40031286463E+02  0.13375787956E+03  0.12509000000E+03 0.  0.
         25    1    3    3    0    0  0.51399905627E+02  0.63221635941E+02  0.15195849517E+03  0.21302069830E+03  0.12509000000E+03 0.  0.
         25    1    4    4    0    0 -0.28121289060E+02 -0.73184785941E+02  0.36602050169E+02  0.15209877701E+03  0.12509000000E+03 0.  0.
<mgrwt>
<rscale>  2 0.44342349E+03</rscale>
<asrwt>0</asrwt>
<pdfrwt beam="1">  1       21 0.53490381E-01 0.44342349E+03</pdfrwt>
<pdfrwt beam="2">  1       21 0.19873936E-01 0.44342349E+03</pdfrwt>
<totfact> 0.71716105E+04</totfact>
</mgrwt>
</event>
<event>
 7    0  0.4737014E-002  0.4551166E+03  0.7546771E-02  0.1026207E+00
         21   -1    0    0  502  501  0.00000000000E+00  0.00000000000E+00  0.11492472892E+03  0.11492472892E+03  0.00000000000E+00 0.  1.
         21   -1    0    0  501  502 -0.00000000000E+00 -0.00000000000E+00 -0.45058000077E+03  0.45058000077E+03  0.00000000000E+00 0.  1.
      99926    2    1    2    0    0  0.00000000000E+00  0.00000000000E+00 -0.33565527185E+03  0.56550472969E+03  0.45511661997E+03 0.  0.
      99925    2    3    3    0    0  0.54003806818E+02  0.98467922726E+02 -0.22952619753E+03  0.36670022402E+03  0.26301033437E+03 0.  0.
         25    1    4    4    0    0  0.60619762546E+02  0.33798616718E+02 -0.94184293491E+02  0.17127548378E+03  0.12509000000E+03 0.  0.
         25    1    3    3    0    0 -0.54003806818E+02 -0.98467922726E+02 -0.10612907432E+03  0.19880450567E+03  0.12509000000E+03 0.  0.
         25    1    4    4    0    0 -0.66159557277E+01  0.64669306008E+02 -0.13534190404E+03  0.19542474024E+03  0.12509000000E+03 0.  0.
<mgrwt>
<rscale>  2 0.45511662E+03</rscale>
<asrwt>0</asrwt>
<pdfrwt beam="1">  1       21 0.16900696E-01 0.45511662E+03</pdfrwt>
<pdfrwt beam="2">  1       21 0.66261764E-01 0.45511662E+03</pdfrwt>
<totfact> 0.60797332E+04</totfact>
</mgrwt>
</event>
<event>
 7    0  0.4737014E-002  0.4625832E+03  0.7546771E-02  0.1024035E+00
         21   -1    0    0  502  501  0.00000000000E+00  0.00000000000E+00  0.77904388390E+03  0.77904388390E+03  0.00000000000E+00 0.  1.
         21   -1    0    0  501  502 -0.00000000000E+00 -0.00000000000E+00 -0.68668544872E+02  0.68668544872E+02  0.00000000000E+00 0.  1.
      99926    2    1    2    0    0  0.00000000000E+00  0.00000000000E+00  0.71037533902E+03  0.84771242877E+03  0.46258322451E+03 0.  0.
      99925    2    3    3    0    0  0.42607596205E+02  0.44665572737E+02  0.25505683084E+03  0.37150567468E+03  0.26296779027E+03 0.  0.
         25    1    4    4    0    0  0.22947243580E+02 -0.31459687067E+01  0.80209556086E+02  0.15039133650E+03  0.12509000000E+03 0.  0.
         25    1    3    3    0    0 -0.42607596205E+02 -0.44665572737E+02  0.45531850819E+03  0.47620675409E+03  0.12509000000E+03 0.  0.
         25    1    4    4    0    0  0.19660352626E+02  0.47811541444E+02  0.17484727475E+03  0.22111433818E+03  0.12509000000E+03 0.  0.
<mgrwt>
<rscale>  2 0.46258322E+03</rscale>
<asrwt>0</asrwt>
<pdfrwt beam="1">  1       21 0.11456527E+00 0.46258322E+03</pdfrwt>
<pdfrwt beam="2">  1       21 0.10098316E-01 0.46258322E+03</pdfrwt>
<totfact> 0.42930415E+04</totfact>
</mgrwt>
</event>
<event>
 7    0  0.4737014E-002  0.4504499E+03  0.7546771E-02  0.1027588E+00
         21   -1    0    0  502  501  0.00000000000E+00  0.00000000000E+00  0.71817905782E+03  0.71817905782E+03  0.00000000000E+00 0.  1.
         21   -1    0    0  501  502 -0.00000000000E+00 -0.00000000000E+00 -0.70631782651E+02  0.70631782651E+02  0.00000000000E+00 0.  1.
      99926    2    1    2    0    0  0.00000000000E+00  0.00000000000E+00  0.64754727517E+03  0.78881084047E+03  0.45044985122E+03 0.  0.
      99925    2    3    3    0    0  0.52489886608E+02  0.76098100693E+02  0.30879596763E+03  0.41605614153E+03  0.26306207281E+03 0.  0.
         25    1    3    3    0    0 -0.52489886608E+02 -0.76098100693E+02  0.33875130754E+03  0.37275469894E+03  0.12509000000E+03 0.  0.
         25    1    4    4    0    0  0.29000768945E+02  0.18332185213E+02  0.20240156355E+03  0.24039761780E+03  0.12509000000E+03 0.  0.
         25    1    4    4    0    0  0.23489117663E+02  0.57765915481E+02  0.10639440408E+03  0.17565852373E+03  0.12509000000E+03 0.  0.
<mgrwt>
<rscale>  2 0.45044985E+03</rscale>
<asrwt>0</asrwt>
<pdfrwt beam="1">  1       21 0.10561456E+00 0.45044985E+03</pdfrwt>
<pdfrwt beam="2">  1       21 0.10387027E-01 0.45044985E+03</pdfrwt>
<totfact> 0.50075294E+04</totfact>
</mgrwt>
</event>
<event>
 7    0  0.4737014E-002  0.4523748E+03  0.7546771E-02  0.1027016E+00
         21   -1    0    0  502  501  0.00000000000E+00  0.00000000000E+00  0.55705718397E+02  0.55705718397E+02  0.00000000000E+00 0.  1.
         21   -1    0    0  501  502 -0.00000000000E+00 -0.00000000000E+00 -0.91841099646E+03  0.91841099646E+03  0.00000000000E+00 0.  1.
      99926    2    1    2    0    0 -0.71054273576E-14 -0.14210854715E-13 -0.86270527807E+03  0.97411671486E+03  0.45237481955E+03 0.  0.
      99925    2    3    3    0    0 -0.58148568121E+02  0.94295712702E+02 -0.53514075190E+03  0.60639540148E+03  0.26280567191E+03 0.  0.
         25    1    4    4    0    0 -0.36628034118E+02  0.69866779304E+01 -0.26537761912E+03  0.29574180527E+03  0.12509000000E+03 0.  0.
         25    1    4    4    0    0 -0.21520534003E+02  0.87309034771E+02 -0.26976313278E+03  0.31065359622E+03  0.12509000000E+03 0.  0.
         25    1    3    3    0    0  0.58148568121E+02 -0.94295712702E+02 -0.32756452617E+03  0.36772131338E+03  0.12509000000E+03 0.  0.
<mgrwt>
<rscale>  2 0.45237482E+03</rscale>
<asrwt>0</asrwt>
<pdfrwt beam="1">  1       21 0.81920165E-02 0.45237482E+03</pdfrwt>
<pdfrwt beam="2">  1       21 0.13506046E+00 0.45237482E+03</pdfrwt>
<totfact> 0.41014613E+04</totfact>
</mgrwt>
</event>
<event>
 7    0  0.4737014E-002  0.4492433E+03  0.7546771E-02  0.1027948E+00
         21   -1    0    0  502  501  0.00000000000E+00  0.00000000000E+00  0.47538720495E+03  0.47538720495E+03  0.00000000000E+00 0. -1.
         21   -1    0    0  501  502 -0.00000000000E+00 -0.00000000000E+00 -0.10613430071E+03  0.10613430071E+03  0.00000000000E+00 0. -1.
      99926    2    1    2    0    0  0.00000000000E+00  0.00000000000E+00  0.36925290424E+03  0.58152150566E+03  0.44924331297E+03 0.  0.
      99925    2    3    3    0    0  0.81701444014E+02 -0.66829702968E+02  0.26137589142E+03  0.38549524939E+03  0.26295987438E+03 0.  0.
         25    1    4    4    0    0  0.63133695305E+01 -0.52396612894E+02  0.14030812930E+03  0.19524124289E+03  0.12509000000E+03 0.  0.
         25    1    3    3    0    0 -0.81701444014E+02  0.66829702968E+02  0.10787701282E+03  0.19602625627E+03  0.12509000000E+03 0.  0.
         25    1    4    4    0    0  0.75388074483E+02 -0.14433090074E+02  0.12106776212E+03  0.19025400650E+03  0.12509000000E+03 0.  0.
<mgrwt>
<rscale>  2 0.44924331E+03</rscale>
<asrwt>0</asrwt>
<pdfrwt beam="1">  1       21 0.69909882E-01 0.44924331E+03</pdfrwt>
<pdfrwt beam="2">  1       21 0.15607986E-01 0.44924331E+03</pdfrwt>
<totfact> 0.62632301E+04</totfact>
</mgrwt>
</event>
<event>
 7    0  0.4737014E-002  0.4989761E+03  0.7546771E-02  0.1014047E+00
         21   -1    0    0  502  501  0.00000000000E+00  0.00000000000E+00  0.48687665723E+03  0.48687665723E+03  0.00000000000E+00 0.  1.
         21   -1    0    0  501  502 -0.00000000000E+00 -0.00000000000E+00 -0.12784404431E+03  0.12784404431E+03  0.00000000000E+00 0.  1.
      99926    2    1    2    0    0  0.00000000000E+00  0.00000000000E+00  0.35903261292E+03  0.61472070153E+03  0.49897607533E+03 0.  0.
      99925    2    3    3    0    0  0.70605764053E+02  0.86615379753E+02  0.34271265418E+03  0.44619400608E+03  0.26296336209E+03 0.  0.
         25    1    4    4    0    0  0.48275043046E+02  0.41477730560E+01  0.15527998313E+03  0.20520006107E+03  0.12509000000E+03 0.  0.
         25    1    4    4    0    0  0.22330721007E+02  0.82467606697E+02  0.18743267105E+03  0.24099394501E+03  0.12509000000E+03 0.  0.
         25    1    3    3    0    0 -0.70605764053E+02 -0.86615379753E+02  0.16319958743E+02  0.16852669545E+03  0.12509000000E+03 0.  0.
<mgrwt>
<rscale>  2 0.49897608E+03</rscale>
<asrwt>0</asrwt>
<pdfrwt beam="1">  1       21 0.71599508E-01 0.49897608E+03</pdfrwt>
<pdfrwt beam="2">  1       21 0.18800595E-01 0.49897608E+03</pdfrwt>
<totfact> 0.41408808E+04</totfact>
</mgrwt>
</event>
<event>
 7    0  0.4737014E-002  0.4630621E+03  0.7546771E-02  0.1023897E+00
         21   -1    0    0  502  501  0.00000000000E+00  0.00000000000E+00  0.35038230169E+03  0.35038230169E+03  0.00000000000E+00 0.  1.
         21   -1    0    0  501  502 -0.00000000000E+00 -0.00000000000E+00 -0.15299464607E+03  0.15299464607E+03  0.00000000000E+00 0.  1.
      99926    2    1    2    0    0  0.17763568394E-14  0.00000000000E+00  0.19738765562E+03  0.50337694775E+03  0.46306205301E+03 0.  0.
      99925    2    3    3    0    0 -0.13365464467E+02  0.11876987182E+03  0.10709003808E+03  0.30822038003E+03  0.26314750297E+03 0.  0.
         25    1    4    4    0    0  0.24276000849E+02  0.34847376236E+02  0.65668482430E+02  0.14752464720E+03  0.12509000000E+03 0.  0.
         25    1    4    4    0    0 -0.37641465316E+02  0.83922495583E+02  0.41421555652E+02  0.16069573283E+03  0.12509000000E+03 0.  0.
         25    1    3    3    0    0  0.13365464467E+02 -0.11876987182E+03  0.90297617540E+02  0.19515656772E+03  0.12509000000E+03 0.  0.
<mgrwt>
<rscale>  2 0.46306205E+03</rscale>
<asrwt>0</asrwt>
<pdfrwt beam="1">  1       21 0.51526809E-01 0.46306205E+03</pdfrwt>
<pdfrwt beam="2">  1       21 0.22499213E-01 0.46306205E+03</pdfrwt>
<totfact> 0.61033522E+04</totfact>
</mgrwt>
</event>
<event>
 7    0  0.4737014E-002  0.4528397E+03  0.7546771E-02  0.1026879E+00
         21   -1    0    0  502  501  0.00000000000E+00  0.00000000000E+00  0.33754397513E+03  0.33754397513E+03  0.00000000000E+00 0.  1.
         21   -1    0    0  501  502 -0.00000000000E+00 -0.00000000000E+00 -0.15187933438E+03  0.15187933438E+03  0.00000000000E+00 0.  1.
      99926    2    1    2    0    0  0.00000000000E+00  0.00000000000E+00  0.18566464074E+03  0.48942330951E+03  0.45283972558E+03 0.  0.
      99925    2    3    3    0    0 -0.22265762834E+02  0.10765977516E+03  0.13336050952E+03  0.31486781224E+03  0.26319255746E+03 0.  0.
         25    1    3    3    0    0  0.22265762834E+02 -0.10765977516E+03  0.52304131226E+02  0.17455549727E+03  0.12509000000E+03 0.  0.
         25    1    4    4    0    0 -0.14019604994E+02  0.81613321281E+02  0.10667694848E+03  0.18407814366E+03  0.12509000000E+03 0.  0.
         25    1    4    4    0    0 -0.82461578393E+01  0.26046453882E+02  0.26683561040E+02  0.13078966859E+03  0.12509000000E+03 0.  0.
<mgrwt>
<rscale>  2 0.45283973E+03</rscale>
<asrwt>0</asrwt>
<pdfrwt beam="1">  1       21 0.49638820E-01 0.45283973E+03</pdfrwt>
<pdfrwt beam="2">  1       21 0.22335196E-01 0.45283973E+03</pdfrwt>
<totfact> 0.67164773E+04</totfact>
</mgrwt>
</event>
<event>
 7    0  0.4737014E-002  0.4295110E+03  0.7546771E-02  0.1034015E+00
         21   -1    0    0  502  501  0.00000000000E+00  0.00000000000E+00  0.25869489962E+03  0.25869489962E+03  0.00000000000E+00 0.  1.
         21   -1    0    0  501  502 -0.00000000000E+00 -0.00000000000E+00 -0.17827922588E+03  0.17827922588E+03  0.00000000000E+00 0.  1.
      99926    2    1    2    0    0  0.00000000000E+00  0.00000000000E+00  0.80415673740E+02  0.43697412551E+03  0.42951100775E+03 0.  0.
      99925    2    3    3    0    0 -0.15236416691E+02 -0.34858976039E+02  0.13162614066E+03  0.29655576265E+03  0.26300681142E+03 0.  0.
         25    1    4    4    0    0  0.24621632760E+02 -0.70181850752E+01  0.89377288658E+02  0.15585662498E+03  0.12509000000E+03 0.  0.
         25    1    4    4    0    0 -0.39858049451E+02 -0.27840790964E+02  0.42248852003E+02  0.14069913768E+03  0.12509000000E+03 0.  0.
         25    1    3    3    0    0  0.15236416691E+02  0.34858976039E+02 -0.51210466921E+02  0.14041836285E+03  0.12509000000E+03 0.  0.
<mgrwt>
<rscale>  2 0.42951101E+03</rscale>
<asrwt>0</asrwt>
<pdfrwt beam="1">  1       21 0.38043368E-01 0.42951101E+03</pdfrwt>
<pdfrwt beam="2">  1       21 0.26217533E-01 0.42951101E+03</pdfrwt>
<totfact> 0.86101801E+04</totfact>
</mgrwt>
</event>
<event>
 6    0  0.4737014E-002  0.4522928E+03  0.7546771E-02  0.1027041E+00
         21   -1    0    0  502  501  0.00000000000E+00  0.00000000000E+00  0.56806481454E+02  0.56806481454E+02  0.00000000000E+00 0.  1.
         21   -1    0    0  501  502 -0.00000000000E+00 -0.00000000000E+00 -0.90028808177E+03  0.90028808177E+03  0.00000000000E+00 0.  1.
      99926    2    1    2    0    0  0.00000000000E+00  0.35527136788E-14 -0.84348160032E+03  0.95709456323E+03  0.45229281763E+03 0.  0.
         25    1    3    3    0    0 -0.14222600404E+02  0.30398858680E+02 -0.10055116529E+03  0.16396468496E+03  0.12509000000E+03 0.  0.
         25    1    3    3    0    0 -0.30170036300E+02 -0.70601173442E+01 -0.23947516352E+03  0.27194841126E+03  0.12509000000E+03 0.  0.
         25    1    3    3    0    0  0.44392636704E+02 -0.23338741335E+02 -0.50345527151E+03  0.52118146701E+03  0.12509000000E+03 0.  0.
<mgrwt>
<rscale>  2 0.45229282E+03</rscale>
<asrwt>0</asrwt>
<pdfrwt beam="1">  1       21 0.83538937E-02 0.45229282E+03</pdfrwt>
<pdfrwt beam="2">  1       21 0.13239532E+00 0.45229282E+03</pdfrwt>
<totfact> 0.41731251E+04</totfact>
</mgrwt>
</event>
<event>
 7    0  0.4737014E-002  0.4407914E+03  0.7546771E-02  0.1030504E+00
         21   -1    0    0  502  501  0.00000000000E+00  0.00000000000E+00  0.60480637162E+03  0.60480637162E+03  0.00000000000E+00 0.  1.
         21   -1    0    0  501  502 -0.00000000000E+00 -0.00000000000E+00 -0.80313750549E+02  0.80313750549E+02  0.00000000000E+00 0.  1.
      99926    2    1    2    0    0 -0.17763568394E-14  0.00000000000E+00  0.52449262107E+03  0.68512012217E+03  0.44079141580E+03 0.  0.
      99925    2    3    3    0    0 -0.14304222751E+02  0.37811403640E+02  0.19394172737E+03  0.32938747753E+03  0.26315091431E+03 0.  0.
         25    1    4    4    0    0  0.18479583271E+02  0.88895627224E+01  0.13235776996E+03  0.18326649091E+03  0.12509000000E+03 0.  0.
         25    1    4    4    0    0 -0.32783806022E+02  0.28921840918E+02  0.61583957408E+02  0.14612098662E+03  0.12509000000E+03 0.  0.
         25    1    3    3    0    0  0.14304222751E+02 -0.37811403640E+02  0.33055089371E+03  0.35573264464E+03  0.12509000000E+03 0.  0.
<mgrwt>
<rscale>  2 0.44079142E+03</rscale>
<asrwt>0</asrwt>
<pdfrwt beam="1">  1       21 0.88942111E-01 0.44079142E+03</pdfrwt>
<pdfrwt beam="2">  1       21 0.11810846E-01 0.44079142E+03</pdfrwt>
<totfact> 0.60172228E+04</totfact>
</mgrwt>
</event>
<event>
 7    0  0.4737014E-002  0.4575899E+03  0.7546771E-02  0.1025483E+00
         21   -1    0    0  502  501  0.00000000000E+00  0.00000000000E+00  0.50057627429E+03  0.50057627429E+03  0.00000000000E+00 0.  1.
         21   -1    0    0  501  502 -0.00000000000E+00 -0.00000000000E+00 -0.10457372780E+03  0.10457372780E+03  0.00000000000E+00 0.  1.
      99926    2    1    2    0    0  0.00000000000E+00  0.00000000000E+00  0.39600254649E+03  0.60515000209E+03  0.45758989084E+03 0.  0.
      99925    2    3    3    0    0  0.90354691506E+02 -0.70265063377E+02  0.22758791841E+03  0.36616852904E+03  0.26302467878E+03 0.  0.
         25    1    3    3    0    0 -0.90354691506E+02  0.70265063377E+02  0.16841462807E+03  0.23898147304E+03  0.12509000000E+03 0.  0.
         25    1    4    4    0    0  0.57096892924E+02 -0.38663158225E+02  0.16714120930E+03  0.21986038054E+03  0.12509000000E+03 0.  0.
         25    1    4    4    0    0  0.33257798582E+02 -0.31601905152E+02  0.60446709113E+02  0.14630814850E+03  0.12509000000E+03 0.  0.
<mgrwt>
<rscale>  2 0.45758989E+03</rscale>
<asrwt>0</asrwt>
<pdfrwt beam="1">  1       21 0.73614157E-01 0.45758989E+03</pdfrwt>
<pdfrwt beam="2">  1       21 0.15378490E-01 0.45758989E+03</pdfrwt>
<totfact> 0.57183370E+04</totfact>
</mgrwt>
</event>
<event>
 7    0  0.4737014E-002  0.4532454E+03  0.7546771E-02  0.1026759E+00
         21   -1    0    0  502  501  0.00000000000E+00  0.00000000000E+00  0.10450351840E+04  0.10450351840E+04  0.00000000000E+00 0.  1.
         21   -1    0    0  501  502 -0.00000000000E+00 -0.00000000000E+00 -0.49144620913E+02  0.49144620913E+02  0.00000000000E+00 0.  1.
      99926    2    1    2    0    0  0.00000000000E+00  0.00000000000E+00  0.99589056308E+03  0.10941798049E+04  0.45324544326E+03 0.  0.
      99925    2    3    3    0    0 -0.73501456145E+02 -0.79088900028E+02  0.56014072123E+03  0.62815088849E+03  0.26297983377E+03 0.  0.
         25    1    3    3    0    0  0.73501456145E+02  0.79088900028E+02  0.43574984186E+03  0.46602891642E+03  0.12509000000E+03 0.  0.
         25    1    4    4    0    0 -0.71398565664E+02 -0.61478869481E+02  0.33998701221E+03  0.37432082916E+03  0.12509000000E+03 0.  0.
         25    1    4    4    0    0 -0.21028904811E+01 -0.17610030547E+02  0.22015370902E+03  0.25383005933E+03  0.12509000000E+03 0.  0.
<mgrwt>
<rscale>  2 0.45324544E+03</rscale>
<asrwt>0</asrwt>
<pdfrwt beam="1">  1       21 0.15368163E+00 0.45324544E+03</pdfrwt>
<pdfrwt beam="2">  1       21 0.72271508E-02 0.45324544E+03</pdfrwt>
<totfact> 0.36189574E+04</totfact>
</mgrwt>
</event>
<event>
 7    0  0.4737014E-002  0.4456054E+03  0.7546771E-02  0.1029041E+00
         21   -1    0    0  502  501  0.00000000000E+00  0.00000000000E+00  0.69711538341E+02  0.69711538341E+02  0.00000000000E+00 0.  1.
         21   -1    0    0  501  502 -0.00000000000E+00 -0.00000000000E+00 -0.71209228978E+03  0.71209228978E+03  0.00000000000E+00 0.  1.
      99926    2    1    2    0    0 -0.14210854715E-13  0.71054273576E-14 -0.64238075144E+03  0.78180382812E+03  0.44560542618E+03 0.  0.
      99925    2    3    3    0    0  0.98937130422E+02 -0.29780327019E+02 -0.43053848466E+03  0.51497040115E+03  0.26297472053E+03 0.  0.
         25    1    4    4    0    0  0.73314016260E+02  0.73432795132E+01 -0.26960526125E+03  0.30620805628E+03  0.12509000000E+03 0.  0.
         25    1    3    3    0    0 -0.98937130422E+02  0.29780327019E+02 -0.21184226678E+03  0.26683342697E+03  0.12509000000E+03 0.  0.
         25    1    4    4    0    0  0.25623114162E+02 -0.37123606532E+02 -0.16093322340E+03  0.20876234487E+03  0.12509000000E+03 0.  0.
<mgrwt>
<rscale>  2 0.44560543E+03</rscale>
<asrwt>0</asrwt>
<pdfrwt beam="1">  1       21 0.10251696E-01 0.44560543E+03</pdfrwt>
<pdfrwt beam="2">  1       21 0.10471946E+00 0.44560543E+03</pdfrwt>
<totfact> 0.52417229E+04</totfact>
</mgrwt>
</event>
<event>
 7    0  0.4737014E-002  0.4549192E+03  0.7546771E-02  0.1026265E+00
         21   -1    0    0  502  501  0.00000000000E+00  0.00000000000E+00  0.54793122360E+03  0.54793122360E+03  0.00000000000E+00 0.  1.
         21   -1    0    0  501  502 -0.00000000000E+00 -0.00000000000E+00 -0.94424006992E+02  0.94424006992E+02  0.00000000000E+00 0.  1.
      99926    2    1    2    0    0  0.00000000000E+00  0.14210854715E-13  0.45350721660E+03  0.64235523059E+03  0.45491916507E+03 0.  0.
      99925    2    3    3    0    0  0.56315006096E+02  0.95994113425E+02  0.31370848377E+03  0.42423268813E+03  0.26300971687E+03 0.  0.
         25    1    4    4    0    0  0.20897523902E+02  0.83286406326E+02  0.20005892427E+03  0.25108646571E+03  0.12509000000E+03 0.  0.
         25    1    3    3    0    0 -0.56315006096E+02 -0.95994113425E+02  0.13979873284E+03  0.21812254245E+03  0.12509000000E+03 0.  0.
         25    1    4    4    0    0  0.35417482194E+02  0.12707707099E+02  0.11364955950E+03  0.17314622242E+03  0.12509000000E+03 0.  0.
<mgrwt>
<rscale>  2 0.45491917E+03</rscale>
<asrwt>0</asrwt>
<pdfrwt beam="1">  1       21 0.80578120E-01 0.45491917E+03</pdfrwt>
<pdfrwt beam="2">  1       21 0.13885884E-01 0.45491917E+03</pdfrwt>
<totfact> 0.56179891E+04</totfact>
</mgrwt>
</event>
<event>
 7    0  0.4737014E-002  0.4539225E+03  0.7546771E-02  0.1026559E+00
         21   -1    0    0  502  501  0.00000000000E+00  0.00000000000E+00  0.11414309897E+04  0.11414309897E+04  0.00000000000E+00 0.  1.
         21   -1    0    0  501  502 -0.00000000000E+00 -0.00000000000E+00 -0.45128806683E+02  0.45128806683E+02  0.00000000000E+00 0.  1.
      99926    2    1    2    0    0 -0.14210854715E-13  0.71054273576E-14  0.10963021830E+04  0.11865597964E+04  0.45392254175E+03 0.  0.
      99925    2    3    3    0    0 -0.88408929067E+02  0.58065644909E+02  0.78386363996E+03  0.83378067406E+03  0.26374276964E+03 0.  0.
         25    1    4    4    0    0 -0.14613718816E+02  0.30601545861E+02  0.45754477050E+03  0.47554678056E+03  0.12509000000E+03 0.  0.
         25    1    3    3    0    0  0.88408929067E+02 -0.58065644909E+02  0.31243854309E+03  0.35277912235E+03  0.12509000000E+03 0.  0.
         25    1    4    4    0    0 -0.73795210251E+02  0.27464099048E+02  0.32631886946E+03  0.35823389351E+03  0.12509000000E+03 0.  0.
<mgrwt>
<rscale>  2 0.45392254E+03</rscale>
<asrwt>0</asrwt>
<pdfrwt beam="1">  1       21 0.16785748E+00 0.45392254E+03</pdfrwt>
<pdfrwt beam="2">  1       21 0.66365900E-02 0.45392254E+03</pdfrwt>
<totfact> 0.32859828E+04</totfact>
</mgrwt>
</event>
<event>
 7    0  0.4737014E-002  0.4546087E+03  0.7546771E-02  0.1026357E+00
         21   -1    0    0  502  501  0.00000000000E+00  0.00000000000E+00  0.30233093149E+04  0.30233093149E+04  0.00000000000E+00 0.  1.
         21   -1    0    0  501  502 -0.00000000000E+00 -0.00000000000E+00 -0.17089638063E+02  0.17089638063E+02  0.00000000000E+00 0.  1.
      99926    2    1    2    0    0  0.00000000000E+00 -0.71054273576E-14  0.30062196768E+04  0.30403989530E+04  0.45460867543E+03 0.  0.
      99925    2    3    3    0    0 -0.79129666520E+02  0.51313815177E+02  0.23061515849E+04  0.23230165910E+04  0.26301395012E+03 0.  0.
         25    1    4    4    0    0 -0.76688005960E+02  0.45064572452E+02  0.11904079342E+04  0.12002626479E+04  0.12509000000E+03 0.  0.
         25    1    3    3    0    0  0.79129666520E+02 -0.51313815177E+02  0.70006809196E+03  0.71738236195E+03  0.12509000000E+03 0.  0.
         25    1    4    4    0    0 -0.24416605604E+01  0.62492427248E+01  0.11157436507E+04  0.11227539431E+04  0.12509000000E+03 0.  0.
<mgrwt>
<rscale>  2 0.45460868E+03</rscale>
<asrwt>0</asrwt>
<pdfrwt beam="1">  1       21 0.44460394E+00 0.45460868E+03</pdfrwt>
<pdfrwt beam="2">  1       21 0.25131842E-02 0.45460868E+03</pdfrwt>
<totfact> 0.30379821E+03</totfact>
</mgrwt>
</event>
<event>
 7    0  0.4737014E-002  0.4553969E+03  0.7546771E-02  0.1026125E+00
         21   -1    0    0  502  501  0.00000000000E+00  0.00000000000E+00  0.19764509855E+04  0.19764509855E+04  0.00000000000E+00 0.  1.
         21   -1    0    0  501  502 -0.00000000000E+00 -0.00000000000E+00 -0.26232163825E+02  0.26232163825E+02  0.00000000000E+00 0.  1.
      99926    2    1    2    0    0  0.00000000000E+00  0.00000000000E+00  0.19502188217E+04  0.20026831493E+04  0.45539690839E+03 0.  0.
      99925    2    3    3    0    0 -0.89113018422E+02  0.23009221818E+02  0.15157221269E+04  0.15412663744E+04  0.26385207302E+03 0.  0.
         25    1    3    3    0    0  0.89113018422E+02 -0.23009221818E+02  0.43449669472E+03  0.46141677491E+03  0.12509000000E+03 0.  0.
         25    1    4    4    0    0 -0.25436614303E+02  0.14045111674E+02  0.51811224985E+03  0.53379031281E+03  0.12509000000E+03 0.  0.
         25    1    4    4    0    0 -0.63676404120E+02  0.89641101444E+01  0.99760987708E+03  0.10074760616E+04  0.12509000000E+03 0.  0.
<mgrwt>
<rscale>  2 0.45539691E+03</rscale>
<asrwt>0</asrwt>
<pdfrwt beam="1">  1       21 0.29065446E+00 0.45539691E+03</pdfrwt>
<pdfrwt beam="2">  1       21 0.38576725E-02 0.45539691E+03</pdfrwt>
<totfact> 0.13623884E+04</totfact>
</mgrwt>
</event>
<event>
 7    0  0.4737014E-002  0.4578157E+03  0.7546771E-02  0.1025417E+00
         21   -1    0    0  502  501  0.00000000000E+00  0.00000000000E+00  0.58247626813E+03  0.58247626813E+03  0.00000000000E+00 0. -1.
         21   -1    0    0  501  502 -0.00000000000E+00 -0.00000000000E+00 -0.89958703786E+02  0.89958703786E+02  0.00000000000E+00 0. -1.
      99926    2    1    2    0    0  0.00000000000E+00  0.00000000000E+00  0.49251756435E+03  0.67243497192E+03  0.45781572742E+03 0.  0.
      99925    2    3    3    0    0  0.97559304015E+02 -0.76498132113E+01  0.21851430272E+03  0.35573064147E+03  0.26309589762E+03 0.  0.
         25    1    4    4    0    0  0.57137139877E+02 -0.91136302821E+01  0.61435748020E+02  0.15089589207E+03  0.12509000000E+03 0.  0.
         25    1    4    4    0    0  0.40422164138E+02  0.14638170708E+01  0.15707855470E+03  0.20483474940E+03  0.12509000000E+03 0.  0.
         25    1    3    3    0    0 -0.97559304015E+02  0.76498132113E+01  0.27400326163E+03  0.31670433045E+03  0.12509000000E+03 0.  0.
<mgrwt>
<rscale>  2 0.45781573E+03</rscale>
<asrwt>0</asrwt>
<pdfrwt beam="1">  1       21 0.85658273E-01 0.45781573E+03</pdfrwt>
<pdfrwt beam="2">  1       21 0.13229221E-01 0.45781573E+03</pdfrwt>
<totfact> 0.53234072E+04</totfact>
</mgrwt>
</event>
<event>
 7    0  0.4737014E-002  0.4559110E+03  0.7546771E-02  0.1025974E+00
         21   -1    0    0  502  501  0.00000000000E+00  0.00000000000E+00  0.55368906581E+02  0.55368906581E+02  0.00000000000E+00 0. -1.
         21   -1    0    0  501  502 -0.00000000000E+00 -0.00000000000E+00 -0.93849971701E+03  0.93849971701E+03  0.00000000000E+00 0. -1.
      99926    2    1    2    0    0  0.00000000000E+00 -0.14210854715E-13 -0.88313081043E+03  0.99386862359E+03  0.45591097007E+03 0.  0.
      99925    2    3    3    0    0 -0.31759426979E+02  0.10748923534E+03 -0.50779906721E+03  0.58267034723E+03  0.26283501282E+03 0.  0.
         25    1    4    4    0    0 -0.18790760086E+02  0.19750805906E+02 -0.28229234554E+03  0.30996719737E+03  0.12509000000E+03 0.  0.
         25    1    3    3    0    0  0.31759426979E+02 -0.10748923534E+03 -0.37533174321E+03  0.41119827636E+03  0.12509000000E+03 0.  0.
         25    1    4    4    0    0 -0.12968666893E+02  0.87738429436E+02 -0.22550672168E+03  0.27270314986E+03  0.12509000000E+03 0.  0.
<mgrwt>
<rscale>  2 0.45591097E+03</rscale>
<asrwt>0</asrwt>
<pdfrwt beam="1">  1       21 0.81424872E-02 0.45591097E+03</pdfrwt>
<pdfrwt beam="2">  1       21 0.13801465E+00 0.45591097E+03</pdfrwt>
<totfact> 0.39126978E+04</totfact>
</mgrwt>
</event>
<event>
 7    0  0.4737014E-002  0.4385929E+03  0.7546771E-02  0.1031179E+00
         21   -1    0    0  502  501  0.00000000000E+00  0.00000000000E+00  0.34633188555E+03  0.34633188555E+03  0.00000000000E+00 0. -1.
         21   -1    0    0  501  502 -0.00000000000E+00 -0.00000000000E+00 -0.13885795034E+03  0.13885795034E+03  0.00000000000E+00 0. -1.
      99926    2    1    2    0    0  0.00000000000E+00 -0.24424906542E-14  0.20747393521E+03  0.48518983589E+03  0.43859291269E+03 0.  0.
      99925    2    3    3    0    0 -0.22722531671E+02  0.15508517847E+01  0.23713231483E+03  0.35463009413E+03  0.26270144715E+03 0.  0.
         25    1    4    4    0    0 -0.36911341415E+02  0.21953433687E+02  0.15101820839E+03  0.20074463316E+03  0.12509000000E+03 0.  0.
         25    1    3    3    0    0  0.22722531671E+02 -0.15508517847E+01 -0.29658379623E+02  0.13055974176E+03  0.12509000000E+03 0.  0.
         25    1    4    4    0    0  0.14188809744E+02 -0.20402581903E+02  0.86114106444E+02  0.15388546097E+03  0.12509000000E+03 0.  0.
<mgrwt>
<rscale>  2 0.43859291E+03</rscale>
<asrwt>0</asrwt>
<pdfrwt beam="1">  1       21 0.50931159E-01 0.43859291E+03</pdfrwt>
<pdfrwt beam="2">  1       21 0.20420287E-01 0.43859291E+03</pdfrwt>
<totfact> 0.75715738E+04</totfact>
</mgrwt>
</event>
<event>
 7    0  0.4737014E-002  0.4305941E+03  0.7546771E-02  0.1033672E+00
         21   -1    0    0  502  501  0.00000000000E+00  0.00000000000E+00  0.11919906588E+04  0.11919906588E+04  0.00000000000E+00 0.  1.
         21   -1    0    0  501  502 -0.00000000000E+00 -0.00000000000E+00 -0.38886891859E+02  0.38886891859E+02  0.00000000000E+00 0.  1.
      99926    2    1    2    0    0  0.00000000000E+00  0.00000000000E+00  0.11531037669E+04  0.12308775507E+04  0.43059406334E+03 0.  0.
      99925    2    3    3    0    0  0.20505692329E+02 -0.85765560967E+02  0.75610008914E+03  0.80539471534E+03  0.26305339350E+03 0.  0.
         25    1    3    3    0    0 -0.20505692329E+02  0.85765560967E+02  0.39700367780E+03  0.42548283532E+03  0.12509000000E+03 0.  0.
         25    1    4    4    0    0  0.85596177192E+01 -0.33384627001E+02  0.48465981760E+03  0.50172746314E+03  0.12509000000E+03 0.  0.
         25    1    4    4    0    0  0.11946074610E+02 -0.52380933966E+02  0.27144027154E+03  0.30366725219E+03  0.12509000000E+03 0.  0.
<mgrwt>
<rscale>  2 0.43059406E+03</rscale>
<asrwt>0</asrwt>
<pdfrwt beam="1">  1       21 0.17529272E+00 0.43059406E+03</pdfrwt>
<pdfrwt beam="2">  1       21 0.57186614E-02 0.43059406E+03</pdfrwt>
<totfact> 0.37892586E+04</totfact>
</mgrwt>
</event>
<event>
 7    0  0.4737014E-002  0.4536463E+03  0.7546771E-02  0.1026640E+00
         21   -1    0    0  502  501  0.00000000000E+00  0.00000000000E+00  0.28765874465E+03  0.28765874465E+03  0.00000000000E+00 0.  1.
         21   -1    0    0  501  502 -0.00000000000E+00 -0.00000000000E+00 -0.17885338225E+03  0.17885338225E+03  0.00000000000E+00 0.  1.
      99926    2    1    2    0    0  0.00000000000E+00  0.99920072216E-15  0.10880536239E+03  0.46651212690E+03  0.45364629136E+03 0.  0.
      99925    2    3    3    0    0 -0.60990282777E+02  0.79844933873E+00  0.16514232258E+03  0.31637281394E+03  0.26286749243E+03 0.  0.
         25    1    4    4    0    0 -0.34542803253E+02 -0.39600692307E+02  0.79069163390E+02  0.15703776866E+03  0.12509000000E+03 0.  0.
         25    1    4    4    0    0 -0.26447479523E+02  0.40399141646E+02  0.86073159193E+02  0.15933504527E+03  0.12509000000E+03 0.  0.
         25    1    3    3    0    0  0.60990282777E+02 -0.79844933873E+00 -0.56336960188E+02  0.15013931297E+03  0.12509000000E+03 0.  0.
<mgrwt>
<rscale>  2 0.45364629E+03</rscale>
<asrwt>0</asrwt>
<pdfrwt beam="1">  1       21 0.42302757E-01 0.45364629E+03</pdfrwt>
<pdfrwt beam="2">  1       21 0.26301968E-01 0.45364629E+03</pdfrwt>
<totfact> 0.68427999E+04</totfact>
</mgrwt>
</event>
<event>
 7    0  0.4737014E-002  0.4551939E+03  0.7546771E-02  0.1026184E+00
         21   -1    0    0  502  501  0.00000000000E+00  0.00000000000E+00  0.55897308629E+02  0.55897308629E+02  0.00000000000E+00 0.  1.
         21   -1    0    0  501  502 -0.00000000000E+00 -0.00000000000E+00 -0.92670603911E+03  0.92670603911E+03  0.00000000000E+00 0.  1.
      99926    2    1    2    0    0  0.35527136788E-14 -0.14210854715E-13 -0.87080873048E+03  0.98260334774E+03  0.45519390803E+03 0.  0.
      99925    2    3    3    0    0  0.28773716399E+02 -0.87245828768E+02 -0.40391951335E+03  0.49059439400E+03  0.26285380872E+03 0.  0.
         25    1    4    4    0    0  0.95891948629E+01 -0.37776522961E+02 -0.26847875089E+03  0.29874297670E+03  0.12509000000E+03 0.  0.
         25    1    3    3    0    0 -0.28773716399E+02  0.87245828768E+02 -0.46688921713E+03  0.49200895374E+03  0.12509000000E+03 0.  0.
         25    1    4    4    0    0  0.19184521537E+02 -0.49469305807E+02 -0.13544076246E+03  0.19185141730E+03  0.12509000000E+03 0.  0.
<mgrwt>
<rscale>  2 0.45519391E+03</rscale>
<asrwt>0</asrwt>
<pdfrwt beam="1">  1       21 0.82201930E-02 0.45519391E+03</pdfrwt>
<pdfrwt beam="2">  1       21 0.13628029E+00 0.45519391E+03</pdfrwt>
<totfact> 0.39787496E+04</totfact>
</mgrwt>
</event>
<event>
 7    0  0.4737014E-002  0.4484565E+03  0.7546771E-02  0.1028183E+00
         21   -1    0    0  502  501  0.00000000000E+00  0.00000000000E+00  0.10005835676E+03  0.10005835676E+03  0.00000000000E+00 0.  1.
         21   -1    0    0  501  502 -0.00000000000E+00 -0.00000000000E+00 -0.50248978154E+03  0.50248978154E+03  0.00000000000E+00 0.  1.
      99926    2    1    2    0    0  0.00000000000E+00  0.35527136788E-14 -0.40243142478E+03  0.60254813830E+03  0.44845647204E+03 0.  0.
      99925    2    3    3    0    0 -0.99237824176E+02  0.27680446975E+02 -0.21657046175E+03  0.35595909035E+03  0.26303945751E+03 0.  0.
         25    1    3    3    0    0  0.99237824176E+02 -0.27680446975E+02 -0.18586096303E+03  0.24658904795E+03  0.12509000000E+03 0.  0.
         25    1    4    4    0    0 -0.47818642756E+02  0.39085271848E+02 -0.14979658746E+03  0.20469686559E+03  0.12509000000E+03 0.  0.
         25    1    4    4    0    0 -0.51419181420E+02 -0.11404824874E+02 -0.66773874294E+02  0.15126222475E+03  0.12509000000E+03 0.  0.
<mgrwt>
<rscale>  2 0.44845647E+03</rscale>
<asrwt>0</asrwt>
<pdfrwt beam="1">  1       21 0.14714464E-01 0.44845647E+03</pdfrwt>
<pdfrwt beam="2">  1       21 0.73895557E-01 0.44845647E+03</pdfrwt>
<totfact> 0.61647375E+04</totfact>
</mgrwt>
</event>
<event>
 7    0  0.4737014E-002  0.4544606E+03  0.7546771E-02  0.1026400E+00
         21   -1    0    0  502  501  0.00000000000E+00  0.00000000000E+00  0.35685574754E+03  0.35685574754E+03  0.00000000000E+00 0. -1.
         21   -1    0    0  501  502 -0.00000000000E+00 -0.00000000000E+00 -0.14469045010E+03  0.14469045010E+03  0.00000000000E+00 0. -1.
      99926    2    1    2    0    0  0.71054273576E-14  0.00000000000E+00  0.21216529744E+03  0.50154619764E+03  0.45446064178E+03 0.  0.
      99925    2    3    3    0    0 -0.55493104418E+02 -0.84557742432E+02  0.78815134778E+02  0.29259818873E+03  0.26300642223E+03 0.  0.
         25    1    4    4    0    0 -0.57552301872E+02 -0.32142024326E+02  0.66924376965E+02  0.15643451509E+03  0.12509000000E+03 0.  0.
         25    1    3    3    0    0  0.55493104418E+02  0.84557742432E+02  0.13335016267E+03  0.20894800891E+03  0.12509000000E+03 0.  0.
         25    1    4    4    0    0  0.20591974534E+01 -0.52415718106E+02  0.11890757812E+02  0.13616367364E+03  0.12509000000E+03 0.  0.
<mgrwt>
<rscale>  2 0.45446064E+03</rscale>
<asrwt>0</asrwt>
<pdfrwt beam="1">  1       21 0.52478786E-01 0.45446064E+03</pdfrwt>
<pdfrwt beam="2">  1       21 0.21278007E-01 0.45446064E+03</pdfrwt>
<totfact> 0.65441902E+04</totfact>
</mgrwt>
</event>
<event>
 7    0  0.4737014E-002  0.4527705E+03  0.7546771E-02  0.1026899E+00
         21   -1    0    0  502  501  0.00000000000E+00  0.00000000000E+00  0.44055016857E+03  0.44055016857E+03  0.00000000000E+00 0. -1.
         21   -1    0    0  501  502 -0.00000000000E+00 -0.00000000000E+00 -0.11633245847E+03  0.11633245847E+03  0.00000000000E+00 0. -1.
      99926    2    1    2    0    0 -0.35527136788E-14  0.00000000000E+00  0.32421771009E+03  0.55688262704E+03  0.45277051225E+03 0.  0.
      99925    2    3    3    0    0  0.14708046015E+02  0.10999774403E+03  0.21082945240E+03  0.35484244442E+03  0.26296059031E+03 0.  0.
         25    1    4    4    0    0 -0.21150644844E+02  0.23160280871E+02  0.97073084285E+02  0.16141387852E+03  0.12509000000E+03 0.  0.
         25    1    3    3    0    0 -0.14708046015E+02 -0.10999774403E+03  0.11338825769E+03  0.20204018262E+03  0.12509000000E+03 0.  0.
         25    1    4    4    0    0  0.35858690860E+02  0.86837463164E+02  0.11375636811E+03  0.19342856590E+03  0.12509000000E+03 0.  0.
<mgrwt>
<rscale>  2 0.45277051E+03</rscale>
<asrwt>0</asrwt>
<pdfrwt beam="1">  1       21 0.64786789E-01 0.45277051E+03</pdfrwt>
<pdfrwt beam="2">  1       21 0.17107715E-01 0.45277051E+03</pdfrwt>
<totfact> 0.62509139E+04</totfact>
</mgrwt>
</event>
<event>
 7    0  0.4737014E-002  0.4630550E+03  0.7546771E-02  0.1023899E+00
         21   -1    0    0  502  501  0.00000000000E+00  0.00000000000E+00  0.22027697124E+04  0.22027697124E+04  0.00000000000E+00 0. -1.
         21   -1    0    0  501  502 -0.00000000000E+00 -0.00000000000E+00 -0.24335268449E+02  0.24335268449E+02  0.00000000000E+00 0. -1.
      99926    2    1    2    0    0  0.14210854715E-13  0.00000000000E+00  0.21784344440E+04  0.22271049809E+04  0.46305503899E+03 0.  0.
      99925    2    3    3    0    0 -0.10957326038E+03 -0.30566648093E+02  0.11700284134E+04  0.12046222915E+04  0.26307367365E+03 0.  0.
         25    1    4    4    0    0 -0.20449677892E+02 -0.20182027348E+02  0.63738804713E+03  0.65018192398E+03  0.12509000000E+03 0.  0.
         25    1    3    3    0    0  0.10957326038E+03  0.30566648093E+02  0.10084060306E+04  0.10224826893E+04  0.12509000000E+03 0.  0.
         25    1    4    4    0    0 -0.89123582488E+02 -0.10384620744E+02  0.53264036626E+03  0.55444036755E+03  0.12509000000E+03 0.  0.
<mgrwt>
<rscale>  2 0.46305504E+03</rscale>
<asrwt>0</asrwt>
<pdfrwt beam="1">  1       21 0.32393659E+00 0.46305504E+03</pdfrwt>
<pdfrwt beam="2">  1       21 0.35787175E-02 0.46305504E+03</pdfrwt>
<totfact> 0.97211508E+03</totfact>
</mgrwt>
</event>
<event>
 7    0  0.4737014E-002  0.4436451E+03  0.7546771E-02  0.1029634E+00
         21   -1    0    0  502  501  0.00000000000E+00  0.00000000000E+00  0.12002915251E+03  0.12002915251E+03  0.00000000000E+00 0.  1.
         21   -1    0    0  501  502 -0.00000000000E+00 -0.00000000000E+00 -0.40994413382E+03  0.40994413382E+03  0.00000000000E+00 0.  1.
      99926    2    1    2    0    0 -0.35527136788E-14  0.00000000000E+00 -0.28991498131E+03  0.52997328633E+03  0.44364511474E+03 0.  0.
      99925    2    3    3    0    0  0.31711564455E+02  0.39063184613E+02 -0.29042534144E+03  0.39514256179E+03  0.26317144502E+03 0.  0.
         25    1    4    4    0    0 -0.12202084334E+02 -0.10025026439E+02 -0.12508265079E+03  0.17760227939E+03  0.12509000000E+03 0.  0.
         25    1    4    4    0    0  0.43913648790E+02  0.49088211052E+02 -0.16534269065E+03  0.21754028240E+03  0.12509000000E+03 0.  0.
         25    1    3    3    0    0 -0.31711564455E+02 -0.39063184613E+02  0.51036012740E+00  0.13483072454E+03  0.12509000000E+03 0.  0.
<mgrwt>
<rscale>  2 0.44364511E+03</rscale>
<asrwt>0</asrwt>
<pdfrwt beam="1">  1       21 0.17651346E-01 0.44364511E+03</pdfrwt>
<pdfrwt beam="2">  1       21 0.60285903E-01 0.44364511E+03</pdfrwt>
<totfact> 0.69225096E+04</totfact>
</mgrwt>
</event>
<event>
 7    0  0.4737014E-002  0.4502615E+03  0.7546771E-02  0.1027644E+00
         21   -1    0    0  502  501  0.00000000000E+00  0.00000000000E+00  0.72559702537E+03  0.72559702537E+03  0.00000000000E+00 0.  1.
         21   -1    0    0  501  502 -0.00000000000E+00 -0.00000000000E+00 -0.69851253510E+02  0.69851253510E+02  0.00000000000E+00 0.  1.
      99926    2    1    2    0    0  0.00000000000E+00 -0.71054273576E-14  0.65574577186E+03  0.79544827888E+03  0.45026153185E+03 0.  0.
      99925    2    3    3    0    0 -0.76365729533E+02 -0.48641491383E+02  0.52028854992E+03  0.59003677383E+03  0.26314539700E+03 0.  0.
         25    1    4    4    0    0 -0.16549130718E+02  0.96250763462E+01  0.20915820251E+03  0.24446099402E+03  0.12509000000E+03 0.  0.
         25    1    4    4    0    0 -0.59816598815E+02 -0.58266567729E+02  0.31113034741E+03  0.34557577981E+03  0.12509000000E+03 0.  0.
         25    1    3    3    0    0  0.76365729533E+02  0.48641491383E+02  0.13545722194E+03  0.20541150505E+03  0.12509000000E+03 0.  0.
<mgrwt>
<rscale>  2 0.45026153E+03</rscale>
<asrwt>0</asrwt>
<pdfrwt beam="1">  1       21 0.10670544E+00 0.45026153E+03</pdfrwt>
<pdfrwt beam="2">  1       21 0.10272244E-01 0.45026153E+03</pdfrwt>
<totfact> 0.49812524E+04</totfact>
</mgrwt>
</event>
<event>
 7    0  0.4737014E-002  0.4495578E+03  0.7546771E-02  0.1027854E+00
         21   -1    0    0  502  501  0.00000000000E+00  0.00000000000E+00  0.26576576509E+03  0.26576576509E+03  0.00000000000E+00 0.  1.
         21   -1    0    0  501  502 -0.00000000000E+00 -0.00000000000E+00 -0.19011311988E+03  0.19011311988E+03  0.00000000000E+00 0.  1.
      99926    2    1    2    0    0  0.00000000000E+00 -0.17763568394E-14  0.75652645211E+02  0.45587888497E+03  0.44955782169E+03 0.  0.
      99925    2    3    3    0    0  0.10486397578E+03 -0.15258325562E+02  0.68820898939E+02  0.29179521494E+03  0.26301874726E+03 0.  0.
         25    1    3    3    0    0 -0.10486397578E+03  0.15258325562E+02  0.68317462720E+01  0.16408367004E+03  0.12509000000E+03 0.  0.
         25    1    4    4    0    0  0.49435659108E+02 -0.47285647878E+02  0.26258798992E+02  0.14497189214E+03  0.12509000000E+03 0.  0.
         25    1    4    4    0    0  0.55428316676E+02  0.32027322316E+02  0.42562099947E+02  0.14682332279E+03  0.12509000000E+03 0.  0.
<mgrwt>
<rscale>  2 0.44955782E+03</rscale>
<asrwt>0</asrwt>
<pdfrwt beam="1">  1       21 0.39083201E-01 0.44955782E+03</pdfrwt>
<pdfrwt beam="2">  1       21 0.27957811E-01 0.44955782E+03</pdfrwt>
<totfact> 0.71536368E+04</totfact>
</mgrwt>
</event>
<event>
 7    0  0.4737014E-002  0.4558798E+03  0.7546771E-02  0.1025983E+00
         21   -1    0    0  502  501  0.00000000000E+00  0.00000000000E+00  0.46152045851E+03  0.46152045851E+03  0.00000000000E+00 0.  1.
         21   -1    0    0  501  502 -0.00000000000E+00 -0.00000000000E+00 -0.11257701710E+03  0.11257701710E+03  0.00000000000E+00 0.  1.
      99926    2    1    2    0    0  0.00000000000E+00  0.00000000000E+00  0.34894344141E+03  0.57409747561E+03  0.45587979359E+03 0.  0.
      99925    2    3    3    0    0 -0.58376056394E+02 -0.84464539380E+02  0.28174834697E+03  0.39886987736E+03  0.26300765326E+03 0.  0.
         25    1    3    3    0    0  0.58376056394E+02  0.84464539380E+02  0.67195094444E+02  0.17522759825E+03  0.12509000000E+03 0.  0.
         25    1    4    4    0    0 -0.17322678267E+02 -0.31677134038E+02  0.18860520657E+03  0.22917885603E+03  0.12509000000E+03 0.  0.
         25    1    4    4    0    0 -0.41053378127E+02 -0.52787405342E+02  0.93143140392E+02  0.16969102133E+03  0.12509000000E+03 0.  0.
<mgrwt>
<rscale>  2 0.45587979E+03</rscale>
<asrwt>0</asrwt>
<pdfrwt beam="1">  1       21 0.67870655E-01 0.45587979E+03</pdfrwt>
<pdfrwt beam="2">  1       21 0.16555444E-01 0.45587979E+03</pdfrwt>
<totfact> 0.59883980E+04</totfact>
</mgrwt>
</event>
<event>
 7    0  0.4737014E-002  0.4538275E+03  0.7546771E-02  0.1026587E+00
         21   -1    0    0  502  501  0.00000000000E+00  0.00000000000E+00  0.34575715059E+02  0.34575715059E+02  0.00000000000E+00 0. -1.
         21   -1    0    0  501  502 -0.00000000000E+00 -0.00000000000E+00 -0.14891909452E+04  0.14891909452E+04  0.00000000000E+00 0. -1.
      99926    2    1    2    0    0  0.00000000000E+00  0.17763568394E-14 -0.14546152302E+04  0.15237666603E+04  0.45382746409E+03 0.  0.
      99925    2    3    3    0    0 -0.16770960969E+02 -0.94253283243E+01 -0.12869823632E+04  0.13137228836E+04  0.26300971411E+03 0.  0.
         25    1    4    4    0    0  0.71125492020E+01 -0.86047616666E+01 -0.82518286750E+03  0.83468491252E+03  0.12509000000E+03 0.  0.
         25    1    4    4    0    0 -0.23883510171E+02 -0.82056665768E+00 -0.46179949567E+03  0.47903797103E+03  0.12509000000E+03 0.  0.
         25    1    3    3    0    0  0.16770960969E+02  0.94253283243E+01 -0.16763286700E+03  0.21004377673E+03  0.12509000000E+03 0.  0.
<mgrwt>
<rscale>  2 0.45382746E+03</rscale>
<asrwt>0</asrwt>
<pdfrwt beam="1">  1       21 0.50846638E-02 0.45382746E+03</pdfrwt>
<pdfrwt beam="2">  1       21 0.21899868E+00 0.45382746E+03</pdfrwt>
<totfact> 0.23415115E+04</totfact>
</mgrwt>
</event>
<event>
 7    0  0.4737014E-002  0.4743997E+03  0.7546771E-02  0.1020686E+00
         21   -1    0    0  502  501  0.00000000000E+00  0.00000000000E+00  0.49434190709E+03  0.49434190709E+03  0.00000000000E+00 0.  1.
         21   -1    0    0  501  502 -0.00000000000E+00 -0.00000000000E+00 -0.11381548656E+03  0.11381548656E+03  0.00000000000E+00 0.  1.
      99926    2    1    2    0    0  0.14210854715E-13 -0.28421709430E-13  0.38052642054E+03  0.60815739365E+03  0.47439968247E+03 0.  0.
      99925    2    3    3    0    0  0.67384559100E+02 -0.11034404093E+03  0.21296493179E+03  0.36231019154E+03  0.26305536784E+03 0.  0.
         25    1    3    3    0    0 -0.67384559100E+02  0.11034404093E+03  0.16756148875E+03  0.24584720211E+03  0.12509000000E+03 0.  0.
         25    1    4    4    0    0  0.13542089164E+02 -0.15059606246E+02  0.85796604151E+02  0.15303184408E+03  0.12509000000E+03 0.  0.
         25    1    4    4    0    0  0.53842469936E+02 -0.95284434681E+02  0.12716832764E+03  0.20927834746E+03  0.12509000000E+03 0.  0.
<mgrwt>
<rscale>  2 0.47439968E+03</rscale>
<asrwt>0</asrwt>
<pdfrwt beam="1">  1       21 0.72697339E-01 0.47439968E+03</pdfrwt>
<pdfrwt beam="2">  1       21 0.16737572E-01 0.47439968E+03</pdfrwt>
<totfact> 0.50054882E+04</totfact>
</mgrwt>
</event>
<event>
 7    0  0.4737014E-002  0.4576879E+03  0.7546771E-02  0.1025454E+00
         21   -1    0    0  502  501  0.00000000000E+00  0.00000000000E+00  0.14227693454E+03  0.14227693454E+03  0.00000000000E+00 0.  1.
         21   -1    0    0  501  502 -0.00000000000E+00 -0.00000000000E+00 -0.36808188571E+03  0.36808188571E+03  0.00000000000E+00 0.  1.
      99926    2    1    2    0    0 -0.14210854715E-13  0.71054273576E-14 -0.22580495117E+03  0.51035882026E+03  0.45768793893E+03 0.  0.
      99925    2    3    3    0    0 -0.96325103111E+02  0.57969754947E+02 -0.17216519115E+03  0.33382624555E+03  0.26298306257E+03 0.  0.
         25    1    4    4    0    0 -0.35394660451E+02 -0.98105471688E+01 -0.65849326009E+02  0.14605708014E+03  0.12509000000E+03 0.  0.
         25    1    4    4    0    0 -0.60930442660E+02  0.67780302116E+02 -0.10631586514E+03  0.18776916541E+03  0.12509000000E+03 0.  0.
         25    1    3    3    0    0  0.96325103111E+02 -0.57969754947E+02 -0.53639760024E+02  0.17653257471E+03  0.12509000000E+03 0.  0.
<mgrwt>
<rscale>  2 0.45768794E+03</rscale>
<asrwt>0</asrwt>
<pdfrwt beam="1">  1       21 0.20923078E-01 0.45768794E+03</pdfrwt>
<pdfrwt beam="2">  1       21 0.54129690E-01 0.45768794E+03</pdfrwt>
<totfact> 0.63190050E+04</totfact>
</mgrwt>
</event>
<event>
 7    0  0.4737014E-002  0.4534623E+03  0.7546771E-02  0.1026695E+00
         21   -1    0    0  502  501  0.00000000000E+00  0.00000000000E+00  0.16978228174E+03  0.16978228174E+03  0.00000000000E+00 0. -1.
         21   -1    0    0  501  502 -0.00000000000E+00 -0.00000000000E+00 -0.30278193756E+03  0.30278193756E+03  0.00000000000E+00 0. -1.
      99926    2    1    2    0    0  0.00000000000E+00  0.00000000000E+00 -0.13299965582E+03  0.47256421931E+03  0.45346227287E+03 0.  0.
      99925    2    3    3    0    0  0.10923328043E+02 -0.15283180391E+02 -0.19864555319E+03  0.33005181059E+03  0.26290919948E+03 0.  0.
         25    1    4    4    0    0  0.12772063964E+02 -0.45061719193E+02 -0.11822761235E+03  0.17837869990E+03  0.12509000000E+03 0.  0.
         25    1    4    4    0    0 -0.18487359214E+01  0.29778538802E+02 -0.80417940834E+02  0.15167311069E+03  0.12509000000E+03 0.  0.
         25    1    3    3    0    0 -0.10923328043E+02  0.15283180391E+02  0.65645897366E+02  0.14251240872E+03  0.12509000000E+03 0.  0.
<mgrwt>
<rscale>  2 0.45346227E+03</rscale>
<asrwt>0</asrwt>
<pdfrwt beam="1">  1       21 0.24967983E-01 0.45346227E+03</pdfrwt>
<pdfrwt beam="2">  1       21 0.44526755E-01 0.45346227E+03</pdfrwt>
<totfact> 0.68072356E+04</totfact>
</mgrwt>
</event>
<event>
 7    0  0.4737014E-002  0.4617634E+03  0.7546771E-02  0.1024271E+00
         21   -1    0    0  502  501  0.00000000000E+00  0.00000000000E+00  0.22799966587E+03  0.22799966587E+03  0.00000000000E+00 0. -1.
         21   -1    0    0  501  502 -0.00000000000E+00 -0.00000000000E+00 -0.23380019373E+03  0.23380019373E+03  0.00000000000E+00 0. -1.
      99926    2    1    2    0    0  0.00000000000E+00  0.00000000000E+00 -0.58005278590E+01  0.46179985961E+03  0.46176342884E+03 0.  0.
      99925    2    3    3    0    0  0.25510691804E+02  0.11089679640E+03 -0.39560595688E+02  0.28935814445E+03  0.26308591787E+03 0.  0.
         25    1    3    3    0    0 -0.25510691804E+02 -0.11089679640E+03  0.33760067829E+02  0.17244171516E+03  0.12509000000E+03 0.  0.
         25    1    4    4    0    0  0.39237575546E+02  0.49037225614E+02 -0.50276344089E+02  0.14872610970E+03  0.12509000000E+03 0.  0.
         25    1    4    4    0    0 -0.13726883742E+02  0.61859570782E+02  0.10715748401E+02  0.14063203475E+03  0.12509000000E+03 0.  0.
<mgrwt>
<rscale>  2 0.46176343E+03</rscale>
<asrwt>0</asrwt>
<pdfrwt beam="1">  1       21 0.33529363E-01 0.46176343E+03</pdfrwt>
<pdfrwt beam="2">  1       21 0.34382382E-01 0.46176343E+03</pdfrwt>
<totfact> 0.64498886E+04</totfact>
</mgrwt>
</event>
<event>
 7    0  0.4737014E-002  0.4523999E+03  0.7546771E-02  0.1027009E+00
         21   -1    0    0  502  501  0.00000000000E+00  0.00000000000E+00  0.55203720366E+03  0.55203720366E+03  0.00000000000E+00 0. -1.
         21   -1    0    0  501  502 -0.00000000000E+00 -0.00000000000E+00 -0.92686525161E+02  0.92686525161E+02  0.00000000000E+00 0. -1.
      99926    2    1    2    0    0  0.00000000000E+00  0.00000000000E+00  0.45935067850E+03  0.64472372882E+03  0.45239986811E+03 0.  0.
      99925    2    3    3    0    0  0.71922054748E+02 -0.83918197393E+02  0.27983590772E+03  0.39959497318E+03  0.26296950684E+03 0.  0.
         25    1    3    3    0    0 -0.71922054748E+02  0.83918197393E+02  0.17951477077E+03  0.24512875563E+03  0.12509000000E+03 0.  0.
         25    1    4    4    0    0  0.66350240521E+02 -0.18306577507E+02  0.12298429374E+03  0.18844131661E+03  0.12509000000E+03 0.  0.
         25    1    4    4    0    0  0.55718142276E+01 -0.65611619886E+02  0.15685161398E+03  0.21115365658E+03  0.12509000000E+03 0.  0.
<mgrwt>
<rscale>  2 0.45239987E+03</rscale>
<asrwt>0</asrwt>
<pdfrwt beam="1">  1       21 0.81181940E-01 0.45239987E+03</pdfrwt>
<pdfrwt beam="2">  1       21 0.13630372E-01 0.45239987E+03</pdfrwt>
<totfact> 0.57170360E+04</totfact>
</mgrwt>
</event>
<event>
 7    0  0.4737014E-002  0.4524320E+03  0.7546771E-02  0.1026999E+00
         21   -1    0    0  502  501  0.00000000000E+00  0.00000000000E+00  0.24849468529E+03  0.24849468529E+03  0.00000000000E+00 0. -1.
         21   -1    0    0  501  502 -0.00000000000E+00 -0.00000000000E+00 -0.20593466963E+03  0.20593466963E+03  0.00000000000E+00 0. -1.
      99926    2    1    2    0    0  0.14210854715E-13 -0.17763568394E-14  0.42560015661E+02  0.45442935492E+03  0.45243196581E+03 0.  0.
      99925    2    3    3    0    0 -0.70344281470E+02  0.15667974449E+02 -0.57805166664E+02  0.27860421087E+03  0.26284038058E+03 0.  0.
         25    1    4    4    0    0 -0.62853391774E+02 -0.20497048167E+02 -0.39512915536E+02  0.14689947731E+03  0.12509000000E+03 0.  0.
         25    1    3    3    0    0  0.70344281470E+02 -0.15667974449E+02  0.10036518233E+03  0.17582514406E+03  0.12509000000E+03 0.  0.
         25    1    4    4    0    0 -0.74908896962E+01  0.36165022616E+02 -0.18292251128E+02  0.13170473355E+03  0.12509000000E+03 0.  0.
<mgrwt>
<rscale>  2 0.45243197E+03</rscale>
<asrwt>0</asrwt>
<pdfrwt beam="1">  1       21 0.36543336E-01 0.45243197E+03</pdfrwt>
<pdfrwt beam="2">  1       21 0.30284510E-01 0.45243197E+03</pdfrwt>
<totfact> 0.70011149E+04</totfact>
</mgrwt>
</event>
<event>
 7    0  0.4737014E-002  0.4508727E+03  0.7546771E-02  0.1027462E+00
         21   -1    0    0  502  501  0.00000000000E+00  0.00000000000E+00  0.24346862511E+03  0.24346862511E+03  0.00000000000E+00 0. -1.
         21   -1    0    0  501  502 -0.00000000000E+00 -0.00000000000E+00 -0.20873959349E+03  0.20873959349E+03  0.00000000000E+00 0. -1.
      99926    2    1    2    0    0  0.00000000000E+00  0.00000000000E+00  0.34729031625E+02  0.45220821860E+03  0.45087267308E+03 0.  0.
      99925    2    3    3    0    0 -0.81808755460E+02  0.16532407587E+02 -0.48775848525E+02  0.28020075923E+03  0.26299693744E+03 0.  0.
         25    1    4    4    0    0 -0.58260662526E+02 -0.11604057993E+02  0.64412285939E+01  0.13862884435E+03  0.12509000000E+03 0.  0.
         25    1    3    3    0    0  0.81808755460E+02 -0.16532407587E+02  0.83504880150E+02  0.17200745937E+03  0.12509000000E+03 0.  0.
         25    1    4    4    0    0 -0.23548092933E+02  0.28136465580E+02 -0.55217077119E+02  0.14157191488E+03  0.12509000000E+03 0.  0.
<mgrwt>
<rscale>  2 0.45087267E+03</rscale>
<asrwt>0</asrwt>
<pdfrwt beam="1">  1       21 0.35804210E-01 0.45087267E+03</pdfrwt>
<pdfrwt beam="2">  1       21 0.30696999E-01 0.45087267E+03</pdfrwt>
<totfact> 0.71062299E+04</totfact>
</mgrwt>
</event>
<event>
 7    0  0.4737014E-002  0.4538694E+03  0.7546771E-02  0.1026574E+00
         21   -1    0    0  502  501  0.00000000000E+00  0.00000000000E+00  0.13698050683E+03  0.13698050683E+03  0.00000000000E+00 0. -1.
         21   -1    0    0  501  502 -0.00000000000E+00 -0.00000000000E+00 -0.37596126318E+03  0.37596126318E+03  0.00000000000E+00 0. -1.
      99926    2    1    2    0    0  0.00000000000E+00  0.35527136788E-14 -0.23898075635E+03  0.51294177001E+03  0.45386942782E+03 0.  0.
      99925    2    3    3    0    0  0.82854016915E+02  0.25523194200E+02 -0.70254719366E+02  0.28571455945E+03  0.26302255098E+03 0.  0.
         25    1    3    3    0    0 -0.82854016915E+02 -0.25523194200E+02 -0.16872603698E+03  0.22722721056E+03  0.12509000000E+03 0.  0.
         25    1    4    4    0    0  0.55127010965E+01 -0.57083937573E+01 -0.18453197749E+02  0.12669255795E+03  0.12509000000E+03 0.  0.
         25    1    4    4    0    0  0.77341315818E+02  0.31231587958E+02 -0.51801521617E+02  0.15902200150E+03  0.12509000000E+03 0.  0.
<mgrwt>
<rscale>  2 0.45386943E+03</rscale>
<asrwt>0</asrwt>
<pdfrwt beam="1">  1       21 0.20144192E-01 0.45386943E+03</pdfrwt>
<pdfrwt beam="2">  1       21 0.55288421E-01 0.45386943E+03</pdfrwt>
<totfact> 0.64951460E+04</totfact>
</mgrwt>
</event>
<event>
 7    0  0.4737014E-002  0.4262066E+03  0.7546771E-02  0.1035065E+00
         21   -1    0    0  502  501  0.00000000000E+00  0.00000000000E+00  0.41190536821E+02  0.41190536821E+02  0.00000000000E+00 0.  1.
         21   -1    0    0  501  502 -0.00000000000E+00 -0.00000000000E+00 -0.11025107699E+04  0.11025107699E+04  0.00000000000E+00 0.  1.
      99926    2    1    2    0    0  0.71054273576E-14  0.00000000000E+00 -0.10613202331E+04  0.11437013067E+04  0.42620657181E+03 0.  0.
      99925    2    3    3    0    0 -0.59206689170E+02  0.20609960859E+02 -0.53970156431E+03  0.60364228566E+03  0.26301336084E+03 0.  0.
         25    1    4    4    0    0 -0.39148289793E+02 -0.14367661958E+02 -0.20157649091E+03  0.24087259722E+03  0.12509000000E+03 0.  0.
         25    1    4    4    0    0 -0.20058399378E+02  0.34977622817E+02 -0.33812507341E+03  0.36276968844E+03  0.12509000000E+03 0.  0.
         25    1    3    3    0    0  0.59206689170E+02 -0.20609960859E+02 -0.52161866875E+03  0.54005902105E+03  0.12509000000E+03 0.  0.
<mgrwt>
<rscale>  2 0.42620657E+03</rscale>
<asrwt>0</asrwt>
<pdfrwt beam="1">  1       21 0.60574327E-02 0.42620657E+03</pdfrwt>
<pdfrwt beam="2">  1       21 0.16213391E+00 0.42620657E+03</pdfrwt>
<totfact> 0.42826860E+04</totfact>
</mgrwt>
</event>
<event>
 7    0  0.4737014E-002  0.4554651E+03  0.7546771E-02  0.1026105E+00
         21   -1    0    0  502  501  0.00000000000E+00  0.00000000000E+00  0.96566484289E+03  0.96566484289E+03  0.00000000000E+00 0.  1.
         21   -1    0    0  501  502 -0.00000000000E+00 -0.00000000000E+00 -0.53706128418E+02  0.53706128418E+02  0.00000000000E+00 0.  1.
      99926    2    1    2    0    0  0.00000000000E+00  0.00000000000E+00  0.91195871447E+03  0.10193709713E+04  0.45546512517E+03 0.  0.
      99925    2    3    3    0    0  0.83037730111E+02  0.75103702038E+02  0.53081020956E+03  0.60288865286E+03  0.26301980628E+03 0.  0.
         25    1    4    4    0    0  0.57230246465E+02  0.69212593125E+02  0.33941499276E+03  0.37271400506E+03  0.12509000000E+03 0.  0.
         25    1    3    3    0    0 -0.83037730111E+02 -0.75103702038E+02  0.38114850491E+03  0.41648231845E+03  0.12509000000E+03 0.  0.
         25    1    4    4    0    0  0.25807483645E+02  0.58911089137E+01  0.19139521679E+03  0.23017464780E+03  0.12509000000E+03 0.  0.
<mgrwt>
<rscale>  2 0.45546513E+03</rscale>
<asrwt>0</asrwt>
<pdfrwt beam="1">  1       21 0.14200953E+00 0.45546513E+03</pdfrwt>
<pdfrwt beam="2">  1       21 0.78979606E-02 0.45546513E+03</pdfrwt>
<totfact> 0.38282478E+04</totfact>
</mgrwt>
</event>
<event>
 7    0  0.4737014E-002  0.4282363E+03  0.7546771E-02  0.1034419E+00
         21   -1    0    0  502  501  0.00000000000E+00  0.00000000000E+00  0.11131882586E+04  0.11131882586E+04  0.00000000000E+00 0. -1.
         21   -1    0    0  501  502 -0.00000000000E+00 -0.00000000000E+00 -0.41184932086E+02  0.41184932086E+02  0.00000000000E+00 0. -1.
      99926    2    1    2    0    0  0.00000000000E+00  0.00000000000E+00  0.10720033265E+04  0.11543731906E+04  0.42823630312E+03 0.  0.
      99925    2    3    3    0    0  0.45010504465E+02 -0.34601099698E+02  0.86576405188E+03  0.90657220578E+03  0.26287371334E+03 0.  0.
         25    1    4    4    0    0  0.10838305501E+02 -0.54801728385E+02  0.47479966222E+03  0.49416892420E+03  0.12509000000E+03 0.  0.
         25    1    4    4    0    0  0.34172198964E+02  0.20200628687E+02  0.39096438966E+03  0.41240328159E+03  0.12509000000E+03 0.  0.
         25    1    3    3    0    0 -0.45010504465E+02  0.34601099698E+02  0.20623927459E+03  0.24780098486E+03  0.12509000000E+03 0.  0.
<mgrwt>
<rscale>  2 0.42823630E+03</rscale>
<asrwt>0</asrwt>
<pdfrwt beam="1">  1       21 0.16370414E+00 0.42823630E+03</pdfrwt>
<pdfrwt beam="2">  1       21 0.60566083E-02 0.42823630E+03</pdfrwt>
<totfact> 0.41673283E+04</totfact>
</mgrwt>
</event>
<event>
 7    0  0.4737014E-002  0.4481146E+03  0.7546771E-02  0.1028286E+00
         21   -1    0    0  502  501  0.00000000000E+00  0.00000000000E+00  0.70156286534E+03  0.70156286534E+03  0.00000000000E+00 0. -1.
         21   -1    0    0  501  502 -0.00000000000E+00 -0.00000000000E+00 -0.71556921135E+02  0.71556921135E+02  0.00000000000E+00 0. -1.
      99926    2    1    2    0    0  0.00000000000E+00  0.00000000000E+00  0.63000594420E+03  0.77311978647E+03  0.44811462206E+03 0.  0.
      99925    2    3    3    0    0  0.69324794080E+02 -0.79423780836E+02  0.37328922100E+03  0.46871044347E+03  0.26311703340E+03 0.  0.
         25    1    4    4    0    0 -0.69048222922E+01 -0.34808683799E+02  0.16080275744E+03  0.20679544468E+03  0.12509000000E+03 0.  0.
         25    1    3    3    0    0 -0.69324794080E+02  0.79423780836E+02  0.25671672320E+03  0.30440934300E+03  0.12509000000E+03 0.  0.
         25    1    4    4    0    0  0.76229616372E+02 -0.44615097037E+02  0.21248646356E+03  0.26191499880E+03  0.12509000000E+03 0.  0.
<mgrwt>
<rscale>  2 0.44811462E+03</rscale>
<asrwt>0</asrwt>
<pdfrwt beam="1">  1       21 0.10317101E+00 0.44811462E+03</pdfrwt>
<pdfrwt beam="2">  1       21 0.10523077E-01 0.44811462E+03</pdfrwt>
<totfact> 0.51838002E+04</totfact>
</mgrwt>
</event>
<event>
 7    0  0.4737014E-002  0.4577335E+03  0.7546771E-02  0.1025441E+00
         21   -1    0    0  502  501  0.00000000000E+00  0.00000000000E+00  0.53008211989E+03  0.53008211989E+03  0.00000000000E+00 0.  1.
         21   -1    0    0  501  502 -0.00000000000E+00 -0.00000000000E+00 -0.98814850413E+02  0.98814850413E+02  0.00000000000E+00 0.  1.
      99926    2    1    2    0    0  0.00000000000E+00  0.00000000000E+00  0.43126726948E+03  0.62889697031E+03  0.45773348308E+03 0.  0.
      99925    2    3    3    0    0 -0.97388486493E+02  0.54372519374E+02  0.31275177992E+03  0.42363051535E+03  0.26307460829E+03 0.  0.
         25    1    3    3    0    0  0.97388486493E+02 -0.54372519374E+02  0.11851548956E+03  0.20526645495E+03  0.12509000000E+03 0.  0.
         25    1    4    4    0    0 -0.92523166449E+01  0.14516760420E+02  0.11860375791E+03  0.17323596967E+03  0.12509000000E+03 0.  0.
         25    1    4    4    0    0 -0.88136169848E+02  0.39855758954E+02  0.19414802201E+03  0.25039454568E+03  0.12509000000E+03 0.  0.
<mgrwt>
<rscale>  2 0.45773348E+03</rscale>
<asrwt>0</asrwt>
<pdfrwt beam="1">  1       21 0.77953252E-01 0.45773348E+03</pdfrwt>
<pdfrwt beam="2">  1       21 0.14531596E-01 0.45773348E+03</pdfrwt>
<totfact> 0.55721708E+04</totfact>
</mgrwt>
</event>
<event>
 7    0  0.4737014E-002  0.4556733E+03  0.7546771E-02  0.1026044E+00
         21   -1    0    0  502  501  0.00000000000E+00  0.00000000000E+00  0.58486008845E+03  0.58486008845E+03  0.00000000000E+00 0.  1.
         21   -1    0    0  501  502 -0.00000000000E+00 -0.00000000000E+00 -0.88755490668E+02  0.88755490668E+02  0.00000000000E+00 0.  1.
      99926    2    1    2    0    0 -0.71054273576E-14  0.00000000000E+00  0.49610459778E+03  0.67361557912E+03  0.45567332212E+03 0.  0.
      99925    2    3    3    0    0 -0.52025066858E+02 -0.96799565116E+01  0.46082296760E+03  0.53328521651E+03  0.26312545591E+03 0.  0.
         25    1    4    4    0    0 -0.66291728094E+02 -0.48238278316E+00  0.22595714575E+03  0.26664389309E+03  0.12509000000E+03 0.  0.
         25    1    4    4    0    0  0.14266661237E+02 -0.91975737285E+01  0.23486582184E+03  0.26664132342E+03  0.12509000000E+03 0.  0.
         25    1    3    3    0    0  0.52025066858E+02  0.96799565116E+01  0.35281630184E+02  0.14033036260E+03  0.12509000000E+03 0.  0.
<mgrwt>
<rscale>  2 0.45567332E+03</rscale>
<asrwt>0</asrwt>
<pdfrwt beam="1">  1       21 0.86008835E-01 0.45567332E+03</pdfrwt>
<pdfrwt beam="2">  1       21 0.13052278E-01 0.45567332E+03</pdfrwt>
<totfact> 0.54071769E+04</totfact>
</mgrwt>
</event>
<event>
 7    0  0.4737014E-002  0.4419647E+03  0.7546771E-02  0.1030146E+00
         21   -1    0    0  502  501  0.00000000000E+00  0.00000000000E+00  0.48657810110E+03  0.48657810110E+03  0.00000000000E+00 0.  1.
         21   -1    0    0  501  502 -0.00000000000E+00 -0.00000000000E+00 -0.10036046005E+03  0.10036046005E+03  0.00000000000E+00 0.  1.
      99926    2    1    2    0    0  0.00000000000E+00  0.22204460493E-15  0.38621764105E+03  0.58693856115E+03  0.44196471387E+03 0.  0.
      99925    2    3    3    0    0  0.82271928361E+02  0.79130120401E+00  0.32256831914E+03  0.42424854721E+03  0.26299660254E+03 0.  0.
         25    1    3    3    0    0 -0.82271928361E+02 -0.79130120401E+00  0.63649321908E+02  0.16269001393E+03  0.12509000000E+03 0.  0.
         25    1    4    4    0    0 -0.11222231405E+01  0.45599425733E+01  0.14611471765E+03  0.19240340765E+03  0.12509000000E+03 0.  0.
         25    1    4    4    0    0  0.83394151501E+02 -0.37686413693E+01  0.17645360149E+03  0.23184513957E+03  0.12509000000E+03 0.  0.
<mgrwt>
<rscale>  2 0.44196471E+03</rscale>
<asrwt>0</asrwt>
<pdfrwt beam="1">  1       21 0.71555602E-01 0.44196471E+03</pdfrwt>
<pdfrwt beam="2">  1       21 0.14758891E-01 0.44196471E+03</pdfrwt>
<totfact> 0.66034483E+04</totfact>
</mgrwt>
</event>
<event>
 7    0  0.4737014E-002  0.4292967E+03  0.7546771E-02  0.1034082E+00
         21   -1    0    0  502  501  0.00000000000E+00  0.00000000000E+00  0.60469645057E+03  0.60469645057E+03  0.00000000000E+00 0. -1.
         21   -1    0    0  501  502 -0.00000000000E+00 -0.00000000000E+00 -0.76193452431E+02  0.76193452431E+02  0.00000000000E+00 0. -1.
      99926    2    1    2    0    0  0.17763568394E-14  0.00000000000E+00  0.52850299814E+03  0.68088990300E+03  0.42929668176E+03 0.  0.
      99925    2    3    3    0    0  0.43883516068E+01  0.86723522284E+02  0.33536296609E+03  0.43494111356E+03  0.26299282556E+03 0.  0.
         25    1    4    4    0    0 -0.23732142447E+02  0.17948879446E+02  0.18879314088E+03  0.22842008450E+03  0.12509000000E+03 0.  0.
         25    1    3    3    0    0 -0.43883516068E+01 -0.86723522284E+02  0.19314003205E+03  0.24594878944E+03  0.12509000000E+03 0.  0.
         25    1    4    4    0    0  0.28120494053E+02  0.68774642838E+02  0.14656982521E+03  0.20652102906E+03  0.12509000000E+03 0.  0.
<mgrwt>
<rscale>  2 0.42929668E+03</rscale>
<asrwt>0</asrwt>
<pdfrwt beam="1">  1       21 0.88925946E-01 0.42929668E+03</pdfrwt>
<pdfrwt beam="2">  1       21 0.11204920E-01 0.42929668E+03</pdfrwt>
<totfact> 0.66406199E+04</totfact>
</mgrwt>
</event>
<event>
 7    0  0.4737014E-002  0.4669167E+03  0.7546771E-02  0.1022794E+00
         21   -1    0    0  502  501  0.00000000000E+00  0.00000000000E+00  0.33542684093E+03  0.33542684093E+03  0.00000000000E+00 0. -1.
         21   -1    0    0  501  502 -0.00000000000E+00 -0.00000000000E+00 -0.16248789660E+03  0.16248789660E+03  0.00000000000E+00 0. -1.
      99926    2    1    2    0    0  0.00000000000E+00  0.71054273576E-14  0.17293894433E+03  0.49791473753E+03  0.46691670283E+03 0.  0.
      99925    2    3    3    0    0  0.11514749446E+03  0.40907086526E+02  0.94198224780E+02  0.30613375770E+03  0.26440922231E+03 0.  0.
         25    1    4    4    0    0  0.33898076931E+02  0.43978501555E+02  0.16295739094E+02  0.13782687485E+03  0.12509000000E+03 0.  0.
         25    1    3    3    0    0 -0.11514749446E+03 -0.40907086526E+02  0.78740719555E+02  0.19178097983E+03  0.12509000000E+03 0.  0.
         25    1    4    4    0    0  0.81249417527E+02 -0.30714150292E+01  0.77902485686E+02  0.16830688285E+03  0.12509000000E+03 0.  0.
<mgrwt>
<rscale>  2 0.46691670E+03</rscale>
<asrwt>0</asrwt>
<pdfrwt beam="1">  1       21 0.49327477E-01 0.46691670E+03</pdfrwt>
<pdfrwt beam="2">  1       21 0.23895279E-01 0.46691670E+03</pdfrwt>
<totfact> 0.59578531E+04</totfact>
</mgrwt>
</event>
<event>
 7    0  0.4737014E-002  0.4522836E+03  0.7546771E-02  0.1027043E+00
         21   -1    0    0  502  501  0.00000000000E+00  0.00000000000E+00  0.58550374212E+03  0.58550374212E+03  0.00000000000E+00 0.  1.
         21   -1    0    0  501  502 -0.00000000000E+00 -0.00000000000E+00 -0.87343777835E+02  0.87343777835E+02  0.00000000000E+00 0.  1.
      99926    2    1    2    0    0  0.11102230246E-14  0.00000000000E+00  0.49815996428E+03  0.67284751995E+03  0.45228357818E+03 0.  0.
      99925    2    3    3    0    0 -0.12445766397E+01  0.65060454474E+01  0.14995662854E+03  0.30279759261E+03  0.26297436007E+03 0.  0.
         25    1    4    4    0    0 -0.23977686646E+02 -0.29199976108E+02  0.67020113885E+02  0.14685629652E+03  0.12509000000E+03 0.  0.
         25    1    3    3    0    0  0.12445766397E+01 -0.65060454474E+01  0.34820333575E+03  0.37004992734E+03  0.12509000000E+03 0.  0.
         25    1    4    4    0    0  0.22733110006E+02  0.35706021555E+02  0.82936514651E+02  0.15594129610E+03  0.12509000000E+03 0.  0.
<mgrwt>
<rscale>  2 0.45228358E+03</rscale>
<asrwt>0</asrwt>
<pdfrwt beam="1">  1       21 0.86103489E-01 0.45228358E+03</pdfrwt>
<pdfrwt beam="2">  1       21 0.12844674E-01 0.45228358E+03</pdfrwt>
<totfact> 0.55582544E+04</totfact>
</mgrwt>
</event>
<event>
 7    0  0.4737014E-002  0.4561800E+03  0.7546771E-02  0.1025895E+00
         21   -1    0    0  502  501  0.00000000000E+00  0.00000000000E+00  0.37263953760E+03  0.37263953760E+03  0.00000000000E+00 0. -1.
         21   -1    0    0  501  502 -0.00000000000E+00 -0.00000000000E+00 -0.13961228527E+03  0.13961228527E+03  0.00000000000E+00 0. -1.
      99926    2    1    2    0    0  0.00000000000E+00  0.00000000000E+00  0.23302725233E+03  0.51225182288E+03  0.45618004090E+03 0.  0.
      99925    2    3    3    0    0  0.45500927492E+02 -0.24311731166E+02  0.32007445100E+02  0.26993412713E+03  0.26301817765E+03 0.  0.
         25    1    4    4    0    0  0.53303952921E+02 -0.39888501299E+02  0.18897714206E+02  0.14295816044E+03  0.12509000000E+03 0.  0.
         25    1    4    4    0    0 -0.78030254289E+01  0.15576770133E+02  0.13109730894E+02  0.12697596669E+03  0.12509000000E+03 0.  0.
         25    1    3    3    0    0 -0.45500927492E+02  0.24311731166E+02  0.20101980723E+03  0.24231769575E+03  0.12509000000E+03 0.  0.
<mgrwt>
<rscale>  2 0.45618004E+03</rscale>
<asrwt>0</asrwt>
<pdfrwt beam="1">  1       21 0.54799932E-01 0.45618004E+03</pdfrwt>
<pdfrwt beam="2">  1       21 0.20531219E-01 0.45618004E+03</pdfrwt>
<totfact> 0.63818483E+04</totfact>
</mgrwt>
</event>
<event>
 7    0  0.4737014E-002  0.4452859E+03  0.7546771E-02  0.1029137E+00
         21   -1    0    0  502  501  0.00000000000E+00  0.00000000000E+00  0.10396537011E+04  0.10396537011E+04  0.00000000000E+00 0. -1.
         21   -1    0    0  501  502 -0.00000000000E+00 -0.00000000000E+00 -0.47679226955E+02  0.47679226955E+02  0.00000000000E+00 0. -1.
      99926    2    1    2    0    0  0.00000000000E+00  0.35527136788E-14  0.99197447415E+03  0.10873329281E+04  0.44528590712E+03 0.  0.
      99925    2    3    3    0    0  0.53317452237E+02  0.17927964965E+02  0.41652454342E+03  0.49576358004E+03  0.26291570775E+03 0.  0.
         25    1    3    3    0    0 -0.53317452237E+02 -0.17927964965E+02  0.57544993073E+03  0.59156934802E+03  0.12509000000E+03 0.  0.
         25    1    4    4    0    0 -0.60156410475E+01  0.30689068287E+02  0.18032216450E+03  0.22167904267E+03  0.12509000000E+03 0.  0.
         25    1    4    4    0    0  0.59333093285E+02 -0.12761103322E+02  0.23620237891E+03  0.27408453736E+03  0.12509000000E+03 0.  0.
<mgrwt>
<rscale>  2 0.44528591E+03</rscale>
<asrwt>0</asrwt>
<pdfrwt beam="1">  1       21 0.15289024E+00 0.44528591E+03</pdfrwt>
<pdfrwt beam="2">  1       21 0.70116517E-02 0.44528591E+03</pdfrwt>
<totfact> 0.38794466E+04</totfact>
</mgrwt>
</event>
<event>
 7    0  0.4737014E-002  0.4573885E+03  0.7546771E-02  0.1025541E+00
         21   -1    0    0  502  501  0.00000000000E+00  0.00000000000E+00  0.14427474629E+03  0.14427474629E+03  0.00000000000E+00 0. -1.
         21   -1    0    0  501  502 -0.00000000000E+00 -0.00000000000E+00 -0.36251008047E+03  0.36251008047E+03  0.00000000000E+00 0. -1.
      99926    2    1    2    0    0  0.00000000000E+00  0.35527136788E-14 -0.21823533418E+03  0.50678482676E+03  0.45738845585E+03 0.  0.
      99925    2    3    3    0    0 -0.96910534326E+02 -0.19619372568E+02 -0.68793778580E+02  0.28825140120E+03  0.26187728974E+03 0.  0.
         25    1    3    3    0    0  0.96910534326E+02  0.19619372568E+02 -0.14944155560E+03  0.21853342555E+03  0.12509000000E+03 0.  0.
         25    1    4    4    0    0 -0.77565310996E+02 -0.32983250976E+02 -0.20992435697E+02  0.15229071794E+03  0.12509000000E+03 0.  0.
         25    1    4    4    0    0 -0.19345223330E+02  0.13363878408E+02 -0.47801342882E+02  0.13596068326E+03  0.12509000000E+03 0.  0.
<mgrwt>
<rscale>  2 0.45738846E+03</rscale>
<asrwt>0</asrwt>
<pdfrwt beam="1">  1       21 0.21216875E-01 0.45738846E+03</pdfrwt>
<pdfrwt beam="2">  1       21 0.53310305E-01 0.45738846E+03</pdfrwt>
<totfact> 0.63582632E+04</totfact>
</mgrwt>
</event>
<event>
 7    0  0.4737014E-002  0.4380586E+03  0.7546771E-02  0.1031344E+00
         21   -1    0    0  502  501  0.00000000000E+00  0.00000000000E+00  0.80952124361E+02  0.80952124361E+02  0.00000000000E+00 0.  1.
         21   -1    0    0  501  502 -0.00000000000E+00 -0.00000000000E+00 -0.59261980588E+03  0.59261980588E+03  0.00000000000E+00 0.  1.
      99926    2    1    2    0    0  0.00000000000E+00  0.00000000000E+00 -0.51166768152E+03  0.67357193024E+03  0.43805859071E+03 0.  0.
      99925    2    3    3    0    0  0.86879538095E+02  0.37701150446E+02 -0.29729047797E+03  0.40791326883E+03  0.26275877855E+03 0.  0.
         25    1    4    4    0    0  0.48876981940E+02 -0.11471097590E+02 -0.10829067229E+03  0.17290148423E+03  0.12509000000E+03 0.  0.
         25    1    4    4    0    0  0.38002556155E+02  0.49172248036E+02 -0.18899980569E+03  0.23501178460E+03  0.12509000000E+03 0.  0.
         25    1    3    3    0    0 -0.86879538095E+02 -0.37701150446E+02 -0.21437720355E+03  0.26565866142E+03  0.12509000000E+03 0.  0.
<mgrwt>
<rscale>  2 0.43805859E+03</rscale>
<asrwt>0</asrwt>
<pdfrwt beam="1">  1       21 0.11904724E-01 0.43805859E+03</pdfrwt>
<pdfrwt beam="2">  1       21 0.87149970E-01 0.43805859E+03</pdfrwt>
<totfact> 0.62262594E+04</totfact>
</mgrwt>
</event>
<event>
 7    0  0.4737014E-002  0.4927041E+03  0.7546771E-02  0.1015701E+00
         21   -1    0    0  502  501  0.00000000000E+00  0.00000000000E+00  0.12286323147E+03  0.12286323147E+03  0.00000000000E+00 0.  1.
         21   -1    0    0  501  502 -0.00000000000E+00 -0.00000000000E+00 -0.49395853075E+03  0.49395853075E+03  0.00000000000E+00 0.  1.
      99926    2    1    2    0    0 -0.66613381478E-15 -0.71054273576E-14 -0.37109529927E+03  0.61682176222E+03  0.49270413557E+03 0.  0.
      99925    2    3    3    0    0 -0.57533085090E+00  0.56551747150E+02 -0.58284492760E+02  0.27521300958E+03  0.26295757725E+03 0.  0.
         25    1    4    4    0    0  0.19253233046E+02  0.39251956002E+02 -0.64210724019E+02  0.14724784620E+03  0.12509000000E+03 0.  0.
         25    1    4    4    0    0 -0.19828563897E+02  0.17299791147E+02  0.59262312585E+01  0.12796516337E+03  0.12509000000E+03 0.  0.
         25    1    3    3    0    0  0.57533085090E+00 -0.56551747150E+02 -0.31281080651E+03  0.34160875264E+03  0.12509000000E+03 0.  0.
<mgrwt>
<rscale>  2 0.49270414E+03</rscale>
<asrwt>0</asrwt>
<pdfrwt beam="1">  1       21 0.18068122E-01 0.49270414E+03</pdfrwt>
<pdfrwt beam="2">  1       21 0.72640961E-01 0.49270414E+03</pdfrwt>
<totfact> 0.43257961E+04</totfact>
</mgrwt>
</event>
<event>
 7    0  0.4737014E-002  0.4635955E+03  0.7546771E-02  0.1023744E+00
         21   -1    0    0  502  501  0.00000000000E+00  0.00000000000E+00  0.39078820590E+03  0.39078820590E+03  0.00000000000E+00 0.  1.
         21   -1    0    0  501  502 -0.00000000000E+00 -0.00000000000E+00 -0.13749185982E+03  0.13749185982E+03  0.00000000000E+00 0.  1.
      99926    2    1    2    0    0 -0.71054273576E-14  0.14210854715E-13  0.25329634608E+03  0.52828006572E+03  0.46359550138E+03 0.  0.
      99925    2    3    3    0    0 -0.53986815031E+02  0.80232779254E+02  0.24130140490E+03  0.36971379636E+03  0.26288790035E+03 0.  0.
         25    1    4    4    0    0 -0.38542301668E+02  0.80369487411E+02  0.14318534630E+03  0.20998646389E+03  0.12509000000E+03 0.  0.
         25    1    4    4    0    0 -0.15444513363E+02 -0.13670815659E+00  0.98116058605E+02  0.15972733247E+03  0.12509000000E+03 0.  0.
         25    1    3    3    0    0  0.53986815031E+02 -0.80232779254E+02  0.11994941178E+02  0.15856626936E+03  0.12509000000E+03 0.  0.
<mgrwt>
<rscale>  2 0.46359550E+03</rscale>
<asrwt>0</asrwt>
<pdfrwt beam="1">  1       21 0.57468853E-01 0.46359550E+03</pdfrwt>
<pdfrwt beam="2">  1       21 0.20219391E-01 0.46359550E+03</pdfrwt>
<totfact> 0.59186017E+04</totfact>
</mgrwt>
</event>
<event>
 7    0  0.4737014E-002  0.4568753E+03  0.7546771E-02  0.1025691E+00
         21   -1    0    0  502  501  0.00000000000E+00  0.00000000000E+00  0.16599356630E+03  0.16599356630E+03  0.00000000000E+00 0.  1.
         21   -1    0    0  501  502 -0.00000000000E+00 -0.00000000000E+00 -0.31437217042E+03  0.31437217042E+03  0.00000000000E+00 0.  1.
      99926    2    1    2    0    0  0.71054273576E-14  0.11102230246E-14 -0.14837860412E+03  0.48036573671E+03  0.45687529026E+03 0.  0.
      99925    2    3    3    0    0 -0.40528096353E+02 -0.34134451423E+00  0.19899746716E+02  0.26680601540E+03  0.26295780426E+03 0.  0.
         25    1    3    3    0    0  0.40528096353E+02  0.34134451423E+00 -0.16827835083E+03  0.21355972132E+03  0.12509000000E+03 0.  0.
         25    1    4    4    0    0 -0.66695229038E+01 -0.19100918284E+02  0.43058965870E+02  0.13383164894E+03  0.12509000000E+03 0.  0.
         25    1    4    4    0    0 -0.33858573449E+02  0.18759573770E+02 -0.23159219154E+02  0.13297436646E+03  0.12509000000E+03 0.  0.
<mgrwt>
<rscale>  2 0.45687529E+03</rscale>
<asrwt>0</asrwt>
<pdfrwt beam="1">  1       21 0.24410819E-01 0.45687529E+03</pdfrwt>
<pdfrwt beam="2">  1       21 0.46231201E-01 0.45687529E+03</pdfrwt>
<totfact> 0.65690248E+04</totfact>
</mgrwt>
</event>
<event>
 7    0  0.4737014E-002  0.4605524E+03  0.7546771E-02  0.1024621E+00
         21   -1    0    0  502  501  0.00000000000E+00  0.00000000000E+00  0.53387072740E+02  0.53387072740E+02  0.00000000000E+00 0.  1.
         21   -1    0    0  501  502 -0.00000000000E+00 -0.00000000000E+00 -0.99325783838E+03  0.99325783838E+03  0.00000000000E+00 0.  1.
      99926    2    1    2    0    0 -0.14210854715E-13 -0.71054273576E-14 -0.93987076564E+03  0.10466449111E+04  0.46055240078E+03 0.  0.
      99925    2    3    3    0    0  0.11323267002E+03  0.33178533030E+02 -0.60785420086E+03  0.67273989644E+03  0.26300149457E+03 0.  0.
         25    1    3    3    0    0 -0.11323267002E+03 -0.33178533030E+02 -0.33201656478E+03  0.37390501468E+03  0.12509000000E+03 0.  0.
         25    1    4    4    0    0  0.93122520503E+02  0.10837926591E+02 -0.28237685306E+03  0.32275913577E+03  0.12509000000E+03 0.  0.
         25    1    4    4    0    0  0.20110149517E+02  0.22340606439E+02 -0.32547734779E+03  0.34998076067E+03  0.12509000000E+03 0.  0.
<mgrwt>
<rscale>  2 0.46055240E+03</rscale>
<asrwt>0</asrwt>
<pdfrwt beam="1">  1       21 0.78510403E-02 0.46055240E+03</pdfrwt>
<pdfrwt beam="2">  1       21 0.14606732E+00 0.46055240E+03</pdfrwt>
<totfact> 0.35822821E+04</totfact>
</mgrwt>
</event>
<event>
 7    0  0.4737014E-002  0.4232487E+03  0.7546771E-02  0.1036014E+00
         21   -1    0    0  502  501  0.00000000000E+00  0.00000000000E+00  0.37685828249E+03  0.37685828249E+03  0.00000000000E+00 0. -1.
         21   -1    0    0  501  502 -0.00000000000E+00 -0.00000000000E+00 -0.11883739770E+03  0.11883739770E+03  0.00000000000E+00 0. -1.
      99926    2    1    2    0    0  0.00000000000E+00  0.66613381478E-15  0.25802088479E+03  0.49569568019E+03  0.42324866257E+03 0.  0.
      99925    2    3    3    0    0  0.56301867101E+02  0.18965009438E+01  0.23419283260E+03  0.35645207665E+03  0.26275140942E+03 0.  0.
         25    1    4    4    0    0  0.10248950839E+02  0.34870362547E+02  0.97617658981E+02  0.16278113718E+03  0.12509000000E+03 0.  0.
         25    1    4    4    0    0  0.46052916262E+02 -0.32973861603E+02  0.13657517362E+03  0.19367093947E+03  0.12509000000E+03 0.  0.
         25    1    3    3    0    0 -0.56301867101E+02 -0.18965009438E+01  0.23828052192E+02  0.13924360354E+03  0.12509000000E+03 0.  0.
<mgrwt>
<rscale>  2 0.42324866E+03</rscale>
<asrwt>0</asrwt>
<pdfrwt beam="1">  1       21 0.55420336E-01 0.42324866E+03</pdfrwt>
<pdfrwt beam="2">  1       21 0.17476088E-01 0.42324866E+03</pdfrwt>
<totfact> 0.85062320E+04</totfact>
</mgrwt>
</event>
<event>
 7    0  0.4737014E-002  0.4518099E+03  0.7546771E-02  0.1027184E+00
         21   -1    0    0  502  501  0.00000000000E+00  0.00000000000E+00  0.48539311917E+03  0.48539311917E+03  0.00000000000E+00 0.  1.
         21   -1    0    0  501  502 -0.00000000000E+00 -0.00000000000E+00 -0.10513756433E+03  0.10513756433E+03  0.00000000000E+00 0.  1.
      99926    2    1    2    0    0  0.00000000000E+00  0.00000000000E+00  0.38025555484E+03  0.59053068349E+03  0.45180991707E+03 0.  0.
      99925    2    3    3    0    0 -0.64639842829E+02  0.89145452146E+02  0.23917057187E+03  0.37217844183E+03  0.26303803755E+03 0.  0.
         25    1    3    3    0    0  0.64639842829E+02 -0.89145452146E+02  0.14108498297E+03  0.21835224166E+03  0.12509000000E+03 0.  0.
         25    1    4    4    0    0 -0.69190314514E+02  0.44607238837E+02  0.15138034367E+03  0.21293337439E+03  0.12509000000E+03 0.  0.
         25    1    4    4    0    0  0.45504716851E+01  0.44538213309E+02  0.87790228202E+02  0.15924506744E+03  0.12509000000E+03 0.  0.
<mgrwt>
<rscale>  2 0.45180992E+03</rscale>
<asrwt>0</asrwt>
<pdfrwt beam="1">  1       21 0.71381341E-01 0.45180992E+03</pdfrwt>
<pdfrwt beam="2">  1       21 0.15461407E-01 0.45180992E+03</pdfrwt>
<totfact> 0.60782982E+04</totfact>
</mgrwt>
</event>
<event>
 7    0  0.4737014E-002  0.4473876E+03  0.7546771E-02  0.1028504E+00
         21   -1    0    0  502  501  0.00000000000E+00  0.00000000000E+00  0.47966463566E+02  0.47966463566E+02  0.00000000000E+00 0. -1.
         21   -1    0    0  501  502 -0.00000000000E+00 -0.00000000000E+00 -0.10432061021E+04  0.10432061021E+04  0.00000000000E+00 0. -1.
      99926    2    1    2    0    0  0.00000000000E+00  0.00000000000E+00 -0.99523963858E+03  0.10911725657E+04  0.44738756125E+03 0.  0.
      99925    2    3    3    0    0 -0.55376153839E+02  0.86469883593E+02 -0.56894118059E+03  0.63518852809E+03  0.26310993912E+03 0.  0.
         25    1    4    4    0    0 -0.35177566617E+02  0.62464191945E+01 -0.22363295321E+03  0.25871931665E+03  0.12509000000E+03 0.  0.
         25    1    3    3    0    0  0.55376153839E+02 -0.86469883593E+02 -0.42629845798E+03  0.45598403762E+03  0.12509000000E+03 0.  0.
         25    1    4    4    0    0 -0.20198587222E+02  0.80223464399E+02 -0.34530822738E+03  0.37646921144E+03  0.12509000000E+03 0.  0.
<mgrwt>
<rscale>  2 0.44738756E+03</rscale>
<asrwt>0</asrwt>
<pdfrwt beam="1">  1       21 0.70538914E-02 0.44738756E+03</pdfrwt>
<pdfrwt beam="2">  1       21 0.15341267E+00 0.44738756E+03</pdfrwt>
<totfact> 0.38009571E+04</totfact>
</mgrwt>
</event>
<event>
 7    0  0.4737014E-002  0.4529157E+03  0.7546771E-02  0.1026856E+00
         21   -1    0    0  502  501  0.00000000000E+00  0.00000000000E+00  0.25245648378E+03  0.25245648378E+03  0.00000000000E+00 0. -1.
         21   -1    0    0  501  502 -0.00000000000E+00 -0.00000000000E+00 -0.20313666049E+03  0.20313666049E+03  0.00000000000E+00 0. -1.
      99926    2    1    2    0    0  0.00000000000E+00  0.00000000000E+00  0.49319823289E+02  0.45559314427E+03  0.45291574066E+03 0.  0.
      99925    2    3    3    0    0 -0.65622730483E+02 -0.34013775626E+02  0.11471107512E+03  0.29626077592E+03  0.26296109390E+03 0.  0.
         25    1    4    4    0    0 -0.40066434303E+01 -0.15941887715E+02  0.86173120787E+02  0.15278583646E+03  0.12509000000E+03 0.  0.
         25    1    3    3    0    0  0.65622730483E+02  0.34013775626E+02 -0.65391251831E+02  0.15933236835E+03  0.12509000000E+03 0.  0.
         25    1    4    4    0    0 -0.61616087053E+02 -0.18071887910E+02  0.28537954334E+02  0.14347493946E+03  0.12509000000E+03 0.  0.
<mgrwt>
<rscale>  2 0.45291574E+03</rscale>
<asrwt>0</asrwt>
<pdfrwt beam="1">  1       21 0.37125954E-01 0.45291574E+03</pdfrwt>
<pdfrwt beam="2">  1       21 0.29873038E-01 0.45291574E+03</pdfrwt>
<totfact> 0.69653410E+04</totfact>
</mgrwt>
</event>
<event>
 7    0  0.4737014E-002  0.4604344E+03  0.7546771E-02  0.1024655E+00
         21   -1    0    0  502  501  0.00000000000E+00  0.00000000000E+00  0.57491644209E+02  0.57491644209E+02  0.00000000000E+00 0. -1.
         21   -1    0    0  501  502 -0.00000000000E+00 -0.00000000000E+00 -0.92187222878E+03  0.92187222878E+03  0.00000000000E+00 0. -1.
      99926    2    1    2    0    0 -0.35527136788E-14  0.14210854715E-13 -0.86438058457E+03  0.97936387298E+03  0.46043436094E+03 0.  0.
      99925    2    3    3    0    0 -0.17837764272E+02  0.10354087677E+03 -0.65654719574E+03  0.71501349071E+03  0.26296610555E+03 0.  0.
         25    1    4    4    0    0  0.30023510855E+02  0.52368252588E+02 -0.29448066266E+03  0.32559209736E+03  0.12509000000E+03 0.  0.
         25    1    4    4    0    0 -0.47861275127E+02  0.51172624181E+02 -0.36206653308E+03  0.38942139335E+03  0.12509000000E+03 0.  0.
         25    1    3    3    0    0  0.17837764272E+02 -0.10354087677E+03 -0.20783338883E+03  0.26435038227E+03  0.12509000000E+03 0.  0.
<mgrwt>
<rscale>  2 0.46043436E+03</rscale>
<asrwt>0</asrwt>
<pdfrwt beam="1">  1       21 0.84546539E-02 0.46043436E+03</pdfrwt>
<pdfrwt beam="2">  1       21 0.13556944E+00 0.46043436E+03</pdfrwt>
<totfact> 0.38320027E+04</totfact>
</mgrwt>
</event>
<event>
 7    0  0.4737014E-002  0.4597352E+03  0.7546771E-02  0.1024858E+00
         21   -1    0    0  502  501  0.00000000000E+00  0.00000000000E+00  0.17628530651E+03  0.17628530651E+03  0.00000000000E+00 0. -1.
         21   -1    0    0  501  502 -0.00000000000E+00 -0.00000000000E+00 -0.29973628248E+03  0.29973628248E+03  0.00000000000E+00 0. -1.
      99926    2    1    2    0    0  0.00000000000E+00  0.00000000000E+00 -0.12345097597E+03  0.47602158900E+03  0.45973515172E+03 0.  0.
      99925    2    3    3    0    0  0.65859670382E+02  0.96315931816E+02 -0.62516409643E+02  0.29443198473E+03  0.26299740921E+03 0.  0.
         25    1    4    4    0    0  0.24775519062E+02  0.22353087266E+02 -0.61696268595E+02  0.14341347396E+03  0.12509000000E+03 0.  0.
         25    1    4    4    0    0  0.41084151321E+02  0.73962844550E+02 -0.82014104753E+00  0.15101851077E+03  0.12509000000E+03 0.  0.
         25    1    3    3    0    0 -0.65859670382E+02 -0.96315931816E+02 -0.60934566325E+02  0.18158960427E+03  0.12509000000E+03 0.  0.
<mgrwt>
<rscale>  2 0.45973515E+03</rscale>
<asrwt>0</asrwt>
<pdfrwt beam="1">  1       21 0.25924310E-01 0.45973515E+03</pdfrwt>
<pdfrwt beam="2">  1       21 0.44078865E-01 0.45973515E+03</pdfrwt>
<totfact> 0.64531904E+04</totfact>
</mgrwt>
</event>
<event>
 7    0  0.4737014E-002  0.4536248E+03  0.7546771E-02  0.1026647E+00
         21   -1    0    0  502  501  0.00000000000E+00  0.00000000000E+00  0.29783705615E+03  0.29783705615E+03  0.00000000000E+00 0.  1.
         21   -1    0    0  501  502 -0.00000000000E+00 -0.00000000000E+00 -0.17272485089E+03  0.17272485089E+03  0.00000000000E+00 0.  1.
      99926    2    1    2    0    0  0.00000000000E+00  0.00000000000E+00  0.12511220526E+03  0.47056190705E+03  0.45362478378E+03 0.  0.
      99925    2    3    3    0    0 -0.58542441147E+02  0.95279441847E+02  0.78354005592E+02  0.29638031563E+03  0.26305237472E+03 0.  0.
         25    1    3    3    0    0  0.58542441147E+02 -0.95279441847E+02  0.46758199668E+02  0.17418159142E+03  0.12509000000E+03 0.  0.
         25    1    4    4    0    0 -0.45566978937E+01  0.37627070173E+02  0.39033682957E+01  0.13076430816E+03  0.12509000000E+03 0.  0.
         25    1    4    4    0    0 -0.53985743253E+02  0.57652371675E+02  0.74450637296E+02  0.16561600746E+03  0.12509000000E+03 0.  0.
<mgrwt>
<rscale>  2 0.45362478E+03</rscale>
<asrwt>0</asrwt>
<pdfrwt beam="1">  1       21 0.43799567E-01 0.45362478E+03</pdfrwt>
<pdfrwt beam="2">  1       21 0.25400713E-01 0.45362478E+03</pdfrwt>
<totfact> 0.68134296E+04</totfact>
</mgrwt>
</event>
<event>
 7    0  0.4737014E-002  0.4548788E+03  0.7546771E-02  0.1026277E+00
         21   -1    0    0  502  501  0.00000000000E+00  0.00000000000E+00  0.12431808426E+03  0.12431808426E+03  0.00000000000E+00 0.  1.
         21   -1    0    0  501  502 -0.00000000000E+00 -0.00000000000E+00 -0.41609931970E+03  0.41609931970E+03  0.00000000000E+00 0.  1.
      99926    2    1    2    0    0  0.71054273576E-14  0.35527136788E-14 -0.29178123543E+03  0.54041740396E+03  0.45487875434E+03 0.  0.
      99925    2    3    3    0    0 -0.61587440845E+02 -0.27821958747E+02 -0.76063237316E+02  0.28205944091E+03  0.26306812403E+03 0.  0.
         25    1    3    3    0    0  0.61587440845E+02  0.27821958747E+02 -0.21571799812E+03  0.25835796305E+03  0.12509000000E+03 0.  0.
         25    1    4    4    0    0  0.10858975455E+02 -0.10966660427E+02 -0.32962461159E+02  0.13027746135E+03  0.12509000000E+03 0.  0.
         25    1    4    4    0    0 -0.72446416300E+02 -0.16855298320E+02 -0.43100776157E+02  0.15178197957E+03  0.12509000000E+03 0.  0.
<mgrwt>
<rscale>  2 0.45487875E+03</rscale>
<asrwt>0</asrwt>
<pdfrwt beam="1">  1       21 0.18282071E-01 0.45487875E+03</pdfrwt>
<pdfrwt beam="2">  1       21 0.61191076E-01 0.45487875E+03</pdfrwt>
<totfact> 0.62564224E+04</totfact>
</mgrwt>
</event>
<event>
 7    0  0.4737014E-002  0.4420212E+03  0.7546771E-02  0.1030128E+00
         21   -1    0    0  502  501  0.00000000000E+00  0.00000000000E+00  0.81494972528E+02  0.81494972528E+02  0.00000000000E+00 0. -1.
         21   -1    0    0  501  502 -0.00000000000E+00 -0.00000000000E+00 -0.59937051911E+03  0.59937051911E+03  0.00000000000E+00 0. -1.
      99926    2    1    2    0    0 -0.71054273576E-14 -0.44408920985E-15 -0.51787554658E+03  0.68086549164E+03  0.44202119401E+03 0.  0.
      99925    2    3    3    0    0  0.35376984081E+02  0.32070818618E+01 -0.47464927108E+03  0.54383324955E+03  0.26306055653E+03 0.  0.
         25    1    4    4    0    0  0.92577639485E+00  0.50959328294E+01 -0.15773171604E+03  0.20137931358E+03  0.12509000000E+03 0.  0.
         25    1    3    3    0    0 -0.35376984081E+02 -0.32070818618E+01 -0.43226275497E+02  0.13703224208E+03  0.12509000000E+03 0.  0.
         25    1    4    4    0    0  0.34451207686E+02 -0.18888509675E+01 -0.31691755504E+03  0.34245393597E+03  0.12509000000E+03 0.  0.
<mgrwt>
<rscale>  2 0.44202119E+03</rscale>
<asrwt>0</asrwt>
<pdfrwt beam="1">  1       21 0.11984555E-01 0.44202119E+03</pdfrwt>
<pdfrwt beam="2">  1       21 0.88142720E-01 0.44202119E+03</pdfrwt>
<totfact> 0.59839162E+04</totfact>
</mgrwt>
</event>
<event>
 7    0  0.4737014E-002  0.4156208E+03  0.7546771E-02  0.1038501E+00
         21   -1    0    0  502  501  0.00000000000E+00  0.00000000000E+00  0.34602734047E+03  0.34602734047E+03  0.00000000000E+00 0. -1.
         21   -1    0    0  501  502 -0.00000000000E+00 -0.00000000000E+00 -0.12480273425E+03  0.12480273425E+03  0.00000000000E+00 0. -1.
      99926    2    1    2    0    0  0.00000000000E+00  0.00000000000E+00  0.22122460621E+03  0.47083007472E+03  0.41562078012E+03 0.  0.
      99925    2    3    3    0    0  0.21967951823E+02  0.57145093749E+02  0.18373080474E+03  0.32660301105E+03  0.26299118915E+03 0.  0.
         25    1    3    3    0    0 -0.21967951823E+02 -0.57145093749E+02  0.37493801471E+02  0.14422706367E+03  0.12509000000E+03 0.  0.
         25    1    4    4    0    0  0.46450299999E+02  0.48348379526E+02  0.10475700268E+03  0.17639935908E+03  0.12509000000E+03 0.  0.
         25    1    4    4    0    0 -0.24482348176E+02  0.87967142231E+01  0.78973802065E+02  0.15020365197E+03  0.12509000000E+03 0.  0.
<mgrwt>
<rscale>  2 0.41562078E+03</rscale>
<asrwt>0</asrwt>
<pdfrwt beam="1">  1       21 0.50886373E-01 0.41562078E+03</pdfrwt>
<pdfrwt beam="2">  1       21 0.18353343E-01 0.41562078E+03</pdfrwt>
<totfact> 0.93298852E+04</totfact>
</mgrwt>
</event>
<event>
 7    0  0.4737014E-002  0.4742954E+03  0.7546771E-02  0.1020715E+00
         21   -1    0    0  502  501  0.00000000000E+00  0.00000000000E+00  0.11201597347E+04  0.11201597347E+04  0.00000000000E+00 0.  1.
         21   -1    0    0  501  502 -0.00000000000E+00 -0.00000000000E+00 -0.50206255461E+02  0.50206255461E+02  0.00000000000E+00 0.  1.
      99926    2    1    2    0    0 -0.71054273576E-14  0.71054273576E-14  0.10699534792E+04  0.11703659901E+04  0.47429537546E+03 0.  0.
      99925    2    3    3    0    0 -0.54221478910E+02 -0.50571086145E+02  0.92703800699E+03  0.96647939462E+03  0.26303146254E+03 0.  0.
         25    1    3    3    0    0  0.54221478910E+02  0.50571086145E+02  0.14291547220E+03  0.20388659550E+03  0.12509000000E+03 0.  0.
         25    1    4    4    0    0 -0.12196635665E+02  0.13640878436E+02  0.41559799611E+03  0.43440077574E+03  0.12509000000E+03 0.  0.
         25    1    4    4    0    0 -0.42024843245E+02 -0.64211964580E+02  0.51144001088E+03  0.53207861888E+03  0.12509000000E+03 0.  0.
<mgrwt>
<rscale>  2 0.47429538E+03</rscale>
<asrwt>0</asrwt>
<pdfrwt beam="1">  1       21 0.16472936E+00 0.47429538E+03</pdfrwt>
<pdfrwt beam="2">  1       21 0.73832735E-02 0.47429538E+03</pdfrwt>
<totfact> 0.28566663E+04</totfact>
</mgrwt>
</event>
<event>
 7    0  0.4737014E-002  0.4535755E+03  0.7546771E-02  0.1026661E+00
         21   -1    0    0  502  501  0.00000000000E+00  0.00000000000E+00  0.58889269421E+03  0.58889269421E+03  0.00000000000E+00 0.  1.
         21   -1    0    0  501  502 -0.00000000000E+00 -0.00000000000E+00 -0.87337936728E+02  0.87337936728E+02  0.00000000000E+00 0.  1.
      99926    2    1    2    0    0  0.00000000000E+00  0.00000000000E+00  0.50155475748E+03  0.67623063093E+03  0.45357545289E+03 0.  0.
      99925    2    3    3    0    0  0.33401181233E+02 -0.18211963142E+02  0.47275928895E+03  0.54235008113E+03  0.26304933130E+03 0.  0.
         25    1    3    3    0    0 -0.33401181233E+02  0.18211963142E+02  0.28795468524E+02  0.13388054981E+03  0.12509000000E+03 0.  0.
         25    1    4    4    0    0 -0.10903636844E+02  0.80768667498E+01  0.17748734631E+03  0.21756238478E+03  0.12509000000E+03 0.  0.
         25    1    4    4    0    0  0.44304818077E+02 -0.26288829891E+02  0.29527194265E+03  0.32478769635E+03  0.12509000000E+03 0.  0.
<mgrwt>
<rscale>  2 0.45357545E+03</rscale>
<asrwt>0</asrwt>
<pdfrwt beam="1">  1       21 0.86601865E-01 0.45357545E+03</pdfrwt>
<pdfrwt beam="2">  1       21 0.12843815E-01 0.45357545E+03</pdfrwt>
<totfact> 0.54825663E+04</totfact>
</mgrwt>
</event>
<event>
 7    0  0.4737014E-002  0.4493643E+03  0.7546771E-02  0.1027912E+00
         21   -1    0    0  502  501  0.00000000000E+00  0.00000000000E+00  0.58612728238E+03  0.58612728238E+03  0.00000000000E+00 0.  1.
         21   -1    0    0  501  502 -0.00000000000E+00 -0.00000000000E+00 -0.86128151951E+02  0.86128151951E+02  0.00000000000E+00 0.  1.
      99926    2    1    2    0    0  0.71054273576E-14  0.00000000000E+00  0.49999913043E+03  0.67225543433E+03  0.44936426044E+03 0.  0.
      99925    2    3    3    0    0 -0.59667145813E+02  0.67840588008E+02  0.22838762141E+03  0.35987292266E+03  0.26303060882E+03 0.  0.
         25    1    3    3    0    0  0.59667145813E+02 -0.67840588008E+02  0.27161150902E+03  0.31238251168E+03  0.12509000000E+03 0.  0.
         25    1    4    4    0    0 -0.83693126921E+01  0.96172734250E+01  0.13998321128E+03  0.18816308055E+03  0.12509000000E+03 0.  0.
         25    1    4    4    0    0 -0.51297833121E+02  0.58223314583E+02  0.88404410132E+02  0.17170984210E+03  0.12509000000E+03 0.  0.
<mgrwt>
<rscale>  2 0.44936426E+03</rscale>
<asrwt>0</asrwt>
<pdfrwt beam="1">  1       21 0.86195186E-01 0.44936426E+03</pdfrwt>
<pdfrwt beam="2">  1       21 0.12665905E-01 0.44936426E+03</pdfrwt>
<totfact> 0.56920944E+04</totfact>
</mgrwt>
</event>
<event>
 7    0  0.4737014E-002  0.4552101E+03  0.7546771E-02  0.1026180E+00
         21   -1    0    0  502  501  0.00000000000E+00  0.00000000000E+00  0.36010732808E+03  0.36010732808E+03  0.00000000000E+00 0.  1.
         21   -1    0    0  501  502 -0.00000000000E+00 -0.00000000000E+00 -0.14385724828E+03  0.14385724828E+03  0.00000000000E+00 0.  1.
      99926    2    1    2    0    0 -0.71054273576E-14  0.71054273576E-14  0.21625007980E+03  0.50396457636E+03  0.45521005833E+03 0.  0.
      99925    2    3    3    0    0 -0.61284807800E+02  0.36505327676E+02  0.38810292432E+02  0.27544575250E+03  0.26320269215E+03 0.  0.
         25    1    3    3    0    0  0.61284807800E+02 -0.36505327676E+02  0.17743978737E+03  0.22851882386E+03  0.12509000000E+03 0.  0.
         25    1    4    4    0    0  0.32202505018E+01  0.35501036914E+01  0.38251216304E+02  0.13089551902E+03  0.12509000000E+03 0.  0.
         25    1    4    4    0    0 -0.64505058302E+02  0.32955223984E+02  0.55907612844E+00  0.14455023348E+03  0.12509000000E+03 0.  0.
<mgrwt>
<rscale>  2 0.45521006E+03</rscale>
<asrwt>0</asrwt>
<pdfrwt beam="1">  1       21 0.52956960E-01 0.45521006E+03</pdfrwt>
<pdfrwt beam="2">  1       21 0.21155478E-01 0.45521006E+03</pdfrwt>
<totfact> 0.64884775E+04</totfact>
</mgrwt>
</event>
<event>
 7    0  0.4737014E-002  0.4522446E+03  0.7546771E-02  0.1027055E+00
         21   -1    0    0  502  501  0.00000000000E+00  0.00000000000E+00  0.95834646205E+03  0.95834646205E+03  0.00000000000E+00 0.  1.
         21   -1    0    0  501  502 -0.00000000000E+00 -0.00000000000E+00 -0.53353652992E+02  0.53353652992E+02  0.00000000000E+00 0.  1.
      99926    2    1    2    0    0  0.00000000000E+00  0.00000000000E+00  0.90499280906E+03  0.10117001150E+04  0.45224455589E+03 0.  0.
      99925    2    3    3    0    0  0.34132877198E+02 -0.10426461422E+03  0.60092947066E+03  0.66509055813E+03  0.26304573504E+03 0.  0.
         25    1    4    4    0    0 -0.90646658155E+01 -0.79561561177E+02  0.35288518601E+03  0.38286769619E+03  0.12509000000E+03 0.  0.
         25    1    4    4    0    0  0.43197543014E+02 -0.24703053047E+02  0.24804428464E+03  0.28222286193E+03  0.12509000000E+03 0.  0.
         25    1    3    3    0    0 -0.34132877198E+02  0.10426461422E+03  0.30406333840E+03  0.34660955692E+03  0.12509000000E+03 0.  0.
<mgrwt>
<rscale>  2 0.45224456E+03</rscale>
<asrwt>0</asrwt>
<pdfrwt beam="1">  1       21 0.14093329E+00 0.45224456E+03</pdfrwt>
<pdfrwt beam="2">  1       21 0.78461260E-02 0.45224456E+03</pdfrwt>
<totfact> 0.39559089E+04</totfact>
</mgrwt>
</event>
<event>
 7    0  0.4737014E-002  0.4563984E+03  0.7546771E-02  0.1025831E+00
         21   -1    0    0  502  501  0.00000000000E+00  0.00000000000E+00  0.98557904725E+02  0.98557904725E+02  0.00000000000E+00 0. -1.
         21   -1    0    0  501  502 -0.00000000000E+00 -0.00000000000E+00 -0.52836839693E+03  0.52836839693E+03  0.00000000000E+00 0. -1.
      99926    2    1    2    0    0  0.00000000000E+00  0.00000000000E+00 -0.42981049221E+03  0.62692630166E+03  0.45639843174E+03 0.  0.
      99925    2    3    3    0    0  0.85429061651E+02 -0.52374233871E+02 -0.34743687432E+03  0.44672056931E+03  0.26230840714E+03 0.  0.
         25    1    3    3    0    0 -0.85429061651E+02  0.52374233871E+02 -0.82373617888E+02  0.18020573235E+03  0.12509000000E+03 0.  0.
         25    1    4    4    0    0  0.12512074620E+02 -0.17977695708E+02 -0.20222130214E+03  0.23879010175E+03  0.12509000000E+03 0.  0.
         25    1    4    4    0    0  0.72916987032E+02 -0.34396538162E+02 -0.14521557218E+03  0.20793046756E+03  0.12509000000E+03 0.  0.
<mgrwt>
<rscale>  2 0.45639843E+03</rscale>
<asrwt>0</asrwt>
<pdfrwt beam="1">  1       21 0.14493810E-01 0.45639843E+03</pdfrwt>
<pdfrwt beam="2">  1       21 0.77701235E-01 0.45639843E+03</pdfrwt>
<totfact> 0.56425206E+04</totfact>
</mgrwt>
</event>
<event>
 7    0  0.4737014E-002  0.4513631E+03  0.7546771E-02  0.1027316E+00
         21   -1    0    0  502  501  0.00000000000E+00  0.00000000000E+00  0.41802418739E+02  0.41802418739E+02  0.00000000000E+00 0. -1.
         21   -1    0    0  501  502 -0.00000000000E+00 -0.00000000000E+00 -0.12184020579E+04  0.12184020579E+04  0.00000000000E+00 0. -1.
      99926    2    1    2    0    0  0.17763568394E-14 -0.14210854715E-13 -0.11765996392E+04  0.12602044766E+04  0.45136306015E+03 0.  0.
      99925    2    3    3    0    0  0.10427469530E+02  0.98658974614E+02 -0.87397994949E+03  0.91805171826E+03  0.26293664615E+03 0.  0.
         25    1    4    4    0    0 -0.23404816716E+02  0.23235317198E+02 -0.35448694709E+03  0.37735416941E+03  0.12509000000E+03 0.  0.
         25    1    3    3    0    0 -0.10427469530E+02 -0.98658974614E+02 -0.30261968968E+03  0.34215275839E+03  0.12509000000E+03 0.  0.
         25    1    4    4    0    0  0.33832286247E+02  0.75423657416E+02 -0.51949300240E+03  0.54069754885E+03  0.12509000000E+03 0.  0.
<mgrwt>
<rscale>  2 0.45136306E+03</rscale>
<asrwt>0</asrwt>
<pdfrwt beam="1">  1       21 0.61474153E-02 0.45136306E+03</pdfrwt>
<pdfrwt beam="2">  1       21 0.17917675E+00 0.45136306E+03</pdfrwt>
<totfact> 0.31165639E+04</totfact>
</mgrwt>
</event>
<event>
 7    0  0.4737014E-002  0.4714845E+03  0.7546771E-02  0.1021502E+00
         21   -1    0    0  502  501  0.00000000000E+00  0.00000000000E+00  0.63098902324E+03  0.63098902324E+03  0.00000000000E+00 0. -1.
         21   -1    0    0  501  502 -0.00000000000E+00 -0.00000000000E+00 -0.88075081388E+02  0.88075081388E+02  0.00000000000E+00 0. -1.
      99926    2    1    2    0    0  0.00000000000E+00  0.00000000000E+00  0.54291394185E+03  0.71906410463E+03  0.47148450484E+03 0.  0.
      99925    2    3    3    0    0  0.33214617427E+02 -0.74743222875E+02  0.48699472147E+03  0.55948895780E+03  0.26301002831E+03 0.  0.
         25    1    3    3    0    0 -0.33214617427E+02  0.74743222875E+02  0.55919220388E+02  0.15957514683E+03  0.12509000000E+03 0.  0.
         25    1    4    4    0    0 -0.17465756213E+02 -0.13193477844E+02  0.21693616273E+03  0.25137208933E+03  0.12509000000E+03 0.  0.
         25    1    4    4    0    0  0.50680373640E+02 -0.61549745031E+02  0.27005855874E+03  0.30811686847E+03  0.12509000000E+03 0.  0.
<mgrwt>
<rscale>  2 0.47148450E+03</rscale>
<asrwt>0</asrwt>
<pdfrwt beam="1">  1       21 0.92792501E-01 0.47148450E+03</pdfrwt>
<pdfrwt beam="2">  1       21 0.12952218E-01 0.47148450E+03</pdfrwt>
<totfact> 0.45664226E+04</totfact>
</mgrwt>
</event>
<event>
 7    0  0.4737014E-002  0.4504291E+03  0.7546771E-02  0.1027594E+00
         21   -1    0    0  502  501  0.00000000000E+00  0.00000000000E+00  0.35522629327E+03  0.35522629327E+03  0.00000000000E+00 0.  1.
         21   -1    0    0  501  502 -0.00000000000E+00 -0.00000000000E+00 -0.14278673499E+03  0.14278673499E+03  0.00000000000E+00 0.  1.
      99926    2    1    2    0    0  0.00000000000E+00  0.00000000000E+00  0.21243955828E+03  0.49801302827E+03  0.45042914027E+03 0.  0.
      99925    2    3    3    0    0  0.32211981502E+02  0.10159189283E+03  0.15506056496E+03  0.32394872574E+03  0.26370527803E+03 0.  0.
         25    1    4    4    0    0  0.21396309956E+02  0.69758972164E+01  0.73880574145E+02  0.14701126677E+03  0.12509000000E+03 0.  0.
         25    1    4    4    0    0  0.10815671546E+02  0.94615995614E+02  0.81179990819E+02  0.17693745897E+03  0.12509000000E+03 0.  0.
         25    1    3    3    0    0 -0.32211981502E+02 -0.10159189283E+03  0.57378993316E+02  0.17406430253E+03  0.12509000000E+03 0.  0.
<mgrwt>
<rscale>  2 0.45042914E+03</rscale>
<asrwt>0</asrwt>
<pdfrwt beam="1">  1       21 0.52239161E-01 0.45042914E+03</pdfrwt>
<pdfrwt beam="2">  1       21 0.20998049E-01 0.45042914E+03</pdfrwt>
<totfact> 0.67838677E+04</totfact>
</mgrwt>
</event>
<event>
 7    0  0.4737014E-002  0.4490754E+03  0.7546771E-02  0.1027998E+00
         21   -1    0    0  502  501  0.00000000000E+00  0.00000000000E+00  0.12676970529E+04  0.12676970529E+04  0.00000000000E+00 0.  1.
         21   -1    0    0  501  502 -0.00000000000E+00 -0.00000000000E+00 -0.39770686522E+02  0.39770686522E+02  0.00000000000E+00 0.  1.
      99926    2    1    2    0    0  0.00000000000E+00 -0.14210854715E-13  0.12279263664E+04  0.13074677394E+04  0.44907541503E+03 0.  0.
      99925    2    3    3    0    0 -0.49435202844E+02  0.89833933435E+02  0.68227619668E+03  0.73834948223E+03  0.26295470043E+03 0.  0.
         25    1    3    3    0    0  0.49435202844E+02 -0.89833933435E+02  0.54565016972E+03  0.56911825721E+03  0.12509000000E+03 0.  0.
         25    1    4    4    0    0 -0.45067688568E+02  0.90538912838E+01  0.32310037865E+03  0.34950598319E+03  0.12509000000E+03 0.  0.
         25    1    4    4    0    0 -0.43675142761E+01  0.80780042151E+02  0.35917581803E+03  0.38884349904E+03  0.12509000000E+03 0.  0.
<mgrwt>
<rscale>  2 0.44907542E+03</rscale>
<asrwt>0</asrwt>
<pdfrwt beam="1">  1       21 0.18642601E+00 0.44907542E+03</pdfrwt>
<pdfrwt beam="2">  1       21 0.58486312E-02 0.44907542E+03</pdfrwt>
<totfact> 0.30269351E+04</totfact>
</mgrwt>
</event>
<event>
 7    0  0.4737014E-002  0.4561722E+03  0.7546771E-02  0.1025897E+00
         21   -1    0    0  502  501  0.00000000000E+00  0.00000000000E+00  0.41332901917E+03  0.41332901917E+03  0.00000000000E+00 0. -1.
         21   -1    0    0  501  502 -0.00000000000E+00 -0.00000000000E+00 -0.12586407978E+03  0.12586407978E+03  0.00000000000E+00 0. -1.
      99926    2    1    2    0    0  0.00000000000E+00  0.00000000000E+00  0.28746493939E+03  0.53919309896E+03  0.45617223347E+03 0.  0.
      99925    2    3    3    0    0  0.49051544849E+02 -0.32076745672E+02  0.64792843835E+02  0.27715237330E+03  0.26302158419E+03 0.  0.
         25    1    4    4    0    0  0.60784067333E+02 -0.15334648779E+01  0.21129117356E+02  0.14068049636E+03  0.12509000000E+03 0.  0.
         25    1    4    4    0    0 -0.11732522484E+02 -0.30543280794E+02  0.43663726479E+02  0.13647187694E+03  0.12509000000E+03 0.  0.
         25    1    3    3    0    0 -0.49051544849E+02  0.32076745672E+02  0.22267209555E+03  0.26204072566E+03  0.12509000000E+03 0.  0.
<mgrwt>
<rscale>  2 0.45617223E+03</rscale>
<asrwt>0</asrwt>
<pdfrwt beam="1">  1       21 0.60783679E-01 0.45617223E+03</pdfrwt>
<pdfrwt beam="2">  1       21 0.18509424E-01 0.45617223E+03</pdfrwt>
<totfact> 0.62009064E+04</totfact>
</mgrwt>
</event>
<event>
 7    0  0.4737014E-002  0.4485051E+03  0.7546771E-02  0.1028169E+00
         21   -1    0    0  502  501  0.00000000000E+00  0.00000000000E+00  0.42902535783E+03  0.42902535783E+03  0.00000000000E+00 0.  1.
         21   -1    0    0  501  502 -0.00000000000E+00 -0.00000000000E+00 -0.11721731377E+03  0.11721731377E+03  0.00000000000E+00 0.  1.
      99926    2    1    2    0    0  0.00000000000E+00  0.00000000000E+00  0.31180804406E+03  0.54624267160E+03  0.44850507237E+03 0.  0.
      99925    2    3    3    0    0  0.81810972155E+02  0.65130701323E+02  0.16962743918E+03  0.32991450440E+03  0.26293548386E+03 0.  0.
         25    1    3    3    0    0 -0.81810972155E+02 -0.65130701323E+02  0.14218060488E+03  0.21632816720E+03  0.12509000000E+03 0.  0.
         25    1    4    4    0    0  0.72549374473E+02  0.51518735644E+02  0.11787167905E+03  0.19354284456E+03  0.12509000000E+03 0.  0.
         25    1    4    4    0    0  0.92615976817E+01  0.13611965679E+02  0.51755760125E+02  0.13637165984E+03  0.12509000000E+03 0.  0.
<mgrwt>
<rscale>  2 0.44850507E+03</rscale>
<asrwt>0</asrwt>
<pdfrwt beam="1">  1       21 0.63091964E-01 0.44850507E+03</pdfrwt>
<pdfrwt beam="2">  1       21 0.17237840E-01 0.44850507E+03</pdfrwt>
<totfact> 0.65412897E+04</totfact>
</mgrwt>
</event>
<event>
 7    0  0.4737014E-002  0.4572915E+03  0.7546771E-02  0.1025570E+00
         21   -1    0    0  502  501  0.00000000000E+00  0.00000000000E+00  0.24971824546E+03  0.24971824546E+03  0.00000000000E+00 0.  1.
         21   -1    0    0  501  502 -0.00000000000E+00 -0.00000000000E+00 -0.20935143454E+03  0.20935143454E+03  0.00000000000E+00 0.  1.
      99926    2    1    2    0    0  0.00000000000E+00 -0.71054273576E-14  0.40366810915E+02  0.45906968000E+03  0.45729147343E+03 0.  0.
      99925    2    3    3    0    0 -0.93378027553E+02 -0.62537491223E+02  0.52627011870E+02  0.29046299429E+03  0.26261902984E+03 0.  0.
         25    1    4    4    0    0 -0.30241370024E+02 -0.22909890872E+02 -0.11764065244E+02  0.13124520902E+03  0.12509000000E+03 0.  0.
         25    1    4    4    0    0 -0.63136657529E+02 -0.39627600351E+02  0.64391077115E+02  0.15921778527E+03  0.12509000000E+03 0.  0.
         25    1    3    3    0    0  0.93378027553E+02  0.62537491223E+02 -0.12260200955E+02  0.16860668571E+03  0.12509000000E+03 0.  0.
<mgrwt>
<rscale>  2 0.45729147E+03</rscale>
<asrwt>0</asrwt>
<pdfrwt beam="1">  1       21 0.36723272E-01 0.45729147E+03</pdfrwt>
<pdfrwt beam="2">  1       21 0.30786976E-01 0.45729147E+03</pdfrwt>
<totfact> 0.67015061E+04</totfact>
</mgrwt>
</event>
<event>
 7    0  0.4737014E-002  0.4572571E+03  0.7546771E-02  0.1025580E+00
         21   -1    0    0  502  501  0.00000000000E+00  0.00000000000E+00  0.20204428841E+03  0.20204428841E+03  0.00000000000E+00 0. -1.
         21   -1    0    0  501  502 -0.00000000000E+00 -0.00000000000E+00 -0.25871067048E+03  0.25871067048E+03  0.00000000000E+00 0. -1.
      99926    2    1    2    0    0  0.14210854715E-13 -0.44408920985E-15 -0.56666382069E+02  0.46075495889E+03  0.45725709758E+03 0.  0.
      99925    2    3    3    0    0 -0.11519931032E+03  0.33012389204E+01 -0.34930160768E+02  0.28928557185E+03  0.26302898447E+03 0.  0.
         25    1    4    4    0    0 -0.26073873411E+02 -0.24240588398E+02 -0.28305399021E+02  0.13310205376E+03  0.12509000000E+03 0.  0.
         25    1    3    3    0    0  0.11519931032E+03 -0.33012389204E+01 -0.21736221300E+02  0.17146938704E+03  0.12509000000E+03 0.  0.
         25    1    4    4    0    0 -0.89125436904E+02  0.27541827318E+02 -0.66247617474E+01  0.15618351809E+03  0.12509000000E+03 0.  0.
<mgrwt>
<rscale>  2 0.45725710E+03</rscale>
<asrwt>0</asrwt>
<pdfrwt beam="1">  1       21 0.29712395E-01 0.45725710E+03</pdfrwt>
<pdfrwt beam="2">  1       21 0.38045687E-01 0.45725710E+03</pdfrwt>
<totfact> 0.66912969E+04</totfact>
</mgrwt>
</event>
<event>
 7    0  0.4737014E-002  0.4613779E+03  0.7546771E-02  0.1024382E+00
         21   -1    0    0  502  501  0.00000000000E+00  0.00000000000E+00  0.14030327756E+03  0.14030327756E+03  0.00000000000E+00 0. -1.
         21   -1    0    0  501  502 -0.00000000000E+00 -0.00000000000E+00 -0.37930248822E+03  0.37930248822E+03  0.00000000000E+00 0. -1.
      99926    2    1    2    0    0  0.19567680809E-14  0.00000000000E+00 -0.23899921066E+03  0.51960576578E+03  0.46137785939E+03 0.  0.
      99925    2    3    3    0    0 -0.11155914130E+00  0.13796440286E+01 -0.28366209001E+03  0.38677430582E+03  0.26292254842E+03 0.  0.
         25    1    3    3    0    0  0.11155914130E+00 -0.13796440286E+01  0.44662879355E+02  0.13283145996E+03  0.12509000000E+03 0.  0.
         25    1    4    4    0    0 -0.36879983182E+02  0.51202202764E+01 -0.11820300408E+03  0.17608466171E+03  0.12509000000E+03 0.  0.
         25    1    4    4    0    0  0.36768424041E+02 -0.37405762478E+01 -0.16545908593E+03  0.21068964411E+03  0.12509000000E+03 0.  0.
<mgrwt>
<rscale>  2 0.46137786E+03</rscale>
<asrwt>0</asrwt>
<pdfrwt beam="1">  1       21 0.20632835E-01 0.46137786E+03</pdfrwt>
<pdfrwt beam="2">  1       21 0.55779777E-01 0.46137786E+03</pdfrwt>
<totfact> 0.60779509E+04</totfact>
</mgrwt>
</event>
<event>
 7    0  0.4737014E-002  0.4550066E+03  0.7546771E-02  0.1026239E+00
         21   -1    0    0  502  501  0.00000000000E+00  0.00000000000E+00  0.36202174072E+02  0.36202174072E+02  0.00000000000E+00 0.  1.
         21   -1    0    0  501  502 -0.00000000000E+00 -0.00000000000E+00 -0.14296861796E+04  0.14296861796E+04  0.00000000000E+00 0.  1.
      99926    2    1    2    0    0  0.71054273576E-14  0.00000000000E+00 -0.13934840056E+04  0.14658883537E+04  0.45500658432E+03 0.  0.
      99925    2    3    3    0    0  0.46704483264E+02  0.10157883878E+03 -0.82012508337E+03  0.86848770841E+03  0.26299463501E+03 0.  0.
         25    1    4    4    0    0 -0.10803370881E+02  0.57657219370E+02 -0.33729056987E+03  0.36449074665E+03  0.12509000000E+03 0.  0.
         25    1    4    4    0    0  0.57507854145E+02  0.43921619407E+02 -0.48283451350E+03  0.50399696176E+03  0.12509000000E+03 0.  0.
         25    1    3    3    0    0 -0.46704483264E+02 -0.10157883878E+03 -0.57335892218E+03  0.59740064529E+03  0.12509000000E+03 0.  0.
<mgrwt>
<rscale>  2 0.45500658E+03</rscale>
<asrwt>0</asrwt>
<pdfrwt beam="1">  1       21 0.53238500E-02 0.45500658E+03</pdfrwt>
<pdfrwt beam="2">  1       21 0.21024794E+00 0.45500658E+03</pdfrwt>
<totfact> 0.24626376E+04</totfact>
</mgrwt>
</event>
<event>
 7    0  0.4737014E-002  0.4418740E+03  0.7546771E-02  0.1030173E+00
         21   -1    0    0  502  501  0.00000000000E+00  0.00000000000E+00  0.76561483166E+03  0.76561483166E+03  0.00000000000E+00 0.  1.
         21   -1    0    0  501  502 -0.00000000000E+00 -0.00000000000E+00 -0.63756817915E+02  0.63756817915E+02  0.00000000000E+00 0.  1.
      99926    2    1    2    0    0  0.00000000000E+00 -0.13322676296E-14  0.70185801374E+03  0.82937164957E+03  0.44187403370E+03 0.  0.
      99925    2    3    3    0    0  0.65971585397E+02 -0.14004944126E+01  0.58908055727E+03  0.64848363379E+03  0.26298461719E+03 0.  0.
         25    1    4    4    0    0  0.41069797214E+02  0.23728120290E+02  0.22351379925E+03  0.26049122536E+03  0.12509000000E+03 0.  0.
         25    1    3    3    0    0 -0.65971585397E+02  0.14004944126E+01  0.11277745648E+03  0.18088801578E+03  0.12509000000E+03 0.  0.
         25    1    4    4    0    0  0.24901788183E+02 -0.25128614702E+02  0.36556675801E+03  0.38799240843E+03  0.12509000000E+03 0.  0.
<mgrwt>
<rscale>  2 0.44187403E+03</rscale>
<asrwt>0</asrwt>
<pdfrwt beam="1">  1       21 0.11259041E+00 0.44187403E+03</pdfrwt>
<pdfrwt beam="2">  1       21 0.93760031E-02 0.44187403E+03</pdfrwt>
<totfact> 0.51476904E+04</totfact>
</mgrwt>
</event>
<event>
 7    0  0.4737014E-002  0.4424661E+03  0.7546771E-02  0.1029993E+00
         21   -1    0    0  502  501  0.00000000000E+00  0.00000000000E+00  0.58526313208E+02  0.58526313208E+02  0.00000000000E+00 0.  1.
         21   -1    0    0  501  502 -0.00000000000E+00 -0.00000000000E+00 -0.83627461000E+03  0.83627461000E+03  0.00000000000E+00 0.  1.
      99926    2    1    2    0    0  0.71054273576E-14  0.44408920985E-15 -0.77774829679E+03  0.89480092321E+03  0.44246613318E+03 0.  0.
      99925    2    3    3    0    0  0.36448965065E+02 -0.28688466934E+01 -0.30475046992E+03  0.40417763630E+03  0.26296379110E+03 0.  0.
         25    1    3    3    0    0 -0.36448965065E+02  0.28688466934E+01 -0.47299782687E+03  0.49062328691E+03  0.12509000000E+03 0.  0.
         25    1    4    4    0    0 -0.16146435390E+02  0.19233012233E+02 -0.13532014018E+03  0.18598296851E+03  0.12509000000E+03 0.  0.
         25    1    4    4    0    0  0.52595400455E+02 -0.22101858926E+02 -0.16943032974E+03  0.21819466779E+03  0.12509000000E+03 0.  0.
<mgrwt>
<rscale>  2 0.44246613E+03</rscale>
<asrwt>0</asrwt>
<pdfrwt beam="1">  1       21 0.86068107E-02 0.44246613E+03</pdfrwt>
<pdfrwt beam="2">  1       21 0.12298156E+00 0.44246613E+03</pdfrwt>
<totfact> 0.47997681E+04</totfact>
</mgrwt>
</event>
<event>
 7    0  0.4737014E-002  0.4588245E+03  0.7546771E-02  0.1025123E+00
         21   -1    0    0  502  501  0.00000000000E+00  0.00000000000E+00  0.27041028530E+03  0.27041028530E+03  0.00000000000E+00 0. -1.
         21   -1    0    0  501  502 -0.00000000000E+00 -0.00000000000E+00 -0.19463008999E+03  0.19463008999E+03  0.00000000000E+00 0. -1.
      99926    2    1    2    0    0  0.00000000000E+00  0.00000000000E+00  0.75780195315E+02  0.46504037529E+03  0.45882449002E+03 0.  0.
      99925    2    3    3    0    0  0.84685544570E+02  0.45683985676E+02 -0.19292100022E+02  0.28079891023E+03  0.26309157124E+03 0.  0.
         25    1    3    3    0    0 -0.84685544570E+02 -0.45683985676E+02  0.95072295337E+02  0.18424146506E+03  0.12509000000E+03 0.  0.
         25    1    4    4    0    0  0.79533951502E+02  0.43865494524E+01 -0.11101457881E+02  0.14871328698E+03  0.12509000000E+03 0.  0.
         25    1    4    4    0    0  0.51515930680E+01  0.41297436224E+02 -0.81906421414E+01  0.13208562325E+03  0.12509000000E+03 0.  0.
<mgrwt>
<rscale>  2 0.45882449E+03</rscale>
<asrwt>0</asrwt>
<pdfrwt beam="1">  1       21 0.39766218E-01 0.45882449E+03</pdfrwt>
<pdfrwt beam="2">  1       21 0.28622072E-01 0.45882449E+03</pdfrwt>
<totfact> 0.65784237E+04</totfact>
</mgrwt>
</event>
<event>
 7    0  0.4737014E-002  0.4496106E+03  0.7546771E-02  0.1027838E+00
         21   -1    0    0  502  501  0.00000000000E+00  0.00000000000E+00  0.82498013491E+02  0.82498013491E+02  0.00000000000E+00 0. -1.
         21   -1    0    0  501  502 -0.00000000000E+00 -0.00000000000E+00 -0.61258964094E+03  0.61258964094E+03  0.00000000000E+00 0. -1.
      99926    2    1    2    0    0 -0.88817841970E-15  0.71054273576E-14 -0.53009162745E+03  0.69508765443E+03  0.44961062471E+03 0.  0.
      99925    2    3    3    0    0  0.69707057983E+01  0.58348854851E+02 -0.47548511181E+03  0.54648563812E+03  0.26288263829E+03 0.  0.
         25    1    4    4    0    0  0.39949653729E+02  0.18689690699E+02 -0.20732474129E+03  0.24612260323E+03  0.12509000000E+03 0.  0.
         25    1    4    4    0    0 -0.32978947930E+02  0.39659164151E+02 -0.26816037053E+03  0.30036303489E+03  0.12509000000E+03 0.  0.
         25    1    3    3    0    0 -0.69707057983E+01 -0.58348854851E+02 -0.54606515636E+02  0.14860201631E+03  0.12509000000E+03 0.  0.
<mgrwt>
<rscale>  2 0.44961062E+03</rscale>
<asrwt>0</asrwt>
<pdfrwt beam="1">  1       21 0.12132061E-01 0.44961062E+03</pdfrwt>
<pdfrwt beam="2">  1       21 0.90086709E-01 0.44961062E+03</pdfrwt>
<totfact> 0.55486983E+04</totfact>
</mgrwt>
</event>
<event>
 7    0  0.4737014E-002  0.4595359E+03  0.7546771E-02  0.1024916E+00
         21   -1    0    0  502  501  0.00000000000E+00  0.00000000000E+00  0.52817060908E+02  0.52817060908E+02  0.00000000000E+00 0. -1.
         21   -1    0    0  501  502 -0.00000000000E+00 -0.00000000000E+00 -0.99955051126E+03  0.99955051126E+03  0.00000000000E+00 0. -1.
      99926    2    1    2    0    0 -0.71054273576E-14  0.14210854715E-13 -0.94673345035E+03  0.10523675722E+04  0.45953594085E+03 0.  0.
      99925    2    3    3    0    0  0.44374562182E+02 -0.68814510251E+02 -0.78584242959E+03  0.83273613714E+03  0.26305248786E+03 0.  0.
         25    1    4    4    0    0  0.22044990562E+02 -0.59444393772E+02 -0.50926986006E+03  0.52822619778E+03  0.12509000000E+03 0.  0.
         25    1    4    4    0    0  0.22329571620E+02 -0.93701164791E+01 -0.27657256953E+03  0.30450993936E+03  0.12509000000E+03 0.  0.
         25    1    3    3    0    0 -0.44374562182E+02  0.68814510251E+02 -0.16089102077E+03  0.21963143503E+03  0.12509000000E+03 0.  0.
<mgrwt>
<rscale>  2 0.45953594E+03</rscale>
<asrwt>0</asrwt>
<pdfrwt beam="1">  1       21 0.77672143E-02 0.45953594E+03</pdfrwt>
<pdfrwt beam="2">  1       21 0.14699273E+00 0.45953594E+03</pdfrwt>
<totfact> 0.35902611E+04</totfact>
</mgrwt>
</event>
<event>
 7    0  0.4737014E-002  0.4540416E+03  0.7546771E-02  0.1026524E+00
         21   -1    0    0  502  501  0.00000000000E+00  0.00000000000E+00  0.12743754040E+02  0.12743754040E+02  0.00000000000E+00 0.  1.
         21   -1    0    0  501  502 -0.00000000000E+00 -0.00000000000E+00 -0.40442125906E+04  0.40442125906E+04  0.00000000000E+00 0.  1.
      99926    2    1    2    0    0  0.00000000000E+00  0.00000000000E+00 -0.40314688366E+04  0.40569563447E+04  0.45404163043E+03 0.  0.
      99925    2    3    3    0    0  0.58394812316E+02 -0.39778701108E+02 -0.33187667946E+04  0.33299185136E+04  0.26296762267E+03 0.  0.
         25    1    4    4    0    0  0.40090717040E+02 -0.53454129968E+02 -0.14888832071E+04  0.14956220519E+04  0.12509000000E+03 0.  0.
         25    1    4    4    0    0  0.18304095276E+02  0.13675428860E+02 -0.18298835875E+04  0.18342964616E+04  0.12509000000E+03 0.  0.
         25    1    3    3    0    0 -0.58394812316E+02  0.39778701108E+02 -0.71270204195E+03  0.72703783111E+03  0.12509000000E+03 0.  0.
<mgrwt>
<rscale>  2 0.45404163E+03</rscale>
<asrwt>0</asrwt>
<pdfrwt beam="1">  1       21 0.18740805E-02 0.45404163E+03</pdfrwt>
<pdfrwt beam="2">  1       21 0.59473746E+00 0.45404163E+03</pdfrwt>
<totfact> 0.40011563E+02</totfact>
</mgrwt>
</event>
<event>
 7    0  0.4737014E-002  0.4575817E+03  0.7546771E-02  0.1025485E+00
         21   -1    0    0  502  501  0.00000000000E+00  0.00000000000E+00  0.20243482834E+03  0.20243482834E+03  0.00000000000E+00 0.  1.
         21   -1    0    0  501  502 -0.00000000000E+00 -0.00000000000E+00 -0.25857824338E+03  0.25857824338E+03  0.00000000000E+00 0.  1.
      99926    2    1    2    0    0  0.71054273576E-14  0.14210854715E-13 -0.56143415046E+02  0.46101307172E+03  0.45758165309E+03 0.  0.
      99925    2    3    3    0    0  0.52573328993E+02  0.10251134341E+03 -0.42974708211E+02  0.29044504016E+03  0.26313298038E+03 0.  0.
         25    1    4    4    0    0 -0.11302511995E+02  0.30848218622E+02 -0.25212317025E+02  0.13176694729E+03  0.12509000000E+03 0.  0.
         25    1    3    3    0    0 -0.52573328993E+02 -0.10251134341E+03 -0.13168706835E+02  0.17056803155E+03  0.12509000000E+03 0.  0.
         25    1    4    4    0    0  0.63875840987E+02  0.71663124784E+02 -0.17762391186E+02  0.15867809287E+03  0.12509000000E+03 0.  0.
<mgrwt>
<rscale>  2 0.45758165E+03</rscale>
<asrwt>0</asrwt>
<pdfrwt beam="1">  1       21 0.29769828E-01 0.45758165E+03</pdfrwt>
<pdfrwt beam="2">  1       21 0.38026212E-01 0.45758165E+03</pdfrwt>
<totfact> 0.66722429E+04</totfact>
</mgrwt>
</event>
<event>
 7    0  0.4737014E-002  0.4630194E+03  0.7546771E-02  0.1023909E+00
         21   -1    0    0  502  501  0.00000000000E+00  0.00000000000E+00  0.13356804888E+03  0.13356804888E+03  0.00000000000E+00 0. -1.
         21   -1    0    0  501  502 -0.00000000000E+00 -0.00000000000E+00 -0.40126911414E+03  0.40126911414E+03  0.00000000000E+00 0. -1.
      99926    2    1    2    0    0  0.00000000000E+00  0.00000000000E+00 -0.26770106525E+03  0.53483716302E+03  0.46301936311E+03 0.  0.
      99925    2    3    3    0    0 -0.84493467418E+02 -0.77442156685E+02 -0.12427333219E+03  0.31267628352E+03  0.26303262823E+03 0.  0.
         25    1    4    4    0    0 -0.44887898427E+02 -0.43728386509E+02 -0.10694192787E+03  0.17609991269E+03  0.12509000000E+03 0.  0.
         25    1    3    3    0    0  0.84493467418E+02  0.77442156685E+02 -0.14342773306E+03  0.22216087950E+03  0.12509000000E+03 0.  0.
         25    1    4    4    0    0 -0.39605568991E+02 -0.33713770177E+02 -0.17331404319E+02  0.13657637083E+03  0.12509000000E+03 0.  0.
<mgrwt>
<rscale>  2 0.46301936E+03</rscale>
<asrwt>0</asrwt>
<pdfrwt beam="1">  1       21 0.19642360E-01 0.46301936E+03</pdfrwt>
<pdfrwt beam="2">  1       21 0.59010164E-01 0.46301936E+03</pdfrwt>
<totfact> 0.59037547E+04</totfact>
</mgrwt>
</event>
<event>
 7    0  0.4737014E-002  0.4582469E+03  0.7546771E-02  0.1025291E+00
         21   -1    0    0  502  501  0.00000000000E+00  0.00000000000E+00  0.11665600146E+04  0.11665600146E+04  0.00000000000E+00 0.  1.
         21   -1    0    0  501  502 -0.00000000000E+00 -0.00000000000E+00 -0.45002012160E+02  0.45002012160E+02  0.00000000000E+00 0.  1.
      99926    2    1    2    0    0  0.00000000000E+00  0.00000000000E+00  0.11215580025E+04  0.12115620268E+04  0.45824686781E+03 0.  0.
      99925    2    3    3    0    0 -0.88743635392E+02 -0.65641149796E+02  0.79911161872E+03  0.84851468571E+03  0.26308477594E+03 0.  0.
         25    1    4    4    0    0 -0.86805800999E+02 -0.42082366560E+02  0.44878722892E+03  0.47577689899E+03  0.12509000000E+03 0.  0.
         25    1    4    4    0    0 -0.19378343929E+01 -0.23558783236E+02  0.35032438979E+03  0.37273778673E+03  0.12509000000E+03 0.  0.
         25    1    3    3    0    0  0.88743635392E+02  0.65641149796E+02  0.32244638375E+03  0.36304734107E+03  0.12509000000E+03 0.  0.
<mgrwt>
<rscale>  2 0.45824687E+03</rscale>
<asrwt>0</asrwt>
<pdfrwt beam="1">  1       21 0.17155292E+00 0.45824687E+03</pdfrwt>
<pdfrwt beam="2">  1       21 0.66179437E-02 0.45824687E+03</pdfrwt>
<totfact> 0.31000185E+04</totfact>
</mgrwt>
</event>
<event>
 7    0  0.4737014E-002  0.4564208E+03  0.7546771E-02  0.1025824E+00
         21   -1    0    0  502  501  0.00000000000E+00  0.00000000000E+00  0.82749841807E+03  0.82749841807E+03  0.00000000000E+00 0.  1.
         21   -1    0    0  501  502 -0.00000000000E+00 -0.00000000000E+00 -0.62936668719E+02  0.62936668719E+02  0.00000000000E+00 0.  1.
      99926    2    1    2    0    0 -0.14210854715E-13  0.00000000000E+00  0.76456174935E+03  0.89043508678E+03  0.45642083127E+03 0.  0.
      99925    2    3    3    0    0  0.97038008382E+02 -0.72359754599E+01  0.36261706841E+03  0.45837517306E+03  0.26295993339E+03 0.  0.
         25    1    4    4    0    0  0.90920345223E+02 -0.10952750809E+02  0.19570012576E+03  0.24966481380E+03  0.12509000000E+03 0.  0.
         25    1    3    3    0    0 -0.97038008382E+02  0.72359754599E+01  0.40194468094E+03  0.43205991372E+03  0.12509000000E+03 0.  0.
         25    1    4    4    0    0  0.61176631591E+01  0.37167753493E+01  0.16691694264E+03  0.20871035926E+03  0.12509000000E+03 0.  0.
<mgrwt>
<rscale>  2 0.45642083E+03</rscale>
<asrwt>0</asrwt>
<pdfrwt beam="1">  1       21 0.12169094E+00 0.45642083E+03</pdfrwt>
<pdfrwt beam="2">  1       21 0.92553929E-02 0.45642083E+03</pdfrwt>
<totfact> 0.43167540E+04</totfact>
</mgrwt>
</event>
<event>
 7    0  0.4737014E-002  0.4610161E+03  0.7546771E-02  0.1024487E+00
         21   -1    0    0  502  501  0.00000000000E+00  0.00000000000E+00  0.34989212874E+03  0.34989212874E+03  0.00000000000E+00 0. -1.
         21   -1    0    0  501  502 -0.00000000000E+00 -0.00000000000E+00 -0.15185811192E+03  0.15185811192E+03  0.00000000000E+00 0. -1.
      99926    2    1    2    0    0  0.00000000000E+00  0.14210854715E-13  0.19803401683E+03  0.50175024066E+03  0.46101608668E+03 0.  0.
      99925    2    3    3    0    0  0.60089725966E+02 -0.10022785818E+03  0.14601102599E+03  0.32283601988E+03  0.26314915409E+03 0.  0.
         25    1    4    4    0    0 -0.65402813727E+01 -0.29606951547E+02  0.77979634642E+02  0.15049145617E+03  0.12509000000E+03 0.  0.
         25    1    3    3    0    0 -0.60089725966E+02  0.10022785818E+03  0.52022990836E+02  0.17891422078E+03  0.12509000000E+03 0.  0.
         25    1    4    4    0    0  0.66630007338E+02 -0.70620906635E+02  0.68031391347E+02  0.17234456371E+03  0.12509000000E+03 0.  0.
<mgrwt>
<rscale>  2 0.46101609E+03</rscale>
<asrwt>0</asrwt>
<pdfrwt beam="1">  1       21 0.51454725E-01 0.46101609E+03</pdfrwt>
<pdfrwt beam="2">  1       21 0.22332075E-01 0.46101609E+03</pdfrwt>
<totfact> 0.62127416E+04</totfact>
</mgrwt>
</event>
<event>
 7    0  0.4737014E-002  0.4515738E+03  0.7546771E-02  0.1027254E+00
         21   -1    0    0  502  501  0.00000000000E+00  0.00000000000E+00  0.61782507165E+02  0.61782507165E+02  0.00000000000E+00 0.  1.
         21   -1    0    0  501  502 -0.00000000000E+00 -0.00000000000E+00 -0.82514821060E+03  0.82514821060E+03  0.00000000000E+00 0.  1.
      99926    2    1    2    0    0  0.35527136788E-14  0.17763568394E-14 -0.76336570344E+03  0.88693071777E+03  0.45157380453E+03 0.  0.
      99925    2    3    3    0    0  0.31010517054E+02 -0.16360036740E+01 -0.68898220515E+03  0.73811962412E+03  0.26298245534E+03 0.  0.
         25    1    3    3    0    0 -0.31010517054E+02  0.16360036740E+01 -0.74383498286E+02  0.14881109365E+03  0.12509000000E+03 0.  0.
         25    1    4    4    0    0  0.37699263631E-01 -0.32922353737E+02 -0.28631010737E+03  0.31417330962E+03  0.12509000000E+03 0.  0.
         25    1    4    4    0    0  0.30972817791E+02  0.31286350063E+02 -0.40267209778E+03  0.42394631450E+03  0.12509000000E+03 0.  0.
<mgrwt>
<rscale>  2 0.45157380E+03</rscale>
<asrwt>0</asrwt>
<pdfrwt beam="1">  1       21 0.90856631E-02 0.45157380E+03</pdfrwt>
<pdfrwt beam="2">  1       21 0.12134532E+00 0.45157380E+03</pdfrwt>
<totfact> 0.44998841E+04</totfact>
</mgrwt>
</event>
<event>
 7    0  0.4737014E-002  0.4540739E+03  0.7546771E-02  0.1026514E+00
         21   -1    0    0  502  501  0.00000000000E+00  0.00000000000E+00  0.55827299990E+03  0.55827299990E+03  0.00000000000E+00 0. -1.
         21   -1    0    0  501  502 -0.00000000000E+00 -0.00000000000E+00 -0.92330758539E+02  0.92330758539E+02  0.00000000000E+00 0. -1.
      99926    2    1    2    0    0  0.00000000000E+00  0.14210854715E-13  0.46594224136E+03  0.65060375844E+03  0.45407386867E+03 0.  0.
      99925    2    3    3    0    0 -0.60301382683E+02  0.85654425998E+02  0.23556128449E+03  0.36829925823E+03  0.26302526004E+03 0.  0.
         25    1    4    4    0    0 -0.46841507503E+02  0.74594776971E+01  0.12877985638E+03  0.18569203037E+03  0.12509000000E+03 0.  0.
         25    1    4    4    0    0 -0.13459875180E+02  0.78194948301E+02  0.10678142811E+03  0.18260722786E+03  0.12509000000E+03 0.  0.
         25    1    3    3    0    0  0.60301382683E+02 -0.85654425998E+02  0.23038095687E+03  0.28230450021E+03  0.12509000000E+03 0.  0.
<mgrwt>
<rscale>  2 0.45407387E+03</rscale>
<asrwt>0</asrwt>
<pdfrwt beam="1">  1       21 0.82098969E-01 0.45407387E+03</pdfrwt>
<pdfrwt beam="2">  1       21 0.13578053E-01 0.45407387E+03</pdfrwt>
<totfact> 0.56075287E+04</totfact>
</mgrwt>
</event>
<event>
 7    0  0.4737014E-002  0.4467406E+03  0.7546771E-02  0.1028699E+00
         21   -1    0    0  502  501  0.00000000000E+00  0.00000000000E+00  0.87227195844E+02  0.87227195844E+02  0.00000000000E+00 0.  1.
         21   -1    0    0  501  502 -0.00000000000E+00 -0.00000000000E+00 -0.57200376986E+03  0.57200376986E+03  0.00000000000E+00 0.  1.
      99926    2    1    2    0    0 -0.14210854715E-13  0.00000000000E+00 -0.48477657402E+03  0.65923096570E+03  0.44674057285E+03 0.  0.
      99925    2    3    3    0    0  0.89982705400E+02 -0.50694175445E+02 -0.27662249679E+03  0.39533247261E+03  0.26287063638E+03 0.  0.
         25    1    3    3    0    0 -0.89982705400E+02  0.50694175445E+02 -0.20815407722E+03  0.26389849310E+03  0.12509000000E+03 0.  0.
         25    1    4    4    0    0  0.23398559379E+02 -0.14487120296E+02 -0.17653975546E+03  0.21810814426E+03  0.12509000000E+03 0.  0.
         25    1    4    4    0    0  0.66584146021E+02 -0.36207055149E+02 -0.10008274133E+03  0.17722432834E+03  0.12509000000E+03 0.  0.
<mgrwt>
<rscale>  2 0.44674057E+03</rscale>
<asrwt>0</asrwt>
<pdfrwt beam="1">  1       21 0.12827529E-01 0.44674057E+03</pdfrwt>
<pdfrwt beam="2">  1       21 0.84118199E-01 0.44674057E+03</pdfrwt>
<totfact> 0.58916312E+04</totfact>
</mgrwt>
</event>
<event>
 7    0  0.4737014E-002  0.4514150E+03  0.7546771E-02  0.1027301E+00
         21   -1    0    0  502  501  0.00000000000E+00  0.00000000000E+00  0.30257036081E+02  0.30257036081E+02  0.00000000000E+00 0. -1.
         21   -1    0    0  501  502 -0.00000000000E+00 -0.00000000000E+00 -0.16837037166E+04  0.16837037166E+04  0.00000000000E+00 0. -1.
      99926    2    1    2    0    0 -0.71054273576E-14  0.00000000000E+00 -0.16534466805E+04  0.17139607527E+04  0.45141503786E+03 0.  0.
      99925    2    3    3    0    0  0.40218536890E+02  0.87157609035E+02 -0.12459705391E+04  0.12770416601E+04  0.26301870245E+03 0.  0.
         25    1    4    4    0    0  0.51714586839E+02  0.68766966268E+02 -0.73704866137E+03  0.75252344247E+03  0.12509000000E+03 0.  0.
         25    1    3    3    0    0 -0.40218536890E+02 -0.87157609035E+02 -0.40747614138E+03  0.43691909253E+03  0.12509000000E+03 0.  0.
         25    1    4    4    0    0 -0.11496049948E+02  0.18390642767E+02 -0.50892187776E+03  0.52451821768E+03  0.12509000000E+03 0.  0.
<mgrwt>
<rscale>  2 0.45141504E+03</rscale>
<asrwt>0</asrwt>
<pdfrwt beam="1">  1       21 0.44495627E-02 0.45141504E+03</pdfrwt>
<pdfrwt beam="2">  1       21 0.24760357E+00 0.45141504E+03</pdfrwt>
<totfact> 0.19510120E+04</totfact>
</mgrwt>
</event>
<event>
 7    0  0.4737014E-002  0.4386402E+03  0.7546771E-02  0.1031165E+00
         21   -1    0    0  502  501  0.00000000000E+00  0.00000000000E+00  0.70477288465E+03  0.70477288465E+03  0.00000000000E+00 0.  1.
         21   -1    0    0  501  502 -0.00000000000E+00 -0.00000000000E+00 -0.68250800396E+02  0.68250800396E+02  0.00000000000E+00 0.  1.
      99926    2    1    2    0    0  0.00000000000E+00 -0.44408920985E-15  0.63652208425E+03  0.77302368504E+03  0.43864023288E+03 0.  0.
      99925    2    3    3    0    0 -0.83617842916E+02  0.37466845074E+01  0.49370689730E+03  0.56553954824E+03  0.26283549778E+03 0.  0.
         25    1    4    4    0    0 -0.31651066828E+02  0.11534033178E+02  0.16390328322E+03  0.20891773094E+03  0.12509000000E+03 0.  0.
         25    1    4    4    0    0 -0.51966776088E+02 -0.77873486703E+01  0.32980361408E+03  0.35662181730E+03  0.12509000000E+03 0.  0.
         25    1    3    3    0    0  0.83617842916E+02 -0.37466845074E+01  0.14281518696E+03  0.20748413680E+03  0.12509000000E+03 0.  0.
<mgrwt>
<rscale>  2 0.43864023E+03</rscale>
<asrwt>0</asrwt>
<pdfrwt beam="1">  1       21 0.10364307E+00 0.43864023E+03</pdfrwt>
<pdfrwt beam="2">  1       21 0.10036883E-01 0.43864023E+03</pdfrwt>
<totfact> 0.55943231E+04</totfact>
</mgrwt>
</event>
<event>
 7    0  0.4737014E-002  0.4611884E+03  0.7546771E-02  0.1024437E+00
         21   -1    0    0  502  501  0.00000000000E+00  0.00000000000E+00  0.21349125536E+03  0.21349125536E+03  0.00000000000E+00 0.  1.
         21   -1    0    0  501  502 -0.00000000000E+00 -0.00000000000E+00 -0.24906722828E+03  0.24906722828E+03  0.00000000000E+00 0.  1.
      99926    2    1    2    0    0 -0.14210854715E-13 -0.14210854715E-13 -0.35575972919E+02  0.46255848364E+03  0.46118835733E+03 0.  0.
      99925    2    3    3    0    0 -0.76321107187E+02 -0.88618349956E+02 -0.43938088574E+02  0.29110715985E+03  0.26293478191E+03 0.  0.
         25    1    4    4    0    0 -0.75392107446E+02 -0.58498821297E+02 -0.40187123988E+02  0.16238409711E+03  0.12509000000E+03 0.  0.
         25    1    4    4    0    0 -0.92899974151E+00 -0.30119528659E+02 -0.37509645861E+01  0.12872306275E+03  0.12509000000E+03 0.  0.
         25    1    3    3    0    0  0.76321107187E+02  0.88618349956E+02  0.83621156551E+01  0.17145132379E+03  0.12509000000E+03 0.  0.
<mgrwt>
<rscale>  2 0.46118836E+03</rscale>
<asrwt>0</asrwt>
<pdfrwt beam="1">  1       21 0.31395773E-01 0.46118836E+03</pdfrwt>
<pdfrwt beam="2">  1       21 0.36627534E-01 0.46118836E+03</pdfrwt>
<totfact> 0.64739543E+04</totfact>
</mgrwt>
</event>
<event>
 7    0  0.4737014E-002  0.4563347E+03  0.7546771E-02  0.1025850E+00
         21   -1    0    0  502  501  0.00000000000E+00  0.00000000000E+00  0.52983925762E+02  0.52983925762E+02  0.00000000000E+00 0. -1.
         21   -1    0    0  501  502 -0.00000000000E+00 -0.00000000000E+00 -0.98256859436E+03  0.98256859436E+03  0.00000000000E+00 0. -1.
      99926    2    1    2    0    0 -0.71054273576E-14  0.00000000000E+00 -0.92958466860E+03  0.10355525201E+04  0.45633470812E+03 0.  0.
      99925    2    3    3    0    0  0.58285200119E+02  0.87813730478E+02 -0.68453915345E+03  0.74092864396E+03  0.26319761969E+03 0.  0.
         25    1    3    3    0    0 -0.58285200119E+02 -0.87813730478E+02 -0.24504551514E+03  0.29462387616E+03  0.12509000000E+03 0.  0.
         25    1    4    4    0    0  0.35467496243E+02  0.19528383995E+01 -0.32111849589E+03  0.34644819724E+03  0.12509000000E+03 0.  0.
         25    1    4    4    0    0  0.22817703876E+02  0.85860892079E+02 -0.36342065756E+03  0.39448044671E+03  0.12509000000E+03 0.  0.
<mgrwt>
<rscale>  2 0.45633471E+03</rscale>
<asrwt>0</asrwt>
<pdfrwt beam="1">  1       21 0.77917544E-02 0.45633471E+03</pdfrwt>
<pdfrwt beam="2">  1       21 0.14449537E+00 0.45633471E+03</pdfrwt>
<totfact> 0.37420605E+04</totfact>
</mgrwt>
</event>
<event>
 7    0  0.4737014E-002  0.4521335E+03  0.7546771E-02  0.1027088E+00
         21   -1    0    0  502  501  0.00000000000E+00  0.00000000000E+00  0.30666932239E+03  0.30666932239E+03  0.00000000000E+00 0. -1.
         21   -1    0    0  501  502 -0.00000000000E+00 -0.00000000000E+00 -0.16664915719E+03  0.16664915719E+03  0.00000000000E+00 0. -1.
      99926    2    1    2    0    0  0.00000000000E+00  0.00000000000E+00  0.14002016520E+03  0.47331847958E+03  0.45213353830E+03 0.  0.
      99925    2    3    3    0    0  0.44115979422E+02 -0.71214911209E+02  0.12612078196E+02  0.27609243680E+03  0.26277402064E+03 0.  0.
         25    1    4    4    0    0 -0.37264437674E+01 -0.40792721964E+01 -0.45907855197E+01  0.12529609035E+03  0.12509000000E+03 0.  0.
         25    1    4    4    0    0  0.47842423190E+02 -0.67135639012E+02  0.17202863716E+02  0.15079634645E+03  0.12509000000E+03 0.  0.
         25    1    3    3    0    0 -0.44115979422E+02  0.71214911209E+02  0.12740808701E+03  0.19722604279E+03  0.12509000000E+03 0.  0.
<mgrwt>
<rscale>  2 0.45213354E+03</rscale>
<asrwt>0</asrwt>
<pdfrwt beam="1">  1       21 0.45098430E-01 0.45213354E+03</pdfrwt>
<pdfrwt beam="2">  1       21 0.24507229E-01 0.45213354E+03</pdfrwt>
<totfact> 0.68740208E+04</totfact>
</mgrwt>
</event>
<event>
 7    0  0.4737014E-002  0.4504839E+03  0.7546771E-02  0.1027578E+00
         21   -1    0    0  502  501  0.00000000000E+00  0.00000000000E+00  0.89697919899E+03  0.89697919899E+03  0.00000000000E+00 0.  1.
         21   -1    0    0  501  502 -0.00000000000E+00 -0.00000000000E+00 -0.56560872874E+02  0.56560872874E+02  0.00000000000E+00 0.  1.
      99926    2    1    2    0    0 -0.14210854715E-13  0.71054273576E-14  0.84041832611E+03  0.95354007186E+03  0.45048385740E+03 0.  0.
      99925    2    3    3    0    0  0.70106394494E+02 -0.35793709043E+02  0.69023126176E+03  0.74282756973E+03  0.26301617342E+03 0.  0.
         25    1    4    4    0    0  0.29041875527E+02  0.11743332227E+02  0.25688414183E+03  0.28743400427E+03  0.12509000000E+03 0.  0.
         25    1    3    3    0    0 -0.70106394494E+02  0.35793709043E+02  0.15018706435E+03  0.21071250213E+03  0.12509000000E+03 0.  0.
         25    1    4    4    0    0  0.41064518967E+02 -0.47537041270E+02  0.43334711993E+03  0.45539356546E+03  0.12509000000E+03 0.  0.
<mgrwt>
<rscale>  2 0.45048386E+03</rscale>
<asrwt>0</asrwt>
<pdfrwt beam="1">  1       21 0.13190870E+00 0.45048386E+03</pdfrwt>
<pdfrwt beam="2">  1       21 0.83177759E-02 0.45048386E+03</pdfrwt>
<totfact> 0.42478134E+04</totfact>
</mgrwt>
</event>
<event>
 7    0  0.4737014E-002  0.4554913E+03  0.7546771E-02  0.1026097E+00
         21   -1    0    0  502  501  0.00000000000E+00  0.00000000000E+00  0.15318483012E+03  0.15318483012E+03  0.00000000000E+00 0.  1.
         21   -1    0    0  501  502 -0.00000000000E+00 -0.00000000000E+00 -0.33859801264E+03  0.33859801264E+03  0.00000000000E+00 0.  1.
      99926    2    1    2    0    0  0.00000000000E+00  0.00000000000E+00 -0.18541318252E+03  0.49178284276E+03  0.45549129100E+03 0.  0.
      99925    2    3    3    0    0 -0.34218029415E+02 -0.71928938879E+02 -0.20407408682E+03  0.34231584562E+03  0.26303851328E+03 0.  0.
         25    1    4    4    0    0 -0.16362951131E+02 -0.77213686778E+02 -0.10015306847E+03  0.17862767092E+03  0.12509000000E+03 0.  0.
         25    1    3    3    0    0  0.34218029415E+02  0.71928938879E+02  0.18660904297E+02  0.14946699714E+03  0.12509000000E+03 0.  0.
         25    1    4    4    0    0 -0.17855078284E+02  0.52847478986E+01 -0.10392101835E+03  0.16368817470E+03  0.12509000000E+03 0.  0.
<mgrwt>
<rscale>  2 0.45549129E+03</rscale>
<asrwt>0</asrwt>
<pdfrwt beam="1">  1       21 0.22527181E-01 0.45549129E+03</pdfrwt>
<pdfrwt beam="2">  1       21 0.49793825E-01 0.45549129E+03</pdfrwt>
<totfact> 0.65595670E+04</totfact>
</mgrwt>
</event>
<event>
 7    0  0.4737014E-002  0.4205273E+03  0.7546771E-02  0.1036895E+00
         21   -1    0    0  502  501  0.00000000000E+00  0.00000000000E+00  0.61231506928E+03  0.61231506928E+03  0.00000000000E+00 0.  1.
         21   -1    0    0  501  502 -0.00000000000E+00 -0.00000000000E+00 -0.72202696514E+02  0.72202696514E+02  0.00000000000E+00 0.  1.
      99926    2    1    2    0    0  0.35527136788E-14  0.00000000000E+00  0.54011237276E+03  0.68451776579E+03  0.42052728386E+03 0.  0.
      99925    2    3    3    0    0 -0.16963367291E+02  0.72345449877E+02  0.32189852042E+03  0.42224612531E+03  0.26296675254E+03 0.  0.
         25    1    3    3    0    0  0.16963367291E+02 -0.72345449877E+02  0.21821385234E+03  0.26227164048E+03  0.12509000000E+03 0.  0.
         25    1    4    4    0    0  0.22897726321E+02  0.56711661814E+02  0.14082294863E+03  0.19803820191E+03  0.12509000000E+03 0.  0.
         25    1    4    4    0    0 -0.39861093612E+02  0.15633788064E+02  0.18107557180E+03  0.22420792340E+03  0.12509000000E+03 0.  0.
<mgrwt>
<rscale>  2 0.42052728E+03</rscale>
<asrwt>0</asrwt>
<pdfrwt beam="1">  1       21 0.90046331E-01 0.42052728E+03</pdfrwt>
<pdfrwt beam="2">  1       21 0.10618044E-01 0.42052728E+03</pdfrwt>
<totfact> 0.71194785E+04</totfact>
</mgrwt>
</event>
<event>
 7    0  0.4737014E-002  0.5473355E+03  0.7546771E-02  0.1002113E+00
         21   -1    0    0  502  501  0.00000000000E+00  0.00000000000E+00  0.29043532846E+03  0.29043532846E+03  0.00000000000E+00 0. -1.
         21   -1    0    0  501  502 -0.00000000000E+00 -0.00000000000E+00 -0.25786823621E+03  0.25786823621E+03  0.00000000000E+00 0. -1.
      99926    2    1    2    0    0  0.00000000000E+00  0.00000000000E+00  0.32567092251E+02  0.54830356466E+03  0.54733553103E+03 0.  0.
      99925    2    3    3    0    0  0.14110264597E+03  0.10792688112E+03  0.76934778535E+02  0.32655107189E+03  0.26297998790E+03 0.  0.
         25    1    4    4    0    0  0.11182754791E+03  0.42051103868E+02  0.42961243715E+02  0.17823263553E+03  0.12509000000E+03 0.  0.
         25    1    3    3    0    0 -0.14110264597E+03 -0.10792688112E+03 -0.44367686284E+02  0.22175249278E+03  0.12509000000E+03 0.  0.
         25    1    4    4    0    0  0.29275098059E+02  0.65875777250E+02  0.33973534820E+02  0.14831843636E+03  0.12509000000E+03 0.  0.
<mgrwt>
<rscale>  2 0.54733553E+03</rscale>
<asrwt>0</asrwt>
<pdfrwt beam="1">  1       21 0.42711077E-01 0.54733553E+03</pdfrwt>
<pdfrwt beam="2">  1       21 0.37921800E-01 0.54733553E+03</pdfrwt>
<totfact> 0.31632105E+04</totfact>
</mgrwt>
</event>
<event>
 7    0  0.4737014E-002  0.4543741E+03  0.7546771E-02  0.1026426E+00
         21   -1    0    0  502  501  0.00000000000E+00  0.00000000000E+00  0.16581136606E+03  0.16581136606E+03  0.00000000000E+00 0. -1.
         21   -1    0    0  501  502 -0.00000000000E+00 -0.00000000000E+00 -0.31128121588E+03  0.31128121588E+03  0.00000000000E+00 0. -1.
      99926    2    1    2    0    0 -0.14210854715E-13 -0.71054273576E-14 -0.14546984982E+03  0.47709258194E+03  0.45437413498E+03 0.  0.
      99925    2    3    3    0    0  0.10560485829E+03  0.30572134500E+02 -0.11677151997E+03  0.30810103264E+03  0.26306580343E+03 0.  0.
         25    1    4    4    0    0  0.48053458078E+02  0.52737122407E+02 -0.75817549684E+02  0.16274565387E+03  0.12509000000E+03 0.  0.
         25    1    4    4    0    0  0.57551400208E+02 -0.22164987907E+02 -0.40953970283E+02  0.14535537877E+03  0.12509000000E+03 0.  0.
         25    1    3    3    0    0 -0.10560485829E+03 -0.30572134500E+02 -0.28698329850E+02  0.16899154931E+03  0.12509000000E+03 0.  0.
<mgrwt>
<rscale>  2 0.45437413E+03</rscale>
<asrwt>0</asrwt>
<pdfrwt beam="1">  1       21 0.24384024E-01 0.45437413E+03</pdfrwt>
<pdfrwt beam="2">  1       21 0.45776649E-01 0.45437413E+03</pdfrwt>
<totfact> 0.67245760E+04</totfact>
</mgrwt>
</event>
<event>
 6    0  0.4737014E-002  0.4227657E+03  0.7546771E-02  0.1036170E+00
         21   -1    0    0  502  501  0.00000000000E+00  0.00000000000E+00  0.64780443047E+03  0.64780443047E+03  0.00000000000E+00 0. -1.
         21   -1    0    0  501  502 -0.00000000000E+00 -0.00000000000E+00 -0.68975612885E+02  0.68975612885E+02  0.00000000000E+00 0. -1.
      99926    2    1    2    0    0 -0.35527136788E-14  0.88817841970E-15  0.57882881759E+03  0.71678004336E+03  0.42276569218E+03 0.  0.
         25    1    3    3    0    0  0.17027599382E+00 -0.39296723626E+02  0.11508748718E+03  0.17446174161E+03  0.12509000000E+03 0.  0.
         25    1    3    3    0    0  0.29048978217E+02 -0.23332708611E+01  0.32141037352E+03  0.34612342248E+03  0.12509000000E+03 0.  0.
         25    1    3    3    0    0 -0.29219254211E+02  0.41629994488E+02  0.14233095689E+03  0.19619487926E+03  0.12509000000E+03 0.  0.
<mgrwt>
<rscale>  2 0.42276569E+03</rscale>
<asrwt>0</asrwt>
<pdfrwt beam="1">  1       21 0.95265354E-01 0.42276569E+03</pdfrwt>
<pdfrwt beam="2">  1       21 0.10143473E-01 0.42276569E+03</pdfrwt>
<totfact> 0.67573730E+04</totfact>
</mgrwt>
</event>
<event>
 7    0  0.4737014E-002  0.4380494E+03  0.7546771E-02  0.1031347E+00
         21   -1    0    0  502  501  0.00000000000E+00  0.00000000000E+00  0.27125557952E+04  0.27125557952E+04  0.00000000000E+00 0. -1.
         21   -1    0    0  501  502 -0.00000000000E+00 -0.00000000000E+00 -0.17685103238E+02  0.17685103238E+02  0.00000000000E+00 0. -1.
      99926    2    1    2    0    0 -0.35527136788E-14 -0.14210854715E-13  0.26948706919E+04  0.27302408984E+04  0.43804944595E+03 0.  0.
      99925    2    3    3    0    0 -0.29184309427E+02 -0.66072095629E+02  0.13257258940E+04  0.13534975558E+04  0.26303847945E+03 0.  0.
         25    1    3    3    0    0  0.29184309427E+02  0.66072095629E+02  0.13691447979E+04  0.13767433426E+04  0.12509000000E+03 0.  0.
         25    1    4    4    0    0 -0.99810600833E+01  0.79688865737E+01  0.57511796132E+03  0.58870306798E+03  0.12509000000E+03 0.  0.
         25    1    4    4    0    0 -0.19203249343E+02 -0.74040982203E+02  0.75060793272E+03  0.76479448782E+03  0.12509000000E+03 0.  0.
<mgrwt>
<rscale>  2 0.43804945E+03</rscale>
<asrwt>0</asrwt>
<pdfrwt beam="1">  1       21 0.39890498E+00 0.43804945E+03</pdfrwt>
<pdfrwt beam="2">  1       21 0.26007524E-02 0.43804945E+03</pdfrwt>
<totfact> 0.57760670E+03</totfact>
</mgrwt>
</event>
<event>
 7    0  0.4737014E-002  0.4563385E+03  0.7546771E-02  0.1025849E+00
         21   -1    0    0  502  501  0.00000000000E+00  0.00000000000E+00  0.16037361995E+03  0.16037361995E+03  0.00000000000E+00 0.  1.
         21   -1    0    0  501  502 -0.00000000000E+00 -0.00000000000E+00 -0.32462449937E+03  0.32462449937E+03  0.00000000000E+00 0.  1.
      99926    2    1    2    0    0  0.00000000000E+00  0.00000000000E+00 -0.16425087942E+03  0.48499811932E+03  0.45633849756E+03 0.  0.
      99925    2    3    3    0    0 -0.44516427064E+02  0.68123485849E+02 -0.17734207707E+02  0.27586379695E+03  0.26299013430E+03 0.  0.
         25    1    3    3    0    0  0.44516427064E+02 -0.68123485849E+02 -0.14651667172E+03  0.20913432237E+03  0.12509000000E+03 0.  0.
         25    1    4    4    0    0 -0.19168545556E+02  0.14354535797E+02 -0.44293911786E+02  0.13484414914E+03  0.12509000000E+03 0.  0.
         25    1    4    4    0    0 -0.25347881507E+02  0.53768950052E+02  0.26559704079E+02  0.14101964781E+03  0.12509000000E+03 0.  0.
<mgrwt>
<rscale>  2 0.45633850E+03</rscale>
<asrwt>0</asrwt>
<pdfrwt beam="1">  1       21 0.23584356E-01 0.45633850E+03</pdfrwt>
<pdfrwt beam="2">  1       21 0.47738897E-01 0.45633850E+03</pdfrwt>
<totfact> 0.65637837E+04</totfact>
</mgrwt>
</event>
<event>
 7    0  0.4737014E-002  0.4695365E+03  0.7546771E-02  0.1022051E+00
         21   -1    0    0  502  501  0.00000000000E+00  0.00000000000E+00  0.40199751446E+03  0.40199751446E+03  0.00000000000E+00 0. -1.
         21   -1    0    0  501  502 -0.00000000000E+00 -0.00000000000E+00 -0.13710565150E+03  0.13710565150E+03  0.00000000000E+00 0. -1.
      99926    2    1    2    0    0 -0.35527136788E-14  0.00000000000E+00  0.26489186296E+03  0.53910316596E+03  0.46953649963E+03 0.  0.
      99925    2    3    3    0    0 -0.23593528784E+02 -0.63468208689E+02  0.28700572683E+03  0.39515387214E+03  0.26303883234E+03 0.  0.
         25    1    4    4    0    0  0.58453380073E+01  0.24509853580E+01  0.15692953037E+03  0.20078486225E+03  0.12509000000E+03 0.  0.
         25    1    3    3    0    0  0.23593528784E+02  0.63468208689E+02 -0.22113863875E+02  0.14394929382E+03  0.12509000000E+03 0.  0.
         25    1    4    4    0    0 -0.29438866791E+02 -0.65919194046E+02  0.13007619646E+03  0.19436900989E+03  0.12509000000E+03 0.  0.
<mgrwt>
<rscale>  2 0.46953650E+03</rscale>
<asrwt>0</asrwt>
<pdfrwt beam="1">  1       21 0.59117281E-01 0.46953650E+03</pdfrwt>
<pdfrwt beam="2">  1       21 0.20162596E-01 0.46953650E+03</pdfrwt>
<totfact> 0.55874014E+04</totfact>
</mgrwt>
</event>
<event>
 7    0  0.4737014E-002  0.4542992E+03  0.7546771E-02  0.1026448E+00
         21   -1    0    0  502  501  0.00000000000E+00  0.00000000000E+00  0.14303935034E+03  0.14303935034E+03  0.00000000000E+00 0.  1.
         21   -1    0    0  501  502 -0.00000000000E+00 -0.00000000000E+00 -0.36071848857E+03  0.36071848857E+03  0.00000000000E+00 0.  1.
      99926    2    1    2    0    0  0.71054273576E-14 -0.71054273576E-14 -0.21767913823E+03  0.50375783891E+03  0.45429918891E+03 0.  0.
      99925    2    3    3    0    0  0.53491001049E+02 -0.39069030675E+02 -0.23799516573E+03  0.36076159622E+03  0.26290597948E+03 0.  0.
         25    1    3    3    0    0 -0.53491001049E+02  0.39069030675E+02  0.20316027497E+02  0.14299624269E+03  0.12509000000E+03 0.  0.
         25    1    4    4    0    0 -0.88785519808E+01  0.19575139181E+01 -0.11274550161E+03  0.16864672181E+03  0.12509000000E+03 0.  0.
         25    1    4    4    0    0  0.62369553029E+02 -0.41026544593E+02 -0.12524966412E+03  0.19211487441E+03  0.12509000000E+03 0.  0.
<mgrwt>
<rscale>  2 0.45429919E+03</rscale>
<asrwt>0</asrwt>
<pdfrwt beam="1">  1       21 0.21035199E-01 0.45429919E+03</pdfrwt>
<pdfrwt beam="2">  1       21 0.53046836E-01 0.45429919E+03</pdfrwt>
<totfact> 0.65370337E+04</totfact>
</mgrwt>
</event>
<event>
 7    0  0.4737014E-002  0.4765931E+03  0.7546771E-02  0.1020076E+00
         21   -1    0    0  502  501  0.00000000000E+00  0.00000000000E+00  0.12119802870E+03  0.12119802870E+03  0.00000000000E+00 0. -1.
         21   -1    0    0  501  502 -0.00000000000E+00 -0.00000000000E+00 -0.46853268633E+03  0.46853268633E+03  0.00000000000E+00 0. -1.
      99926    2    1    2    0    0  0.00000000000E+00  0.00000000000E+00 -0.34733465764E+03  0.58973071503E+03  0.47659306736E+03 0.  0.
      99925    2    3    3    0    0  0.88680997167E+02  0.89405129612E+02 -0.26511275729E+03  0.39411490418E+03  0.26302887134E+03 0.  0.
         25    1    4    4    0    0  0.59591845955E+02  0.39144785789E+02 -0.84771014212E+02  0.16708421622E+03  0.12509000000E+03 0.  0.
         25    1    4    4    0    0  0.29089151211E+02  0.50260343823E+02 -0.18034174307E+03  0.22703068796E+03  0.12509000000E+03 0.  0.
         25    1    3    3    0    0 -0.88680997167E+02 -0.89405129612E+02 -0.82221900351E+02  0.19561581086E+03  0.12509000000E+03 0.  0.
<mgrwt>
<rscale>  2 0.47659307E+03</rscale>
<asrwt>0</asrwt>
<pdfrwt beam="1">  1       21 0.17823239E-01 0.47659307E+03</pdfrwt>
<pdfrwt beam="2">  1       21 0.68901867E-01 0.47659307E+03</pdfrwt>
<totfact> 0.50184965E+04</totfact>
</mgrwt>
</event>
<event>
 7    0  0.4737014E-002  0.4485869E+03  0.7546771E-02  0.1028144E+00
         21   -1    0    0  502  501  0.00000000000E+00  0.00000000000E+00  0.25037133529E+03  0.25037133529E+03  0.00000000000E+00 0. -1.
         21   -1    0    0  501  502 -0.00000000000E+00 -0.00000000000E+00 -0.20093176976E+03  0.20093176976E+03  0.00000000000E+00 0. -1.
      99926    2    1    2    0    0  0.00000000000E+00  0.00000000000E+00  0.49439565531E+02  0.45130310505E+03  0.44858691687E+03 0.  0.
      99925    2    3    3    0    0  0.56337150730E+01  0.16479319886E+02 -0.74931802851E+02  0.27404890311E+03  0.26302988326E+03 0.  0.
         25    1    3    3    0    0 -0.56337150730E+01 -0.16479319886E+02  0.12437136838E+03  0.17725420193E+03  0.12509000000E+03 0.  0.
         25    1    4    4    0    0  0.26799405483E+02  0.16882923526E+02 -0.70639293558E+02  0.14710764472E+03  0.12509000000E+03 0.  0.
         25    1    4    4    0    0 -0.21165690410E+02 -0.40360363976E+00 -0.42925092928E+01  0.12694125839E+03  0.12509000000E+03 0.  0.
<mgrwt>
<rscale>  2 0.44858692E+03</rscale>
<asrwt>0</asrwt>
<pdfrwt beam="1">  1       21 0.36819314E-01 0.44858692E+03</pdfrwt>
<pdfrwt beam="2">  1       21 0.29548790E-01 0.44858692E+03</pdfrwt>
<totfact> 0.72454295E+04</totfact>
</mgrwt>
</event>
<event>
 7    0  0.4737014E-002  0.4622378E+03  0.7546771E-02  0.1024134E+00
         21   -1    0    0  502  501  0.00000000000E+00  0.00000000000E+00  0.55990885457E+03  0.55990885457E+03  0.00000000000E+00 0.  1.
         21   -1    0    0  501  502 -0.00000000000E+00 -0.00000000000E+00 -0.95401131169E+02  0.95401131169E+02  0.00000000000E+00 0.  1.
      99926    2    1    2    0    0  0.00000000000E+00  0.00000000000E+00  0.46450772340E+03  0.65530998574E+03  0.46223776599E+03 0.  0.
      99925    2    3    3    0    0  0.66654749759E+02  0.99134840188E+02  0.27653307087E+03  0.39986419835E+03  0.26296438091E+03 0.  0.
         25    1    3    3    0    0 -0.66654749759E+02 -0.99134840188E+02  0.18797465253E+03  0.25544578739E+03  0.12509000000E+03 0.  0.
         25    1    4    4    0    0 -0.80899923567E+01  0.44314854916E+02  0.12031019452E+03  0.17930785077E+03  0.12509000000E+03 0.  0.
         25    1    4    4    0    0  0.74744742115E+02  0.54819985272E+02  0.15622287635E+03  0.22055634757E+03  0.12509000000E+03 0.  0.
<mgrwt>
<rscale>  2 0.46223777E+03</rscale>
<asrwt>0</asrwt>
<pdfrwt beam="1">  1       21 0.82339536E-01 0.46223777E+03</pdfrwt>
<pdfrwt beam="2">  1       21 0.14029578E-01 0.46223777E+03</pdfrwt>
<totfact> 0.52343589E+04</totfact>
</mgrwt>
</event>
<event>
 7    0  0.4737014E-002  0.4525222E+03  0.7546771E-02  0.1026973E+00
         21   -1    0    0  502  501  0.00000000000E+00  0.00000000000E+00  0.11042259446E+04  0.11042259446E+04  0.00000000000E+00 0.  1.
         21   -1    0    0  501  502 -0.00000000000E+00 -0.00000000000E+00 -0.46361974464E+02  0.46361974464E+02  0.00000000000E+00 0.  1.
      99926    2    1    2    0    0 -0.71054273576E-14  0.00000000000E+00  0.10578639701E+04  0.11505879191E+04  0.45252224275E+03 0.  0.
      99925    2    3    3    0    0  0.46359302018E+02 -0.90755249567E+02  0.55321086089E+03  0.62076911138E+03  0.26253825021E+03 0.  0.
         25    1    4    4    0    0 -0.11731530050E+02 -0.64144855344E+02  0.28519486015E+03  0.31817574958E+03  0.12509000000E+03 0.  0.
         25    1    3    3    0    0 -0.46359302018E+02  0.90755249567E+02  0.50465310925E+03  0.52981880769E+03  0.12509000000E+03 0.  0.
         25    1    4    4    0    0  0.58090832069E+02 -0.26610394223E+02  0.26801600074E+03  0.30259336179E+03  0.12509000000E+03 0.  0.
<mgrwt>
<rscale>  2 0.45252224E+03</rscale>
<asrwt>0</asrwt>
<pdfrwt beam="1">  1       21 0.16238615E+00 0.45252224E+03</pdfrwt>
<pdfrwt beam="2">  1       21 0.68179381E-02 0.45252224E+03</pdfrwt>
<totfact> 0.34422682E+04</totfact>
</mgrwt>
</event>
<event>
 7    0  0.4737014E-002  0.4446319E+03  0.7546771E-02  0.1029335E+00
         21   -1    0    0  502  501  0.00000000000E+00  0.00000000000E+00  0.18468495431E+03  0.18468495431E+03  0.00000000000E+00 0.  1.
         21   -1    0    0  501  502 -0.00000000000E+00 -0.00000000000E+00 -0.26761456681E+03  0.26761456681E+03  0.00000000000E+00 0.  1.
      99926    2    1    2    0    0  0.00000000000E+00  0.26645352591E-14 -0.82929612500E+02  0.45229952113E+03  0.44463191089E+03 0.  0.
      99925    2    3    3    0    0  0.59554430282E+02  0.43100156112E+01 -0.13808010948E+03  0.30312046155E+03  0.26315507059E+03 0.  0.
         25    1    4    4    0    0  0.63051974297E+02  0.23977342938E+02 -0.59642923867E+02  0.15412738532E+03  0.12509000000E+03 0.  0.
         25    1    3    3    0    0 -0.59554430282E+02 -0.43100156112E+01  0.55150496976E+02  0.14917905958E+03  0.12509000000E+03 0.  0.
         25    1    4    4    0    0 -0.34975440153E+01 -0.19667327327E+02 -0.78437185609E+02  0.14899307623E+03  0.12509000000E+03 0.  0.
<mgrwt>
<rscale>  2 0.44463191E+03</rscale>
<asrwt>0</asrwt>
<pdfrwt beam="1">  1       21 0.27159552E-01 0.44463191E+03</pdfrwt>
<pdfrwt beam="2">  1       21 0.39355083E-01 0.44463191E+03</pdfrwt>
<totfact> 0.74735386E+04</totfact>
</mgrwt>
</event>
<event>
 7    0  0.4737014E-002  0.4551427E+03  0.7546771E-02  0.1026199E+00
         21   -1    0    0  502  501  0.00000000000E+00  0.00000000000E+00  0.27463432591E+03  0.27463432591E+03  0.00000000000E+00 0. -1.
         21   -1    0    0  501  502 -0.00000000000E+00 -0.00000000000E+00 -0.18857332712E+03  0.18857332712E+03  0.00000000000E+00 0. -1.
      99926    2    1    2    0    0 -0.14210854715E-13 -0.71054273576E-14  0.86060998787E+02  0.46320765303E+03  0.45514265271E+03 0.  0.
      99925    2    3    3    0    0 -0.94688944769E+02 -0.57172331336E+02  0.29107152657E+02  0.28678225684E+03  0.26298700494E+03 0.  0.
         25    1    4    4    0    0 -0.78391903461E+02 -0.23779306596E+02 -0.11897371867E+02  0.14999933836E+03  0.12509000000E+03 0.  0.
         25    1    4    4    0    0 -0.16297041308E+02 -0.33393024739E+02  0.41004524524E+02  0.13678291848E+03  0.12509000000E+03 0.  0.
         25    1    3    3    0    0  0.94688944769E+02  0.57172331336E+02  0.56953846130E+02  0.17642539619E+03  0.12509000000E+03 0.  0.
<mgrwt>
<rscale>  2 0.45514265E+03</rscale>
<asrwt>0</asrwt>
<pdfrwt beam="1">  1       21 0.40387401E-01 0.45514265E+03</pdfrwt>
<pdfrwt beam="2">  1       21 0.27731371E-01 0.45514265E+03</pdfrwt>
<totfact> 0.67866431E+04</totfact>
</mgrwt>
</event>
<event>
 7    0  0.4737014E-002  0.4432477E+03  0.7546771E-02  0.1029755E+00
         21   -1    0    0  502  501  0.00000000000E+00  0.00000000000E+00  0.61252108625E+03  0.61252108625E+03  0.00000000000E+00 0. -1.
         21   -1    0    0  501  502 -0.00000000000E+00 -0.00000000000E+00 -0.80188476653E+02  0.80188476653E+02  0.00000000000E+00 0. -1.
      99926    2    1    2    0    0 -0.17763568394E-14  0.00000000000E+00  0.53233260960E+03  0.69270956291E+03  0.44324770873E+03 0.  0.
      99925    2    3    3    0    0  0.10375009015E+02  0.84930848687E+02  0.25280556315E+03  0.37474137634E+03  0.26305808581E+03 0.  0.
         25    1    4    4    0    0 -0.16711709004E+02  0.49026053852E+02  0.17305577116E+03  0.21972401600E+03  0.12509000000E+03 0.  0.
         25    1    4    4    0    0  0.27086718019E+02  0.35904794835E+02  0.79749791990E+02  0.15501736034E+03  0.12509000000E+03 0.  0.
         25    1    3    3    0    0 -0.10375009015E+02 -0.84930848687E+02  0.27952704645E+03  0.31796818656E+03  0.12509000000E+03 0.  0.
<mgrwt>
<rscale>  2 0.44324771E+03</rscale>
<asrwt>0</asrwt>
<pdfrwt beam="1">  1       21 0.90076628E-01 0.44324771E+03</pdfrwt>
<pdfrwt beam="2">  1       21 0.11792423E-01 0.44324771E+03</pdfrwt>
<totfact> 0.58529877E+04</totfact>
</mgrwt>
</event>
<event>
 7    0  0.4737014E-002  0.4487215E+03  0.7546771E-02  0.1028104E+00
         21   -1    0    0  502  501  0.00000000000E+00  0.00000000000E+00  0.39910645288E+03  0.39910645288E+03  0.00000000000E+00 0.  1.
         21   -1    0    0  501  502 -0.00000000000E+00 -0.00000000000E+00 -0.12612611075E+03  0.12612611075E+03  0.00000000000E+00 0.  1.
      99926    2    1    2    0    0 -0.71054273576E-14  0.00000000000E+00  0.27298034213E+03  0.52523256364E+03  0.44872149349E+03 0.  0.
      99925    2    3    3    0    0  0.59297303954E+02 -0.44474959880E+02  0.26336704933E+03  0.37951325877E+03  0.26300935079E+03 0.  0.
         25    1    3    3    0    0 -0.59297303954E+02  0.44474959880E+02  0.96132928051E+01  0.14571930487E+03  0.12509000000E+03 0.  0.
         25    1    4    4    0    0  0.67493818976E+02 -0.83978333286E+01  0.12687792893E+03  0.19071302041E+03  0.12509000000E+03 0.  0.
         25    1    4    4    0    0 -0.81965150222E+01 -0.36077126551E+02  0.13648912040E+03  0.18880023836E+03  0.12509000000E+03 0.  0.
<mgrwt>
<rscale>  2 0.44872149E+03</rscale>
<asrwt>0</asrwt>
<pdfrwt beam="1">  1       21 0.58692125E-01 0.44872149E+03</pdfrwt>
<pdfrwt beam="2">  1       21 0.18547958E-01 0.44872149E+03</pdfrwt>
<totfact> 0.66791977E+04</totfact>
</mgrwt>
</event>
<event>
 7    0  0.4737014E-002  0.4588693E+03  0.7546771E-02  0.1025110E+00
         21   -1    0    0  502  501  0.00000000000E+00  0.00000000000E+00  0.55886337019E+03  0.55886337019E+03  0.00000000000E+00 0.  1.
         21   -1    0    0  501  502 -0.00000000000E+00 -0.00000000000E+00 -0.94191636478E+02  0.94191636478E+02  0.00000000000E+00 0.  1.
      99926    2    1    2    0    0  0.00000000000E+00  0.00000000000E+00  0.46467173371E+03  0.65305500667E+03  0.45886928599E+03 0.  0.
      99925    2    3    3    0    0 -0.32851072027E+02  0.72832573778E+02  0.41283728967E+03  0.49583511472E+03  0.26274332819E+03 0.  0.
         25    1    4    4    0    0  0.11474041509E+02  0.21049207356E+02  0.24135699362E+03  0.27290186740E+03  0.12509000000E+03 0.  0.
         25    1    4    4    0    0 -0.44325113536E+02  0.51783366422E+02  0.17148029604E+03  0.22293324732E+03  0.12509000000E+03 0.  0.
         25    1    3    3    0    0  0.32851072027E+02 -0.72832573778E+02  0.51834444047E+02  0.15721989195E+03  0.12509000000E+03 0.  0.
<mgrwt>
<rscale>  2 0.45886929E+03</rscale>
<asrwt>0</asrwt>
<pdfrwt beam="1">  1       21 0.82185788E-01 0.45886929E+03</pdfrwt>
<pdfrwt beam="2">  1       21 0.13851712E-01 0.45886929E+03</pdfrwt>
<totfact> 0.53862879E+04</totfact>
</mgrwt>
</event>
<event>
 7    0  0.4737014E-002  0.4450496E+03  0.7546771E-02  0.1029209E+00
         21   -1    0    0  502  501  0.00000000000E+00  0.00000000000E+00  0.29185407466E+02  0.29185407466E+02  0.00000000000E+00 0. -1.
         21   -1    0    0  501  502 -0.00000000000E+00 -0.00000000000E+00 -0.16966452639E+04  0.16966452639E+04  0.00000000000E+00 0. -1.
      99926    2    1    2    0    0  0.00000000000E+00  0.00000000000E+00 -0.16674598564E+04  0.17258306714E+04  0.44504958534E+03 0.  0.
      99925    2    3    3    0    0  0.69808714208E+02  0.40994211757E+02 -0.80450722745E+03  0.85010895190E+03  0.26248727417E+03 0.  0.
         25    1    4    4    0    0  0.57025805355E+02  0.41855709730E+02 -0.51048642144E+03  0.53032795277E+03  0.12509000000E+03 0.  0.
         25    1    4    4    0    0  0.12782908853E+02 -0.86149797333E+00 -0.29402080601E+03  0.31978099913E+03  0.12509000000E+03 0.  0.
         25    1    3    3    0    0 -0.69808714208E+02 -0.40994211757E+02 -0.86295262898E+03  0.87572171947E+03  0.12509000000E+03 0.  0.
<mgrwt>
<rscale>  2 0.44504959E+03</rscale>
<asrwt>0</asrwt>
<pdfrwt beam="1">  1       21 0.42919712E-02 0.44504959E+03</pdfrwt>
<pdfrwt beam="2">  1       21 0.24950668E+00 0.44504959E+03</pdfrwt>
<totfact> 0.20248774E+04</totfact>
</mgrwt>
</event>
<event>
 7    0  0.4737014E-002  0.4580764E+03  0.7546771E-02  0.1025341E+00
         21   -1    0    0  502  501  0.00000000000E+00  0.00000000000E+00  0.52025951704E+02  0.52025951704E+02  0.00000000000E+00 0.  1.
         21   -1    0    0  501  502 -0.00000000000E+00 -0.00000000000E+00 -0.10083141786E+04  0.10083141786E+04  0.00000000000E+00 0.  1.
      99926    2    1    2    0    0  0.00000000000E+00  0.88817841970E-15 -0.95628822693E+03  0.10603401303E+04  0.45807643362E+03 0.  0.
      99925    2    3    3    0    0 -0.67116190047E+02  0.67567397945E+01 -0.38171205104E+03  0.46844864831E+03  0.26303955918E+03 0.  0.
         25    1    4    4    0    0 -0.41277011242E+02  0.14914120251E+02 -0.12797833062E+03  0.18426118378E+03  0.12509000000E+03 0.  0.
         25    1    4    4    0    0 -0.25839178805E+02 -0.81573804566E+01 -0.25373372042E+03  0.28418746453E+03  0.12509000000E+03 0.  0.
         25    1    3    3    0    0  0.67116190047E+02 -0.67567397945E+01 -0.57457617589E+03  0.59189148203E+03  0.12509000000E+03 0.  0.
<mgrwt>
<rscale>  2 0.45807643E+03</rscale>
<asrwt>0</asrwt>
<pdfrwt beam="1">  1       21 0.76508757E-02 0.45807643E+03</pdfrwt>
<pdfrwt beam="2">  1       21 0.14828149E+00 0.45807643E+03</pdfrwt>
<totfact> 0.36027438E+04</totfact>
</mgrwt>
</event>
<event>
 7    0  0.4737014E-002  0.4555101E+03  0.7546771E-02  0.1026092E+00
         21   -1    0    0  502  501  0.00000000000E+00  0.00000000000E+00  0.89877790098E+03  0.89877790098E+03  0.00000000000E+00 0.  1.
         21   -1    0    0  501  502 -0.00000000000E+00 -0.00000000000E+00 -0.57714319576E+02  0.57714319576E+02  0.00000000000E+00 0.  1.
      99926    2    1    2    0    0  0.00000000000E+00  0.00000000000E+00  0.84106358141E+03  0.95649222056E+03  0.45551006577E+03 0.  0.
      99925    2    3    3    0    0  0.49355755983E+02 -0.75389600256E+02  0.67415164696E+03  0.72927715848E+03  0.26314472881E+03 0.  0.
         25    1    4    4    0    0  0.11810415949E+02 -0.63727282288E+02  0.42478321392E+03  0.44753652293E+03  0.12509000000E+03 0.  0.
         25    1    3    3    0    0 -0.49355755983E+02  0.75389600256E+02  0.16691193444E+03  0.22721506208E+03  0.12509000000E+03 0.  0.
         25    1    4    4    0    0  0.37545340034E+02 -0.11662317969E+02  0.24936843304E+03  0.28174063555E+03  0.12509000000E+03 0.  0.
<mgrwt>
<rscale>  2 0.45551007E+03</rscale>
<asrwt>0</asrwt>
<pdfrwt beam="1">  1       21 0.13217321E+00 0.45551007E+03</pdfrwt>
<pdfrwt beam="2">  1       21 0.84874005E-02 0.45551007E+03</pdfrwt>
<totfact> 0.40716418E+04</totfact>
</mgrwt>
</event>
<event>
 7    0  0.4737014E-002  0.4501518E+03  0.7546771E-02  0.1027677E+00
         21   -1    0    0  502  501  0.00000000000E+00  0.00000000000E+00  0.66901034792E+02  0.66901034792E+02  0.00000000000E+00 0.  1.
         21   -1    0    0  501  502 -0.00000000000E+00 -0.00000000000E+00 -0.75722552106E+03  0.75722552106E+03  0.00000000000E+00 0.  1.
      99926    2    1    2    0    0  0.26645352591E-14  0.00000000000E+00 -0.69032448627E+03  0.82412655585E+03  0.45015184518E+03 0.  0.
      99925    2    3    3    0    0  0.58789252393E+01 -0.10529522459E+03 -0.38870923093E+03  0.48099259304E+03  0.26293984533E+03 0.  0.
         25    1    4    4    0    0  0.26873361133E+02 -0.85906720600E+02 -0.19315460503E+03  0.24709988209E+03  0.12509000000E+03 0.  0.
         25    1    4    4    0    0 -0.20994435893E+02 -0.19388503990E+02 -0.19555462590E+03  0.23389271095E+03  0.12509000000E+03 0.  0.
         25    1    3    3    0    0 -0.58789252393E+01  0.10529522459E+03 -0.30161525534E+03  0.34313396281E+03  0.12509000000E+03 0.  0.
<mgrwt>
<rscale>  2 0.45015185E+03</rscale>
<asrwt>0</asrwt>
<pdfrwt beam="1">  1       21 0.98383879E-02 0.45015185E+03</pdfrwt>
<pdfrwt beam="2">  1       21 0.11135669E+00 0.45015185E+03</pdfrwt>
<totfact> 0.48436309E+04</totfact>
</mgrwt>
</event>
<event>
 7    0  0.4737014E-002  0.4551238E+03  0.7546771E-02  0.1026205E+00
         21   -1    0    0  502  501  0.00000000000E+00  0.00000000000E+00  0.22930245949E+03  0.22930245949E+03  0.00000000000E+00 0. -1.
         21   -1    0    0  501  502 -0.00000000000E+00 -0.00000000000E+00 -0.22583453902E+03  0.22583453902E+03  0.00000000000E+00 0. -1.
      99926    2    1    2    0    0  0.00000000000E+00  0.00000000000E+00  0.34679204686E+01  0.45513699852E+03  0.45512378640E+03 0.  0.
      99925    2    3    3    0    0  0.40853607435E+02  0.83037548309E+02  0.67504318141E+02  0.28687404955E+03  0.26301261503E+03 0.  0.
         25    1    3    3    0    0 -0.40853607435E+02 -0.83037548309E+02 -0.64036397672E+02  0.16826294897E+03  0.12509000000E+03 0.  0.
         25    1    4    4    0    0 -0.18052566728E+02  0.27343522657E+02  0.39467618720E+02  0.13519898085E+03  0.12509000000E+03 0.  0.
         25    1    4    4    0    0  0.58906174163E+02  0.55694025652E+02  0.28036699422E+02  0.15167506869E+03  0.12509000000E+03 0.  0.
<mgrwt>
<rscale>  2 0.45512379E+03</rscale>
<asrwt>0</asrwt>
<pdfrwt beam="1">  1       21 0.33720950E-01 0.45512379E+03</pdfrwt>
<pdfrwt beam="2">  1       21 0.33210962E-01 0.45512379E+03</pdfrwt>
<totfact> 0.68468105E+04</totfact>
</mgrwt>
</event>
<event>
 7    0  0.4737014E-002  0.4537922E+03  0.7546771E-02  0.1026597E+00
         21   -1    0    0  502  501  0.00000000000E+00  0.00000000000E+00  0.32776085828E+03  0.32776085828E+03  0.00000000000E+00 0.  1.
         21   -1    0    0  501  502 -0.00000000000E+00 -0.00000000000E+00 -0.15707134132E+03  0.15707134132E+03  0.00000000000E+00 0.  1.
      99926    2    1    2    0    0  0.00000000000E+00  0.14210854715E-13  0.17068951696E+03  0.48483219960E+03  0.45379218875E+03 0.  0.
      99925    2    3    3    0    0 -0.78999978534E+02  0.68505314726E+02  0.15032439334E+03  0.32052693153E+03  0.26307055299E+03 0.  0.
         25    1    3    3    0    0  0.78999978534E+02 -0.68505314726E+02  0.20365123619E+02  0.16430526807E+03  0.12509000000E+03 0.  0.
         25    1    4    4    0    0 -0.58633187416E+02  0.60942714030E+02  0.51156250153E+02  0.15942501400E+03  0.12509000000E+03 0.  0.
         25    1    4    4    0    0 -0.20366791118E+02  0.75626006953E+01  0.99168143186E+02  0.16110191753E+03  0.12509000000E+03 0.  0.
<mgrwt>
<rscale>  2 0.45379219E+03</rscale>
<asrwt>0</asrwt>
<pdfrwt beam="1">  1       21 0.48200126E-01 0.45379219E+03</pdfrwt>
<pdfrwt beam="2">  1       21 0.23098727E-01 0.45379219E+03</pdfrwt>
<totfact> 0.66990010E+04</totfact>
</mgrwt>
</event>
<event>
 7    0  0.4737014E-002  0.4570948E+03  0.7546771E-02  0.1025627E+00
         21   -1    0    0  502  501  0.00000000000E+00  0.00000000000E+00  0.24800651254E+03  0.24800651254E+03  0.00000000000E+00 0.  1.
         21   -1    0    0  501  502 -0.00000000000E+00 -0.00000000000E+00 -0.21061506922E+03  0.21061506922E+03  0.00000000000E+00 0.  1.
      99926    2    1    2    0    0  0.35527136788E-14 -0.71054273576E-14  0.37391443322E+02  0.45862158176E+03  0.45709477706E+03 0.  0.
      99925    2    3    3    0    0 -0.27183476969E+02 -0.47173362730E+02 -0.78384961944E+02  0.27969156279E+03  0.26290473648E+03 0.  0.
         25    1    4    4    0    0  0.14332389994E+02 -0.52865986431E+02 -0.40642817181E+02  0.14247658268E+03  0.12509000000E+03 0.  0.
         25    1    3    3    0    0  0.27183476969E+02  0.47173362730E+02  0.11577640527E+03  0.17893001897E+03  0.12509000000E+03 0.  0.
         25    1    4    4    0    0 -0.41515866964E+02  0.56926237015E+01 -0.37742144763E+02  0.13721498011E+03  0.12509000000E+03 0.  0.
<mgrwt>
<rscale>  2 0.45709478E+03</rscale>
<asrwt>0</asrwt>
<pdfrwt beam="1">  1       21 0.36471546E-01 0.45709478E+03</pdfrwt>
<pdfrwt beam="2">  1       21 0.30972804E-01 0.45709478E+03</pdfrwt>
<totfact> 0.67151932E+04</totfact>
</mgrwt>
</event>
<event>
 7    0  0.4737014E-002  0.4496010E+03  0.7546771E-02  0.1027841E+00
         21   -1    0    0  502  501  0.00000000000E+00  0.00000000000E+00  0.67975680134E+02  0.67975680134E+02  0.00000000000E+00 0.  1.
         21   -1    0    0  501  502 -0.00000000000E+00 -0.00000000000E+00 -0.74343159510E+03  0.74343159510E+03  0.00000000000E+00 0.  1.
      99926    2    1    2    0    0  0.17763568394E-14  0.00000000000E+00 -0.67545591496E+03  0.81140727523E+03  0.44960101561E+03 0.  0.
      99925    2    3    3    0    0  0.11512510281E+02  0.10749987567E+03 -0.42601104486E+03  0.51214315696E+03  0.26290006033E+03 0.  0.
         25    1    3    3    0    0 -0.11512510281E+02 -0.10749987567E+03 -0.24944487011E+03  0.29926411827E+03  0.12509000000E+03 0.  0.
         25    1    4    4    0    0 -0.13888253825E+02  0.86973956959E+02 -0.26080988044E+03  0.30236840877E+03  0.12509000000E+03 0.  0.
         25    1    4    4    0    0  0.25400764106E+02  0.20525918709E+02 -0.16520116442E+03  0.20977474820E+03  0.12509000000E+03 0.  0.
<mgrwt>
<rscale>  2 0.44960102E+03</rscale>
<asrwt>0</asrwt>
<pdfrwt beam="1">  1       21 0.99964243E-02 0.44960102E+03</pdfrwt>
<pdfrwt beam="2">  1       21 0.10932817E+00 0.44960102E+03</pdfrwt>
<totfact> 0.49272587E+04</totfact>
</mgrwt>
</event>
<event>
 7    0  0.4737014E-002  0.4483872E+03  0.7546771E-02  0.1028204E+00
         21   -1    0    0  502  501  0.00000000000E+00  0.00000000000E+00  0.61627636946E+03  0.61627636946E+03  0.00000000000E+00 0. -1.
         21   -1    0    0  501  502 -0.00000000000E+00 -0.00000000000E+00 -0.81558804038E+02  0.81558804038E+02  0.00000000000E+00 0. -1.
      99926    2    1    2    0    0  0.00000000000E+00  0.00000000000E+00  0.53471756543E+03  0.69783517350E+03  0.44838717042E+03 0.  0.
      99925    2    3    3    0    0  0.72854329613E+02 -0.76942212054E+02  0.31747658810E+03  0.42567895427E+03  0.26302724341E+03 0.  0.
         25    1    3    3    0    0 -0.72854329613E+02  0.76942212054E+02  0.21724097732E+03  0.27215621923E+03  0.12509000000E+03 0.  0.
         25    1    4    4    0    0  0.61878356180E+02 -0.36272589774E+02  0.21359285209E+03  0.25770922820E+03  0.12509000000E+03 0.  0.
         25    1    4    4    0    0  0.10975973432E+02 -0.40669622280E+02  0.10388373601E+03  0.16796972607E+03  0.12509000000E+03 0.  0.
<mgrwt>
<rscale>  2 0.44838717E+03</rscale>
<asrwt>0</asrwt>
<pdfrwt beam="1">  1       21 0.90628875E-01 0.44838717E+03</pdfrwt>
<pdfrwt beam="2">  1       21 0.11993942E-01 0.44838717E+03</pdfrwt>
<totfact> 0.55872178E+04</totfact>
</mgrwt>
</event>
<event>
 7    0  0.4737014E-002  0.4566174E+03  0.7546771E-02  0.1025767E+00
         21   -1    0    0  502  501  0.00000000000E+00  0.00000000000E+00  0.28771156015E+02  0.28771156015E+02  0.00000000000E+00 0. -1.
         21   -1    0    0  501  502 -0.00000000000E+00 -0.00000000000E+00 -0.18117058998E+04  0.18117058998E+04  0.00000000000E+00 0. -1.
      99926    2    1    2    0    0  0.00000000000E+00 -0.17763568394E-14 -0.17829347438E+04  0.18404770559E+04  0.45661744644E+03 0.  0.
      99925    2    3    3    0    0  0.32589940771E+02 -0.66932843012E+01 -0.15649298695E+04  0.15869409882E+04  0.26128394351E+03 0.  0.
         25    1    4    4    0    0  0.27246521780E+01  0.31201349112E+02 -0.80929141829E+03  0.81950049160E+03  0.12509000000E+03 0.  0.
         25    1    3    3    0    0 -0.32589940771E+02  0.66932843012E+01 -0.21800487431E+03  0.25353606768E+03  0.12509000000E+03 0.  0.
         25    1    4    4    0    0  0.29865288593E+02 -0.37894633413E+02 -0.75563845123E+03  0.76744049657E+03  0.12509000000E+03 0.  0.
<mgrwt>
<rscale>  2 0.45661745E+03</rscale>
<asrwt>0</asrwt>
<pdfrwt beam="1">  1       21 0.42310506E-02 0.45661745E+03</pdfrwt>
<pdfrwt beam="2">  1       21 0.26642745E+00 0.45661745E+03</pdfrwt>
<totfact> 0.16288736E+04</totfact>
</mgrwt>
</event>
<event>
 7    0  0.4737014E-002  0.4083720E+03  0.7546771E-02  0.1040919E+00
         21   -1    0    0  502  501  0.00000000000E+00  0.00000000000E+00  0.28865652205E+03  0.28865652205E+03  0.00000000000E+00 0.  1.
         21   -1    0    0  501  502 -0.00000000000E+00 -0.00000000000E+00 -0.14443436055E+03  0.14443436055E+03  0.00000000000E+00 0.  1.
      99926    2    1    2    0    0  0.00000000000E+00  0.00000000000E+00  0.14422216150E+03  0.43309088260E+03  0.40837198817E+03 0.  0.
      99925    2    3    3    0    0 -0.21934934075E+02  0.55477156603E+02  0.10005462113E+03  0.28763595501E+03  0.26299174734E+03 0.  0.
         25    1    4    4    0    0 -0.29113666854E+02 -0.62048589796E+01  0.33183968510E+02  0.13279604564E+03  0.12509000000E+03 0.  0.
         25    1    4    4    0    0  0.71787327794E+01  0.61682015582E+02  0.66870652618E+02  0.15483990936E+03  0.12509000000E+03 0.  0.
         25    1    3    3    0    0  0.21934934075E+02 -0.55477156603E+02  0.44167540375E+02  0.14545492759E+03  0.12509000000E+03 0.  0.
<mgrwt>
<rscale>  2 0.40837199E+03</rscale>
<asrwt>0</asrwt>
<pdfrwt beam="1">  1       21 0.42449489E-01 0.40837199E+03</pdfrwt>
<pdfrwt beam="2">  1       21 0.21240347E-01 0.40837199E+03</pdfrwt>
<totfact> 0.10363329E+05</totfact>
</mgrwt>
</event>
<event>
 7    0  0.5113507E-002  0.4288802E+03  0.7546771E-02  0.1034214E+00
         21   -1    0    0  502  501  0.00000000000E+00  0.00000000000E+00  0.25746337566E+03  0.25746337566E+03  0.00000000000E+00 0. -1.
         21   -1    0    0  501  502 -0.00000000000E+00 -0.00000000000E+00 -0.17860619319E+03  0.17860619319E+03  0.00000000000E+00 0. -1.
      99926    2    1    2    0    0  0.00000000000E+00  0.00000000000E+00  0.78857182473E+02  0.43606956886E+03  0.42888018566E+03 0.  0.
      99925    2    3    3    0    0  0.78773870310E+02  0.71033519208E+01  0.85770882683E+02  0.28791057452E+03  0.26321108326E+03 0.  0.
         25    1    3    3    0    0 -0.78773870310E+02 -0.71033519208E+01 -0.69137002106E+01  0.14815899434E+03  0.12509000000E+03 0.  0.
         25    1    4    4    0    0 -0.25168767318E+01  0.23862214233E+01  0.31000058920E+02  0.12892067512E+03  0.12509000000E+03 0.  0.
         25    1    4    4    0    0  0.81290747041E+02  0.47171304975E+01  0.54770823763E+02  0.15898989940E+03  0.12509000000E+03 0.  0.
<mgrwt>
<rscale>  2 0.42888019E+03</rscale>
<asrwt>0</asrwt>
<pdfrwt beam="1">  1       21 0.37862261E-01 0.42888019E+03</pdfrwt>
<pdfrwt beam="2">  1       21 0.26265617E-01 0.42888019E+03</pdfrwt>
<totfact> 0.86645290E+04</totfact>
</mgrwt>
</event>
<event>
 7    0  0.4737014E-002  0.4536793E+03  0.7546771E-02  0.1026630E+00
         21   -1    0    0  502  501  0.00000000000E+00  0.00000000000E+00  0.40471865943E+03  0.40471865943E+03  0.00000000000E+00 0. -1.
         21   -1    0    0  501  502 -0.00000000000E+00 -0.00000000000E+00 -0.12714073476E+03  0.12714073476E+03  0.00000000000E+00 0. -1.
      99926    2    1    2    0    0 -0.17763568394E-14  0.17763568394E-14  0.27757792467E+03  0.53185939419E+03  0.45367930406E+03 0.  0.
      99925    2    3    3    0    0  0.21605500312E+01 -0.12046682666E+02  0.44562064285E+02  0.26710726516E+03  0.26307930931E+03 0.  0.
         25    1    3    3    0    0 -0.21605500312E+01  0.12046682666E+02  0.23301586038E+03  0.26475212904E+03  0.12509000000E+03 0.  0.
         25    1    4    4    0    0 -0.34770408794E+02  0.41791642278E+01  0.55988924877E+01  0.13002039239E+03  0.12509000000E+03 0.  0.
         25    1    4    4    0    0  0.36930958825E+02 -0.16225846893E+02  0.38963171797E+02  0.13708687276E+03  0.12509000000E+03 0.  0.
<mgrwt>
<rscale>  2 0.45367930E+03</rscale>
<asrwt>0</asrwt>
<pdfrwt beam="1">  1       21 0.59517449E-01 0.45367930E+03</pdfrwt>
<pdfrwt beam="2">  1       21 0.18697167E-01 0.45367930E+03</pdfrwt>
<totfact> 0.63745192E+04</totfact>
</mgrwt>
</event>
<event>
 7    0  0.4737014E-002  0.4552947E+03  0.7546771E-02  0.1026155E+00
         21   -1    0    0  502  501  0.00000000000E+00  0.00000000000E+00  0.14071439876E+04  0.14071439876E+04  0.00000000000E+00 0. -1.
         21   -1    0    0  501  502 -0.00000000000E+00 -0.00000000000E+00 -0.36828721729E+02  0.36828721729E+02  0.00000000000E+00 0. -1.
      99926    2    1    2    0    0 -0.71054273576E-14  0.00000000000E+00  0.13703152659E+04  0.14439727094E+04  0.45529469294E+03 0.  0.
      99925    2    3    3    0    0  0.59274730861E+02 -0.45879910082E+02  0.59075442744E+03  0.65088944209E+03  0.26276950434E+03 0.  0.
         25    1    4    4    0    0  0.70425477984E+02 -0.21760158288E+02  0.30235910189E+03  0.33541286057E+03  0.12509000000E+03 0.  0.
         25    1    3    3    0    0 -0.59274730861E+02  0.45879910082E+02  0.77956083846E+03  0.79308326727E+03  0.12509000000E+03 0.  0.
         25    1    4    4    0    0 -0.11150747123E+02 -0.24119751793E+02  0.28839532555E+03  0.31547658152E+03  0.12509000000E+03 0.  0.
<mgrwt>
<rscale>  2 0.45529469E+03</rscale>
<asrwt>0</asrwt>
<pdfrwt beam="1">  1       21 0.20693290E+00 0.45529469E+03</pdfrwt>
<pdfrwt beam="2">  1       21 0.54159894E-02 0.45529469E+03</pdfrwt>
<totfact> 0.25125836E+04</totfact>
</mgrwt>
</event>
<event>
 7    0  0.4737014E-002  0.4634785E+03  0.7546771E-02  0.1023777E+00
         21   -1    0    0  502  501  0.00000000000E+00  0.00000000000E+00  0.29222204792E+02  0.29222204792E+02  0.00000000000E+00 0. -1.
         21   -1    0    0  501  502 -0.00000000000E+00 -0.00000000000E+00 -0.18377490981E+04  0.18377490981E+04  0.00000000000E+00 0. -1.
      99926    2    1    2    0    0 -0.17763568394E-14  0.00000000000E+00 -0.18085268933E+04  0.18669713029E+04  0.46347850221E+03 0.  0.
      99925    2    3    3    0    0 -0.13622409492E+02  0.78114332617E+02 -0.76091924741E+03  0.80894639447E+03  0.26288542950E+03 0.  0.
         25    1    3    3    0    0  0.13622409492E+02 -0.78114332617E+02 -0.10476076459E+04  0.10580249085E+04  0.12509000000E+03 0.  0.
         25    1    4    4    0    0 -0.39789439108E+02  0.54070175552E+02 -0.34158562502E+03  0.36991219319E+03  0.12509000000E+03 0.  0.
         25    1    4    4    0    0  0.26167029616E+02  0.24044157064E+02 -0.41933362239E+03  0.43903420128E+03  0.12509000000E+03 0.  0.
<mgrwt>
<rscale>  2 0.46347850E+03</rscale>
<asrwt>0</asrwt>
<pdfrwt beam="1">  1       21 0.42973849E-02 0.46347850E+03</pdfrwt>
<pdfrwt beam="2">  1       21 0.27025711E+00 0.46347850E+03</pdfrwt>
<totfact> 0.14994551E+04</totfact>
</mgrwt>
</event>
<event>
 7    0  0.4737014E-002  0.4736512E+03  0.7546771E-02  0.1020895E+00
         21   -1    0    0  502  501  0.00000000000E+00  0.00000000000E+00  0.19466117935E+03  0.19466117935E+03  0.00000000000E+00 0.  1.
         21   -1    0    0  501  502 -0.00000000000E+00 -0.00000000000E+00 -0.28812298729E+03  0.28812298729E+03  0.00000000000E+00 0.  1.
      99926    2    1    2    0    0 -0.14210854715E-13  0.00000000000E+00 -0.93461807941E+02  0.48278416664E+03  0.47365118180E+03 0.  0.
      99925    2    3    3    0    0 -0.11281145986E+03  0.48735760052E+02 -0.10040043688E+03  0.30729270686E+03  0.26314817153E+03 0.  0.
         25    1    3    3    0    0  0.11281145986E+03 -0.48735760052E+02  0.69386289389E+01  0.17549145978E+03  0.12509000000E+03 0.  0.
         25    1    4    4    0    0 -0.19285207358E+02 -0.28256513668E+00 -0.48854809000E+02  0.13566981804E+03  0.12509000000E+03 0.  0.
         25    1    4    4    0    0 -0.93526252506E+02  0.49018325189E+02 -0.51545627880E+02  0.17162288882E+03  0.12509000000E+03 0.  0.
<mgrwt>
<rscale>  2 0.47365118E+03</rscale>
<asrwt>0</asrwt>
<pdfrwt beam="1">  1       21 0.28626644E-01 0.47365118E+03</pdfrwt>
<pdfrwt beam="2">  1       21 0.42371027E-01 0.47365118E+03</pdfrwt>
<totfact> 0.57500321E+04</totfact>
</mgrwt>
</event>
<event>
 7    0  0.4737014E-002  0.4599777E+03  0.7546771E-02  0.1024788E+00
         21   -1    0    0  502  501  0.00000000000E+00  0.00000000000E+00  0.37460485554E+03  0.37460485554E+03  0.00000000000E+00 0. -1.
         21   -1    0    0  501  502 -0.00000000000E+00 -0.00000000000E+00 -0.14120178706E+03  0.14120178706E+03  0.00000000000E+00 0. -1.
      99926    2    1    2    0    0  0.00000000000E+00 -0.71054273576E-14  0.23340306848E+03  0.51580664260E+03  0.45997771704E+03 0.  0.
      99925    2    3    3    0    0  0.11320211481E+03 -0.36335331632E+02  0.15543782081E+03  0.32643646789E+03  0.26127547973E+03 0.  0.
         25    1    4    4    0    0  0.40288126013E+02 -0.17698757595E+02  0.11350704363E+03  0.17455009645E+03  0.12509000000E+03 0.  0.
         25    1    4    4    0    0  0.72913988800E+02 -0.18636574037E+02  0.41930777184E+02  0.15188637144E+03  0.12509000000E+03 0.  0.
         25    1    3    3    0    0 -0.11320211481E+03  0.36335331632E+02  0.77965247671E+02  0.18937017470E+03  0.12509000000E+03 0.  0.
<mgrwt>
<rscale>  2 0.45997772E+03</rscale>
<asrwt>0</asrwt>
<pdfrwt beam="1">  1       21 0.55088949E-01 0.45997772E+03</pdfrwt>
<pdfrwt beam="2">  1       21 0.20764969E-01 0.45997772E+03</pdfrwt>
<totfact> 0.61700370E+04</totfact>
</mgrwt>
</event>
<event>
 7    0  0.4737014E-002  0.4168886E+03  0.7546771E-02  0.1038084E+00
         21   -1    0    0  502  501  0.00000000000E+00  0.00000000000E+00  0.11371121569E+04  0.11371121569E+04  0.00000000000E+00 0.  1.
         21   -1    0    0  501  502 -0.00000000000E+00 -0.00000000000E+00 -0.38209967100E+02  0.38209967100E+02  0.00000000000E+00 0.  1.
      99926    2    1    2    0    0  0.71054273576E-14 -0.35527136788E-14  0.10989021898E+04  0.11753221240E+04  0.41688856115E+03 0.  0.
      99925    2    3    3    0    0  0.59852046412E+02 -0.24921442747E+02  0.80604917167E+03  0.85033944124E+03  0.26298013691E+03 0.  0.
         25    1    3    3    0    0 -0.59852046412E+02  0.24921442747E+02  0.29285301816E+03  0.32498268279E+03  0.12509000000E+03 0.  0.
         25    1    4    4    0    0  0.15915669216E+02 -0.49966232318E+02  0.42376287651E+03  0.44494091350E+03  0.12509000000E+03 0.  0.
         25    1    4    4    0    0  0.43936377196E+02  0.25044789571E+02  0.38228629516E+03  0.40539852774E+03  0.12509000000E+03 0.  0.
<mgrwt>
<rscale>  2 0.41688856E+03</rscale>
<asrwt>0</asrwt>
<pdfrwt beam="1">  1       21 0.16722235E+00 0.41688856E+03</pdfrwt>
<pdfrwt beam="2">  1       21 0.56191136E-02 0.41688856E+03</pdfrwt>
<totfact> 0.44858326E+04</totfact>
</mgrwt>
</event>
<event>
 7    0  0.4737014E-002  0.4528569E+03  0.7546771E-02  0.1026873E+00
         21   -1    0    0  502  501  0.00000000000E+00  0.00000000000E+00  0.15989708528E+04  0.15989708528E+04  0.00000000000E+00 0. -1.
         21   -1    0    0  501  502 -0.00000000000E+00 -0.00000000000E+00 -0.32064281423E+02  0.32064281423E+02  0.00000000000E+00 0. -1.
      99926    2    1    2    0    0  0.53290705182E-14  0.00000000000E+00  0.15669065714E+04  0.16310351342E+04  0.45285693728E+03 0.  0.
      99925    2    3    3    0    0  0.44033111732E+01  0.78606990445E+02  0.12710458877E+04  0.13003094166E+04  0.26277077840E+03 0.  0.
         25    1    4    4    0    0  0.35770244534E+02  0.62120860220E+02  0.68798728814E+03  0.70293138244E+03  0.12509000000E+03 0.  0.
         25    1    3    3    0    0 -0.44033111732E+01 -0.78606990445E+02  0.29586068363E+03  0.33072571765E+03  0.12509000000E+03 0.  0.
         25    1    4    4    0    0 -0.31366933361E+02  0.16486130224E+02  0.58305859959E+03  0.59737803412E+03  0.12509000000E+03 0.  0.
<mgrwt>
<rscale>  2 0.45285694E+03</rscale>
<asrwt>0</asrwt>
<pdfrwt beam="1">  1       21 0.23514272E+00 0.45285694E+03</pdfrwt>
<pdfrwt beam="2">  1       21 0.47153366E-02 0.45285694E+03</pdfrwt>
<totfact> 0.21086158E+04</totfact>
</mgrwt>
</event>
<event>
 7    0  0.4737014E-002  0.4535535E+03  0.7546771E-02  0.1026668E+00
         21   -1    0    0  502  501  0.00000000000E+00  0.00000000000E+00  0.25391222980E+03  0.25391222980E+03  0.00000000000E+00 0. -1.
         21   -1    0    0  501  502 -0.00000000000E+00 -0.00000000000E+00 -0.20254123301E+03  0.20254123301E+03  0.00000000000E+00 0. -1.
      99926    2    1    2    0    0 -0.17763568394E-14  0.14210854715E-13  0.51370996790E+02  0.45645346280E+03  0.45355350775E+03 0.  0.
      99925    2    3    3    0    0 -0.56456402270E+01  0.73506706425E+02  0.11696789876E+03  0.29712496319E+03  0.26299552328E+03 0.  0.
         25    1    4    4    0    0  0.62188038089E+01  0.83803123213E+01  0.24010132194E+02  0.12780022576E+03  0.12509000000E+03 0.  0.
         25    1    4    4    0    0 -0.11864444036E+02  0.65126394104E+02  0.92957766563E+02  0.16932473743E+03  0.12509000000E+03 0.  0.
         25    1    3    3    0    0  0.56456402270E+01 -0.73506706425E+02 -0.65596901967E+02  0.15932849962E+03  0.12509000000E+03 0.  0.
<mgrwt>
<rscale>  2 0.45355351E+03</rscale>
<asrwt>0</asrwt>
<pdfrwt beam="1">  1       21 0.37340034E-01 0.45355351E+03</pdfrwt>
<pdfrwt beam="2">  1       21 0.29785475E-01 0.45355351E+03</pdfrwt>
<totfact> 0.69234953E+04</totfact>
</mgrwt>
</event>
<event>
 7    0  0.4737014E-002  0.4541328E+03  0.7546771E-02  0.1026497E+00
         21   -1    0    0  502  501  0.00000000000E+00  0.00000000000E+00  0.15550772741E+04  0.15550772741E+04  0.00000000000E+00 0. -1.
         21   -1    0    0  501  502 -0.00000000000E+00 -0.00000000000E+00 -0.33155356515E+02  0.33155356515E+02  0.00000000000E+00 0. -1.
      99926    2    1    2    0    0  0.00000000000E+00  0.17763568394E-14  0.15219219175E+04  0.15882326306E+04  0.45413276222E+03 0.  0.
      99925    2    3    3    0    0  0.54558154685E+02 -0.13909995811E+02  0.12979696535E+04  0.13256070322E+04  0.26332243032E+03 0.  0.
         25    1    4    4    0    0 -0.31485433235E+01  0.21675685814E+02  0.61113420333E+03  0.62418929121E+03  0.12509000000E+03 0.  0.
         25    1    3    3    0    0 -0.54558154685E+02  0.13909995811E+02  0.22395226404E+03  0.26262559832E+03  0.12509000000E+03 0.  0.
         25    1    4    4    0    0  0.57706698008E+02 -0.35585681625E+02  0.68683545017E+03  0.70141774104E+03  0.12509000000E+03 0.  0.
<mgrwt>
<rscale>  2 0.45413276E+03</rscale>
<asrwt>0</asrwt>
<pdfrwt beam="1">  1       21 0.22868779E+00 0.45413276E+03</pdfrwt>
<pdfrwt beam="2">  1       21 0.48757888E-02 0.45413276E+03</pdfrwt>
<totfact> 0.21843721E+04</totfact>
</mgrwt>
</event>
<event>
 7    0  0.4737014E-002  0.4564370E+03  0.7546771E-02  0.1025820E+00
         21   -1    0    0  502  501  0.00000000000E+00  0.00000000000E+00  0.69015619555E+02  0.69015619555E+02  0.00000000000E+00 0. -1.
         21   -1    0    0  501  502 -0.00000000000E+00 -0.00000000000E+00 -0.75466504611E+03  0.75466504611E+03  0.00000000000E+00 0. -1.
      99926    2    1    2    0    0  0.00000000000E+00  0.00000000000E+00 -0.68564942656E+03  0.82368066567E+03  0.45643696482E+03 0.  0.
      99925    2    3    3    0    0 -0.47175921220E+02  0.67338602341E+02 -0.57465290143E+03  0.63732672393E+03  0.26305767621E+03 0.  0.
         25    1    3    3    0    0  0.47175921220E+02 -0.67338602341E+02 -0.11099652513E+03  0.18635394173E+03  0.12509000000E+03 0.  0.
         25    1    4    4    0    0 -0.64726033840E+02  0.38721049155E+02 -0.30060577807E+03  0.33421568039E+03  0.12509000000E+03 0.  0.
         25    1    4    4    0    0  0.17550112620E+02  0.28617553187E+02 -0.27404712335E+03  0.30311104355E+03  0.12509000000E+03 0.  0.
<mgrwt>
<rscale>  2 0.45643696E+03</rscale>
<asrwt>0</asrwt>
<pdfrwt beam="1">  1       21 0.10149356E-01 0.45643696E+03</pdfrwt>
<pdfrwt beam="2">  1       21 0.11098015E+00 0.45643696E+03</pdfrwt>
<totfact> 0.46118454E+04</totfact>
</mgrwt>
</event>
<event>
 7    0  0.4737014E-002  0.4035103E+03  0.7546771E-02  0.1042571E+00
         21   -1    0    0  502  501  0.00000000000E+00  0.00000000000E+00  0.27403656096E+04  0.27403656096E+04  0.00000000000E+00 0.  1.
         21   -1    0    0  501  502 -0.00000000000E+00 -0.00000000000E+00 -0.14853910280E+02  0.14853910280E+02  0.00000000000E+00 0.  1.
      99926    2    1    2    0    0  0.35527136788E-14  0.00000000000E+00  0.27255116993E+04  0.27552195199E+04  0.40351032154E+03 0.  0.
      99925    2    3    3    0    0 -0.26398427043E+02 -0.12156752732E+02  0.21042373223E+04  0.21208111157E+04  0.26302170356E+03 0.  0.
         25    1    4    4    0    0  0.12116649387E+01 -0.79299578041E+01  0.73741244638E+03  0.74798995751E+03  0.12509000000E+03 0.  0.
         25    1    3    3    0    0  0.26398427043E+02  0.12156752732E+02  0.62127437703E+03  0.63440840413E+03  0.12509000000E+03 0.  0.
         25    1    4    4    0    0 -0.27610091982E+02 -0.42267949278E+01  0.13668248759E+04  0.13728211582E+04  0.12509000000E+03 0.  0.
<mgrwt>
<rscale>  2 0.40351032E+03</rscale>
<asrwt>0</asrwt>
<pdfrwt beam="1">  1       21 0.40299459E+00 0.40351032E+03</pdfrwt>
<pdfrwt beam="2">  1       21 0.21844005E-02 0.40351032E+03</pdfrwt>
<totfact> 0.74114990E+03</totfact>
</mgrwt>
</event>
<event>
 7    0  0.4737014E-002  0.4649407E+03  0.7546771E-02  0.1023358E+00
         21   -1    0    0  502  501  0.00000000000E+00  0.00000000000E+00  0.58118356191E+02  0.58118356191E+02  0.00000000000E+00 0.  1.
         21   -1    0    0  501  502 -0.00000000000E+00 -0.00000000000E+00 -0.92986897375E+03  0.92986897375E+03  0.00000000000E+00 0.  1.
      99926    2    1    2    0    0  0.88817841970E-15  0.14210854715E-13 -0.87175061756E+03  0.98798732994E+03  0.46494066816E+03 0.  0.
      99925    2    3    3    0    0 -0.43301554173E+01 -0.11249697063E+03 -0.64524676379E+03  0.70580685131E+03  0.26295552197E+03 0.  0.
         25    1    3    3    0    0  0.43301554173E+01  0.11249697063E+03 -0.22650385377E+03  0.28218047863E+03  0.12509000000E+03 0.  0.
         25    1    4    4    0    0  0.32138735012E+02 -0.79298730433E+02 -0.33705112223E+03  0.36955669935E+03  0.12509000000E+03 0.  0.
         25    1    4    4    0    0 -0.36468890429E+02 -0.33198240192E+02 -0.30819564156E+03  0.33625015197E+03  0.12509000000E+03 0.  0.
<mgrwt>
<rscale>  2 0.46494067E+03</rscale>
<asrwt>0</asrwt>
<pdfrwt beam="1">  1       21 0.85468179E-02 0.46494067E+03</pdfrwt>
<pdfrwt beam="2">  1       21 0.13674542E+00 0.46494067E+03</pdfrwt>
<totfact> 0.36703315E+04</totfact>
</mgrwt>
</event>
<event>
 7    0  0.4737014E-002  0.4526550E+03  0.7546771E-02  0.1026933E+00
         21   -1    0    0  502  501  0.00000000000E+00  0.00000000000E+00  0.13620012186E+03  0.13620012186E+03  0.00000000000E+00 0.  1.
         21   -1    0    0  501  502 -0.00000000000E+00 -0.00000000000E+00 -0.37609460091E+03  0.37609460091E+03  0.00000000000E+00 0.  1.
      99926    2    1    2    0    0 -0.14210854715E-13  0.35527136788E-14 -0.23989447904E+03  0.51229472277E+03  0.45265497004E+03 0.  0.
      99925    2    3    3    0    0  0.89875511600E+02 -0.27125185959E+02 -0.84163055489E+02  0.29158412565E+03  0.26291538396E+03 0.  0.
         25    1    4    4    0    0  0.43210580685E+02 -0.26118142379E+02 -0.82373393008E+02  0.15805757059E+03  0.12509000000E+03 0.  0.
         25    1    4    4    0    0  0.46664930915E+02 -0.10070435799E+01 -0.17896624814E+01  0.13352655506E+03  0.12509000000E+03 0.  0.
         25    1    3    3    0    0 -0.89875511600E+02  0.27125185959E+02 -0.15573142356E+03  0.22071059712E+03  0.12509000000E+03 0.  0.
<mgrwt>
<rscale>  2 0.45265497E+03</rscale>
<asrwt>0</asrwt>
<pdfrwt beam="1">  1       21 0.20029430E-01 0.45265497E+03</pdfrwt>
<pdfrwt beam="2">  1       21 0.55308029E-01 0.45265497E+03</pdfrwt>
<totfact> 0.65628050E+04</totfact>
</mgrwt>
</event>
<event>
 7    0  0.4737014E-002  0.4564537E+03  0.7546771E-02  0.1025815E+00
         21   -1    0    0  502  501  0.00000000000E+00  0.00000000000E+00  0.54639573366E+02  0.54639573366E+02  0.00000000000E+00 0. -1.
         21   -1    0    0  501  502 -0.00000000000E+00 -0.00000000000E+00 -0.95329253259E+03  0.95329253259E+03  0.00000000000E+00 0. -1.
      99926    2    1    2    0    0 -0.71054273576E-14 -0.44408920985E-15 -0.89865295922E+03  0.10079321060E+04  0.45645370970E+03 0.  0.
      99925    2    3    3    0    0 -0.54284488874E+02 -0.17472791267E+01 -0.34767597068E+03  0.44032924416E+03  0.26469114824E+03 0.  0.
         25    1    4    4    0    0 -0.25279985520E+02 -0.32263726003E+02 -0.12530148992E+03  0.18173606456E+03  0.12509000000E+03 0.  0.
         25    1    4    4    0    0 -0.29004503354E+02  0.30516446876E+02 -0.22237448076E+03  0.25859317960E+03  0.12509000000E+03 0.  0.
         25    1    3    3    0    0  0.54284488874E+02  0.17472791267E+01 -0.55097698854E+03  0.56760286179E+03  0.12509000000E+03 0.  0.
<mgrwt>
<rscale>  2 0.45645371E+03</rscale>
<asrwt>0</asrwt>
<pdfrwt beam="1">  1       21 0.80352317E-02 0.45645371E+03</pdfrwt>
<pdfrwt beam="2">  1       21 0.14019007E+00 0.45645371E+03</pdfrwt>
<totfact> 0.38421656E+04</totfact>
</mgrwt>
</event>
<event>
 7    0  0.4737014E-002  0.4625531E+03  0.7546771E-02  0.1024043E+00
         21   -1    0    0  502  501  0.00000000000E+00  0.00000000000E+00  0.49732260963E+03  0.49732260963E+03  0.00000000000E+00 0.  1.
         21   -1    0    0  501  502 -0.00000000000E+00 -0.00000000000E+00 -0.10755362470E+03  0.10755362470E+03  0.00000000000E+00 0.  1.
      99926    2    1    2    0    0 -0.14210854715E-13  0.00000000000E+00  0.38976898493E+03  0.60487623433E+03  0.46255312910E+03 0.  0.
      99925    2    3    3    0    0 -0.11609996363E+03  0.12152515919E+02  0.20628192943E+03  0.35399400532E+03  0.26293085820E+03 0.  0.
         25    1    3    3    0    0  0.11609996363E+03 -0.12152515919E+02  0.18348705550E+03  0.25088222901E+03  0.12509000000E+03 0.  0.
         25    1    4    4    0    0 -0.40109388085E+02  0.24316738513E+02  0.13785764431E+03  0.19196954180E+03  0.12509000000E+03 0.  0.
         25    1    4    4    0    0 -0.75990575542E+02 -0.12164222593E+02  0.68424285119E+02  0.16202446351E+03  0.12509000000E+03 0.  0.
<mgrwt>
<rscale>  2 0.46255313E+03</rscale>
<asrwt>0</asrwt>
<pdfrwt beam="1">  1       21 0.73135677E-01 0.46255313E+03</pdfrwt>
<pdfrwt beam="2">  1       21 0.15816710E-01 0.46255313E+03</pdfrwt>
<totfact> 0.55021572E+04</totfact>
</mgrwt>
</event>
<event>
 7    0  0.4737014E-002  0.4529337E+03  0.7546771E-02  0.1026851E+00
         21   -1    0    0  502  501  0.00000000000E+00  0.00000000000E+00  0.17669920924E+03  0.17669920924E+03  0.00000000000E+00 0. -1.
         21   -1    0    0  501  502 -0.00000000000E+00 -0.00000000000E+00 -0.29025165362E+03  0.29025165362E+03  0.00000000000E+00 0. -1.
      99926    2    1    2    0    0  0.00000000000E+00  0.00000000000E+00 -0.11355244438E+03  0.46695086286E+03  0.45293371557E+03 0.  0.
      99925    2    3    3    0    0  0.70166143170E+02  0.16043655793E+02 -0.15990482239E+03  0.31537006729E+03  0.26212218636E+03 0.  0.
         25    1    4    4    0    0  0.73181917303E+02  0.55232177796E+01 -0.10057983076E+03  0.17649336931E+03  0.12509000000E+03 0.  0.
         25    1    4    4    0    0 -0.30157741325E+01  0.10520438014E+02 -0.59324991626E+02  0.13887669798E+03  0.12509000000E+03 0.  0.
         25    1    3    3    0    0 -0.70166143170E+02 -0.16043655793E+02  0.46352378006E+02  0.15158079557E+03  0.12509000000E+03 0.  0.
<mgrwt>
<rscale>  2 0.45293372E+03</rscale>
<asrwt>0</asrwt>
<pdfrwt beam="1">  1       21 0.25985178E-01 0.45293372E+03</pdfrwt>
<pdfrwt beam="2">  1       21 0.42684067E-01 0.45293372E+03</pdfrwt>
<totfact> 0.68783764E+04</totfact>
</mgrwt>
</event>
<event>
 7    0  0.4737014E-002  0.4289394E+03  0.7546771E-02  0.1034196E+00
         21   -1    0    0  502  501  0.00000000000E+00  0.00000000000E+00  0.41538781931E+03  0.41538781931E+03  0.00000000000E+00 0. -1.
         21   -1    0    0  501  502 -0.00000000000E+00 -0.00000000000E+00 -0.11073327402E+03  0.11073327402E+03  0.00000000000E+00 0. -1.
      99926    2    1    2    0    0  0.00000000000E+00  0.14210854715E-13  0.30465454529E+03  0.52612109332E+03  0.42893940467E+03 0.  0.
      99925    2    3    3    0    0 -0.49272684750E+02  0.69783250688E+02  0.18152390019E+03  0.33091309298E+03  0.26316354083E+03 0.  0.
         25    1    4    4    0    0 -0.50834334160E+02  0.65340094686E+02  0.81728230560E+02  0.17082291788E+03  0.12509000000E+03 0.  0.
         25    1    3    3    0    0  0.49272684750E+02 -0.69783250688E+02  0.12313064509E+03  0.19520800035E+03  0.12509000000E+03 0.  0.
         25    1    4    4    0    0  0.15616494094E+01  0.44431560028E+01  0.99795669635E+02  0.16009017510E+03  0.12509000000E+03 0.  0.
<mgrwt>
<rscale>  2 0.42893940E+03</rscale>
<asrwt>0</asrwt>
<pdfrwt beam="1">  1       21 0.61086443E-01 0.42893940E+03</pdfrwt>
<pdfrwt beam="2">  1       21 0.16284305E-01 0.42893940E+03</pdfrwt>
<totfact> 0.78447214E+04</totfact>
</mgrwt>
</event>
<event>
 7    0  0.4737014E-002  0.4534454E+03  0.7546771E-02  0.1026700E+00
         21   -1    0    0  502  501  0.00000000000E+00  0.00000000000E+00  0.19851148622E+03  0.19851148622E+03  0.00000000000E+00 0.  1.
         21   -1    0    0  501  502 -0.00000000000E+00 -0.00000000000E+00 -0.25894317255E+03  0.25894317255E+03  0.00000000000E+00 0.  1.
      99926    2    1    2    0    0 -0.35527136788E-14  0.14210854715E-13 -0.60431686325E+02  0.45745465877E+03  0.45344544999E+03 0.  0.
      99925    2    3    3    0    0  0.22244087301E+02 -0.10942603560E+03 -0.34886399467E+02  0.28784060726E+03  0.26299486237E+03 0.  0.
         25    1    3    3    0    0 -0.22244087301E+02  0.10942603560E+03 -0.25545286858E+02  0.16961405151E+03  0.12509000000E+03 0.  0.
         25    1    4    4    0    0 -0.24087671166E+02 -0.64548829905E+02  0.13050236319E+00  0.14280858684E+03  0.12509000000E+03 0.  0.
         25    1    4    4    0    0  0.46331758467E+02 -0.44877205698E+02 -0.35016901830E+02  0.14503202042E+03  0.12509000000E+03 0.  0.
<mgrwt>
<rscale>  2 0.45344545E+03</rscale>
<asrwt>0</asrwt>
<pdfrwt beam="1">  1       21 0.29192866E-01 0.45344545E+03</pdfrwt>
<pdfrwt beam="2">  1       21 0.38079878E-01 0.45344545E+03</pdfrwt>
<totfact> 0.69220633E+04</totfact>
</mgrwt>
</event>
<event>
 7    0  0.4737014E-002  0.4510688E+03  0.7546771E-02  0.1027404E+00
         21   -1    0    0  502  501  0.00000000000E+00  0.00000000000E+00  0.88728091830E+02  0.88728091830E+02  0.00000000000E+00 0.  1.
         21   -1    0    0  501  502 -0.00000000000E+00 -0.00000000000E+00 -0.57327692663E+03  0.57327692663E+03  0.00000000000E+00 0.  1.
      99926    2    1    2    0    0  0.00000000000E+00  0.14210854715E-13 -0.48454883480E+03  0.66200501846E+03  0.45106880978E+03 0.  0.
      99925    2    3    3    0    0  0.22132382601E+02 -0.10499252153E+03 -0.33616142660E+03  0.44024027160E+03  0.26323700361E+03 0.  0.
         25    1    4    4    0    0  0.25133567911E+02 -0.30894472883E+02 -0.10954821275E+03  0.17098094545E+03  0.12509000000E+03 0.  0.
         25    1    3    3    0    0 -0.22132382601E+02  0.10499252153E+03 -0.14838740821E+03  0.22176474686E+03  0.12509000000E+03 0.  0.
         25    1    4    4    0    0 -0.30011853100E+01 -0.74098048650E+02 -0.22661321385E+03  0.26925932615E+03  0.12509000000E+03 0.  0.
<mgrwt>
<rscale>  2 0.45106881E+03</rscale>
<asrwt>0</asrwt>
<pdfrwt beam="1">  1       21 0.13048249E-01 0.45106881E+03</pdfrwt>
<pdfrwt beam="2">  1       21 0.84305432E-01 0.45106881E+03</pdfrwt>
<totfact> 0.56753287E+04</totfact>
</mgrwt>
</event>
<event>
 7    0  0.4737014E-002  0.4498604E+03  0.7546771E-02  0.1027764E+00
         21   -1    0    0  502  501  0.00000000000E+00  0.00000000000E+00  0.66668684673E+03  0.66668684673E+03  0.00000000000E+00 0. -1.
         21   -1    0    0  501  502 -0.00000000000E+00 -0.00000000000E+00 -0.75888097957E+02  0.75888097957E+02  0.00000000000E+00 0. -1.
      99926    2    1    2    0    0  0.00000000000E+00 -0.14210854715E-13  0.59079874877E+03  0.74257494469E+03  0.44986040827E+03 0.  0.
      99925    2    3    3    0    0 -0.71903922724E+02  0.79133883675E+02  0.39507396890E+03  0.48686408609E+03  0.26366807120E+03 0.  0.
         25    1    3    3    0    0  0.71903922724E+02 -0.79133883675E+02  0.19572477987E+03  0.25571085859E+03  0.12509000000E+03 0.  0.
         25    1    4    4    0    0 -0.26350021731E+02  0.76303791536E+02  0.17626868583E+03  0.23072656967E+03  0.12509000000E+03 0.  0.
         25    1    4    4    0    0 -0.45553900994E+02  0.28300921393E+01  0.21880528308E+03  0.25613751642E+03  0.12509000000E+03 0.  0.
<mgrwt>
<rscale>  2 0.44986041E+03</rscale>
<asrwt>0</asrwt>
<pdfrwt beam="1">  1       21 0.98042180E-01 0.44986041E+03</pdfrwt>
<pdfrwt beam="2">  1       21 0.11160015E-01 0.44986041E+03</pdfrwt>
<totfact> 0.52750761E+04</totfact>
</mgrwt>
</event>
<event>
 7    0  0.4737014E-002  0.4557418E+03  0.7546771E-02  0.1026023E+00
         21   -1    0    0  502  501  0.00000000000E+00  0.00000000000E+00  0.20625470507E+04  0.20625470507E+04  0.00000000000E+00 0.  1.
         21   -1    0    0  501  502 -0.00000000000E+00 -0.00000000000E+00 -0.25175255264E+02  0.25175255264E+02  0.00000000000E+00 0.  1.
      99926    2    1    2    0    0  0.00000000000E+00  0.17763568394E-14  0.20373717954E+04  0.20877223059E+04  0.45574180627E+03 0.  0.
      99925    2    3    3    0    0 -0.10087931223E+03  0.13960589356E+02  0.15215988353E+04  0.15473143229E+04  0.26181494315E+03 0.  0.
         25    1    3    3    0    0  0.10087931223E+03 -0.13960589356E+02  0.51577296005E+03  0.54040798301E+03  0.12509000000E+03 0.  0.
         25    1    4    4    0    0 -0.55554036578E+02 -0.29289120883E+02  0.82790789631E+03  0.83965653482E+03  0.12509000000E+03 0.  0.
         25    1    4    4    0    0 -0.45325275651E+02  0.43249710239E+02  0.69369093903E+03  0.70765778809E+03  0.12509000000E+03 0.  0.
<mgrwt>
<rscale>  2 0.45574181E+03</rscale>
<asrwt>0</asrwt>
<pdfrwt beam="1">  1       21 0.30331563E+00 0.45574181E+03</pdfrwt>
<pdfrwt beam="2">  1       21 0.37022448E-02 0.45574181E+03</pdfrwt>
<totfact> 0.12259265E+04</totfact>
</mgrwt>
</event>
<event>
 7    0  0.4737014E-002  0.4773883E+03  0.7546771E-02  0.1019855E+00
         21   -1    0    0  502  501  0.00000000000E+00  0.00000000000E+00  0.25219230016E+03  0.25219230016E+03  0.00000000000E+00 0. -1.
         21   -1    0    0  501  502 -0.00000000000E+00 -0.00000000000E+00 -0.22591845402E+03  0.22591845402E+03  0.00000000000E+00 0. -1.
      99926    2    1    2    0    0  0.14210854715E-13 -0.35527136788E-14  0.26273846135E+02  0.47811075418E+03  0.47738828879E+03 0.  0.
      99925    2    3    3    0    0 -0.12226758270E+03  0.28797378798E+02 -0.27695371064E+02  0.29280334658E+03  0.26303633853E+03 0.  0.
         25    1    4    4    0    0 -0.89939396057E+02  0.26701531146E+02  0.14092735945E+02  0.15699738862E+03  0.12509000000E+03 0.  0.
         25    1    3    3    0    0  0.12226758270E+03 -0.28797378798E+02  0.53969217199E+02  0.18530740760E+03  0.12509000000E+03 0.  0.
         25    1    4    4    0    0 -0.32328186647E+02  0.20958476517E+01 -0.41788107008E+02  0.13580595796E+03  0.12509000000E+03 0.  0.
<mgrwt>
<rscale>  2 0.47738829E+03</rscale>
<asrwt>0</asrwt>
<pdfrwt beam="1">  1       21 0.37087103E-01 0.47738829E+03</pdfrwt>
<pdfrwt beam="2">  1       21 0.33223302E-01 0.47738829E+03</pdfrwt>
<totfact> 0.56161832E+04</totfact>
</mgrwt>
</event>
<event>
 7    0  0.4737014E-002  0.4542975E+03  0.7546771E-02  0.1026448E+00
         21   -1    0    0  502  501  0.00000000000E+00  0.00000000000E+00  0.22490722640E+03  0.22490722640E+03  0.00000000000E+00 0.  1.
         21   -1    0    0  501  502 -0.00000000000E+00 -0.00000000000E+00 -0.22941264073E+03  0.22941264073E+03  0.00000000000E+00 0.  1.
      99926    2    1    2    0    0  0.00000000000E+00  0.00000000000E+00 -0.45054143248E+01  0.45431986713E+03  0.45429752686E+03 0.  0.
      99925    2    3    3    0    0 -0.87899712254E+02  0.24983725969E+02 -0.68539960800E+02  0.28669386312E+03  0.26295455681E+03 0.  0.
         25    1    4    4    0    0 -0.14053848088E+02  0.31899135964E+02 -0.11078296625E+02  0.13032767272E+03  0.12509000000E+03 0.  0.
         25    1    4    4    0    0 -0.73845864166E+02 -0.69154099951E+01 -0.57461664175E+02  0.15636619040E+03  0.12509000000E+03 0.  0.
         25    1    3    3    0    0  0.87899712254E+02 -0.24983725969E+02  0.64034546475E+02  0.16762600401E+03  0.12509000000E+03 0.  0.
<mgrwt>
<rscale>  2 0.45429753E+03</rscale>
<asrwt>0</asrwt>
<pdfrwt beam="1">  1       21 0.33074592E-01 0.45429753E+03</pdfrwt>
<pdfrwt beam="2">  1       21 0.33737153E-01 0.45429753E+03</pdfrwt>
<totfact> 0.68981477E+04</totfact>
</mgrwt>
</event>
<event>
 7    0  0.4737014E-002  0.4580882E+03  0.7546771E-02  0.1025337E+00
         21   -1    0    0  502  501  0.00000000000E+00  0.00000000000E+00  0.44157183974E+03  0.44157183974E+03  0.00000000000E+00 0.  1.
         21   -1    0    0  501  502 -0.00000000000E+00 -0.00000000000E+00 -0.11880560845E+03  0.11880560845E+03  0.00000000000E+00 0.  1.
      99926    2    1    2    0    0 -0.44408920985E-15  0.00000000000E+00  0.32276623129E+03  0.56037744820E+03  0.45808824956E+03 0.  0.
      99925    2    3    3    0    0  0.32278752603E+01  0.25052973273E+02  0.34106758606E+03  0.43145685894E+03  0.26303964001E+03 0.  0.
         25    1    4    4    0    0  0.22540269035E+02  0.47488852273E+02  0.17260002137E+03  0.21954846912E+03  0.12509000000E+03 0.  0.
         25    1    3    3    0    0 -0.32278752603E+01 -0.25052973273E+02 -0.18301354773E+02  0.12892058926E+03  0.12509000000E+03 0.  0.
         25    1    4    4    0    0 -0.19312393774E+02 -0.22435879000E+02  0.16846756469E+03  0.21190838981E+03  0.12509000000E+03 0.  0.
<mgrwt>
<rscale>  2 0.45808825E+03</rscale>
<asrwt>0</asrwt>
<pdfrwt beam="1">  1       21 0.64937035E-01 0.45808825E+03</pdfrwt>
<pdfrwt beam="2">  1       21 0.17471413E-01 0.45808825E+03</pdfrwt>
<totfact> 0.59713836E+04</totfact>
</mgrwt>
</event>
<event>
 7    0  0.4737014E-002  0.4430940E+03  0.7546771E-02  0.1029802E+00
         21   -1    0    0  502  501  0.00000000000E+00  0.00000000000E+00  0.90989923827E+02  0.90989923827E+02  0.00000000000E+00 0.  1.
         21   -1    0    0  501  502 -0.00000000000E+00 -0.00000000000E+00 -0.53943407164E+03  0.53943407164E+03  0.00000000000E+00 0.  1.
      99926    2    1    2    0    0 -0.17763568394E-14  0.00000000000E+00 -0.44844414781E+03  0.63042399547E+03  0.44309396335E+03 0.  0.
      99925    2    3    3    0    0  0.15938818960E+02  0.97546280756E+02 -0.31895962394E+03  0.42503881377E+03  0.26297039504E+03 0.  0.
         25    1    4    4    0    0  0.40688543519E+02  0.64413265873E+02 -0.13830698684E+03  0.20144715710E+03  0.12509000000E+03 0.  0.
         25    1    3    3    0    0 -0.15938818960E+02 -0.97546280756E+02 -0.12948452387E+03  0.20538518170E+03  0.12509000000E+03 0.  0.
         25    1    4    4    0    0 -0.24749724560E+02  0.33133014883E+02 -0.18065263710E+03  0.22359165667E+03  0.12509000000E+03 0.  0.
<mgrwt>
<rscale>  2 0.44309396E+03</rscale>
<asrwt>0</asrwt>
<pdfrwt beam="1">  1       21 0.13380871E-01 0.44309396E+03</pdfrwt>
<pdfrwt beam="2">  1       21 0.79328539E-01 0.44309396E+03</pdfrwt>
<totfact> 0.62514675E+04</totfact>
</mgrwt>
</event>
<event>
 7    0  0.4737014E-002  0.4692250E+03  0.7546771E-02  0.1022139E+00
         21   -1    0    0  502  501  0.00000000000E+00  0.00000000000E+00  0.68871488644E+03  0.68871488644E+03  0.00000000000E+00 0.  1.
         21   -1    0    0  501  502 -0.00000000000E+00 -0.00000000000E+00 -0.79921354450E+02  0.79921354450E+02  0.00000000000E+00 0.  1.
      99926    2    1    2    0    0  0.17763568394E-14  0.00000000000E+00  0.60879353199E+03  0.76863624089E+03  0.46922500596E+03 0.  0.
      99925    2    3    3    0    0 -0.10362791377E+02 -0.10112106966E+02  0.17685608252E+03  0.31871723650E+03  0.26475075216E+03 0.  0.
         25    1    3    3    0    0  0.10362791377E+02  0.10112106966E+02  0.43193744947E+03  0.44991900439E+03  0.12509000000E+03 0.  0.
         25    1    4    4    0    0 -0.35562821632E+02  0.19034540911E+02  0.11180436165E+03  0.17255361895E+03  0.12509000000E+03 0.  0.
         25    1    4    4    0    0  0.25200030255E+02 -0.29146647876E+02  0.65051720870E+02  0.14616361755E+03  0.12509000000E+03 0.  0.
<mgrwt>
<rscale>  2 0.46922501E+03</rscale>
<asrwt>0</asrwt>
<pdfrwt beam="1">  1       21 0.10128160E+00 0.46922501E+03</pdfrwt>
<pdfrwt beam="2">  1       21 0.11753141E-01 0.46922501E+03</pdfrwt>
<totfact> 0.44175652E+04</totfact>
</mgrwt>
</event>
<event>
 7    0  0.4737014E-002  0.4590762E+03  0.7546771E-02  0.1025049E+00
         21   -1    0    0  502  501  0.00000000000E+00  0.00000000000E+00  0.71884920726E+02  0.71884920726E+02  0.00000000000E+00 0. -1.
         21   -1    0    0  501  502 -0.00000000000E+00 -0.00000000000E+00 -0.73294563285E+03  0.73294563285E+03  0.00000000000E+00 0. -1.
      99926    2    1    2    0    0  0.00000000000E+00 -0.88817841970E-15 -0.66106071212E+03  0.80483055357E+03  0.45907619722E+03 0.  0.
      99925    2    3    3    0    0  0.11455073707E+03 -0.40206711713E+01 -0.45484656664E+03  0.53779156943E+03  0.26305196407E+03 0.  0.
         25    1    3    3    0    0 -0.11455073707E+03  0.40206711713E+01 -0.20621414548E+03  0.26703898415E+03  0.12509000000E+03 0.  0.
         25    1    4    4    0    0  0.21444894101E+02 -0.22210924096E+02 -0.18176763898E+03  0.22280078840E+03  0.12509000000E+03 0.  0.
         25    1    4    4    0    0  0.93105842968E+02  0.18190252925E+02 -0.27307892766E+03  0.31499078102E+03  0.12509000000E+03 0.  0.
<mgrwt>
<rscale>  2 0.45907620E+03</rscale>
<asrwt>0</asrwt>
<pdfrwt beam="1">  1       21 0.10571312E-01 0.45907620E+03</pdfrwt>
<pdfrwt beam="2">  1       21 0.10778612E+00 0.45907620E+03</pdfrwt>
<totfact> 0.46041510E+04</totfact>
</mgrwt>
</event>
<event>
 7    0  0.4737014E-002  0.4532109E+03  0.7546771E-02  0.1026769E+00
         21   -1    0    0  502  501  0.00000000000E+00  0.00000000000E+00  0.46344799179E+03  0.46344799179E+03  0.00000000000E+00 0. -1.
         21   -1    0    0  501  502 -0.00000000000E+00 -0.00000000000E+00 -0.11079996164E+03  0.11079996164E+03  0.00000000000E+00 0. -1.
      99926    2    1    2    0    0  0.00000000000E+00  0.14210854715E-13  0.35264803015E+03  0.57424795343E+03  0.45321085474E+03 0.  0.
      99925    2    3    3    0    0 -0.55535318116E+02  0.81465501904E+02  0.15630443364E+03  0.32142565309E+03  0.26298778476E+03 0.  0.
         25    1    4    4    0    0 -0.64500351966E+02  0.61035955256E+02  0.93928611907E+02  0.17987711214E+03  0.12509000000E+03 0.  0.
         25    1    3    3    0    0  0.55535318116E+02 -0.81465501904E+02  0.19634359651E+03  0.25282230034E+03  0.12509000000E+03 0.  0.
         25    1    4    4    0    0  0.89650338494E+01  0.20429546648E+02  0.62375821731E+02  0.14154854095E+03  0.12509000000E+03 0.  0.
<mgrwt>
<rscale>  2 0.45321085E+03</rscale>
<asrwt>0</asrwt>
<pdfrwt beam="1">  1       21 0.68154116E-01 0.45321085E+03</pdfrwt>
<pdfrwt beam="2">  1       21 0.16294112E-01 0.45321085E+03</pdfrwt>
<totfact> 0.61152569E+04</totfact>
</mgrwt>
</event>
<event>
 7    0  0.4737014E-002  0.4571910E+03  0.7546771E-02  0.1025599E+00
         21   -1    0    0  502  501  0.00000000000E+00  0.00000000000E+00  0.28751564238E+03  0.28751564238E+03  0.00000000000E+00 0. -1.
         21   -1    0    0  501  502 -0.00000000000E+00 -0.00000000000E+00 -0.18174977973E+03  0.18174977973E+03  0.00000000000E+00 0. -1.
      99926    2    1    2    0    0  0.17763568394E-14  0.00000000000E+00  0.10576586265E+03  0.46926542211E+03  0.45719100897E+03 0.  0.
      99925    2    3    3    0    0 -0.10270639510E+02 -0.11238062171E+03  0.42189003853E+02  0.28919761475E+03  0.26290769894E+03 0.  0.
         25    1    4    4    0    0 -0.62315874575E+01 -0.44382431744E+02  0.59735949465E+02  0.14568639157E+03  0.12509000000E+03 0.  0.
         25    1    3    3    0    0  0.10270639510E+02  0.11238062171E+03  0.63576858796E+02  0.18006780736E+03  0.12509000000E+03 0.  0.
         25    1    4    4    0    0 -0.40390520527E+01 -0.67998189966E+02 -0.17546945612E+02  0.14351122319E+03  0.12509000000E+03 0.  0.
<mgrwt>
<rscale>  2 0.45719101E+03</rscale>
<asrwt>0</asrwt>
<pdfrwt beam="1">  1       21 0.42281712E-01 0.45719101E+03</pdfrwt>
<pdfrwt beam="2">  1       21 0.26727909E-01 0.45719101E+03</pdfrwt>
<totfact> 0.66330264E+04</totfact>
</mgrwt>
</event>
<event>
 7    0  0.4737014E-002  0.4762938E+03  0.7546771E-02  0.1020159E+00
         21   -1    0    0  502  501  0.00000000000E+00  0.00000000000E+00  0.89915204538E+03  0.89915204538E+03  0.00000000000E+00 0.  1.
         21   -1    0    0  501  502 -0.00000000000E+00 -0.00000000000E+00 -0.63074916213E+02  0.63074916213E+02  0.00000000000E+00 0.  1.
      99926    2    1    2    0    0  0.14210854715E-13  0.00000000000E+00  0.83607712917E+03  0.96222696159E+03  0.47629377458E+03 0.  0.
      99925    2    3    3    0    0 -0.11544631605E+03 -0.34161111928E+02  0.62597510599E+03  0.68967384438E+03  0.26326857930E+03 0.  0.
         25    1    4    4    0    0 -0.48698316488E+02  0.17157973384E+02  0.24401828331E+03  0.27903109642E+03  0.12509000000E+03 0.  0.
         25    1    4    4    0    0 -0.66747999563E+02 -0.51319085312E+02  0.38195682268E+03  0.41064274796E+03  0.12509000000E+03 0.  0.
         25    1    3    3    0    0  0.11544631605E+03  0.34161111928E+02  0.21010202318E+03  0.27255311721E+03  0.12509000000E+03 0.  0.
<mgrwt>
<rscale>  2 0.47629377E+03</rscale>
<asrwt>0</asrwt>
<pdfrwt beam="1">  1       21 0.13222823E+00 0.47629377E+03</pdfrwt>
<pdfrwt beam="2">  1       21 0.92757235E-02 0.47629377E+03</pdfrwt>
<totfact> 0.34529902E+04</totfact>
</mgrwt>
</event>
<event>
 7    0  0.4737014E-002  0.4543299E+03  0.7546771E-02  0.1026439E+00
         21   -1    0    0  502  501  0.00000000000E+00  0.00000000000E+00  0.61598175185E+02  0.61598175185E+02  0.00000000000E+00 0.  1.
         21   -1    0    0  501  502 -0.00000000000E+00 -0.00000000000E+00 -0.83775068559E+03  0.83775068559E+03  0.00000000000E+00 0.  1.
      99926    2    1    2    0    0  0.00000000000E+00  0.14210854715E-13 -0.77615251041E+03  0.89934886078E+03  0.45432989553E+03 0.  0.
      99925    2    3    3    0    0  0.18688633944E+02  0.10482292206E+03 -0.41436930979E+03  0.50201813912E+03  0.26264648690E+03 0.  0.
         25    1    3    3    0    0 -0.18688633944E+02 -0.10482292206E+03 -0.36178320062E+03  0.39733072166E+03  0.12509000000E+03 0.  0.
         25    1    4    4    0    0 -0.23565399740E+02  0.60289659003E+02 -0.17054068027E+03  0.22118273616E+03  0.12509000000E+03 0.  0.
         25    1    4    4    0    0  0.42254033684E+02  0.44533263055E+02 -0.24382862952E+03  0.28083540296E+03  0.12509000000E+03 0.  0.
<mgrwt>
<rscale>  2 0.45432990E+03</rscale>
<asrwt>0</asrwt>
<pdfrwt beam="1">  1       21 0.90585560E-02 0.45432990E+03</pdfrwt>
<pdfrwt beam="2">  1       21 0.12319862E+00 0.45432990E+03</pdfrwt>
<totfact> 0.43489578E+04</totfact>
</mgrwt>
</event>
<event>
 7    0  0.4737014E-002  0.4527647E+03  0.7546771E-02  0.1026901E+00
         21   -1    0    0  502  501  0.00000000000E+00  0.00000000000E+00  0.41595593076E+02  0.41595593076E+02  0.00000000000E+00 0. -1.
         21   -1    0    0  501  502 -0.00000000000E+00 -0.00000000000E+00 -0.12320766318E+04  0.12320766318E+04  0.00000000000E+00 0. -1.
      99926    2    1    2    0    0  0.00000000000E+00  0.14210854715E-13 -0.11904810387E+04  0.12736722249E+04  0.45276465504E+03 0.  0.
      99925    2    3    3    0    0  0.51612483413E+02  0.91224265787E+02 -0.85434536268E+03  0.90001407105E+03  0.26293271808E+03 0.  0.
         25    1    4    4    0    0  0.25071951083E+02  0.12877266214E+02 -0.31213622539E+03  0.33744771153E+03  0.12509000000E+03 0.  0.
         25    1    4    4    0    0  0.26540532330E+02  0.78346999574E+02 -0.54220913729E+03  0.56256635952E+03  0.12509000000E+03 0.  0.
         25    1    3    3    0    0 -0.51612483413E+02 -0.91224265787E+02 -0.33613567603E+03  0.37365815381E+03  0.12509000000E+03 0.  0.
<mgrwt>
<rscale>  2 0.45276466E+03</rscale>
<asrwt>0</asrwt>
<pdfrwt beam="1">  1       21 0.61170004E-02 0.45276466E+03</pdfrwt>
<pdfrwt beam="2">  1       21 0.18118770E+00 0.45276466E+03</pdfrwt>
<totfact> 0.30414653E+04</totfact>
</mgrwt>
</event>
<event>
 7    0  0.4737014E-002  0.4530082E+03  0.7546771E-02  0.1026829E+00
         21   -1    0    0  502  501  0.00000000000E+00  0.00000000000E+00  0.68329391783E+02  0.68329391783E+02  0.00000000000E+00 0.  1.
         21   -1    0    0  501  502 -0.00000000000E+00 -0.00000000000E+00 -0.75083497479E+03  0.75083497479E+03  0.00000000000E+00 0.  1.
      99926    2    1    2    0    0  0.14210854715E-13 -0.71054273576E-14 -0.68250558301E+03  0.81916436658E+03  0.45300815515E+03 0.  0.
      99925    2    3    3    0    0  0.78424832298E+02 -0.61415651038E+02 -0.52069177777E+03  0.59167029593E+03  0.26273841579E+03 0.  0.
         25    1    4    4    0    0  0.27970192701E+02 -0.37017741865E+02 -0.33719308700E+03  0.36262836474E+03  0.12509000000E+03 0.  0.
         25    1    4    4    0    0  0.50454639596E+02 -0.24397909174E+02 -0.18349869076E+03  0.22904193118E+03  0.12509000000E+03 0.  0.
         25    1    3    3    0    0 -0.78424832298E+02  0.61415651038E+02 -0.16181380524E+03  0.22749407065E+03  0.12509000000E+03 0.  0.
<mgrwt>
<rscale>  2 0.45300816E+03</rscale>
<asrwt>0</asrwt>
<pdfrwt beam="1">  1       21 0.10048439E-01 0.45300816E+03</pdfrwt>
<pdfrwt beam="2">  1       21 0.11041691E+00 0.45300816E+03</pdfrwt>
<totfact> 0.47591262E+04</totfact>
</mgrwt>
</event>
<event>
 7    0  0.4737014E-002  0.4591957E+03  0.7546771E-02  0.1025015E+00
         21   -1    0    0  502  501  0.00000000000E+00  0.00000000000E+00  0.28522039709E+03  0.28522039709E+03  0.00000000000E+00 0.  1.
         21   -1    0    0  501  502 -0.00000000000E+00 -0.00000000000E+00 -0.18482255672E+03  0.18482255672E+03  0.00000000000E+00 0.  1.
      99926    2    1    2    0    0  0.35527136788E-14  0.00000000000E+00  0.10039784037E+03  0.47004295381E+03  0.45919565773E+03 0.  0.
      99925    2    3    3    0    0 -0.16750897562E+02  0.24639335319E+01  0.18146525490E+03  0.32002263073E+03  0.26305547306E+03 0.  0.
         25    1    4    4    0    0  0.97418771576E+01 -0.27324680869E+02  0.11718220131E+03  0.17384107328E+03  0.12509000000E+03 0.  0.
         25    1    4    4    0    0 -0.26492774720E+02  0.29788614401E+02  0.64283053582E+02  0.14618155745E+03  0.12509000000E+03 0.  0.
         25    1    3    3    0    0  0.16750897562E+02 -0.24639335319E+01 -0.81067414530E+02  0.15002032308E+03  0.12509000000E+03 0.  0.
<mgrwt>
<rscale>  2 0.45919566E+03</rscale>
<asrwt>0</asrwt>
<pdfrwt beam="1">  1       21 0.41944176E-01 0.45919566E+03</pdfrwt>
<pdfrwt beam="2">  1       21 0.27179788E-01 0.45919566E+03</pdfrwt>
<totfact> 0.65234672E+04</totfact>
</mgrwt>
</event>
<event>
 7    0  0.4737014E-002  0.4564011E+03  0.7546771E-02  0.1025830E+00
         21   -1    0    0  502  501  0.00000000000E+00  0.00000000000E+00  0.64198800256E+03  0.64198800256E+03  0.00000000000E+00 0.  1.
         21   -1    0    0  501  502 -0.00000000000E+00 -0.00000000000E+00 -0.81116000611E+02  0.81116000611E+02  0.00000000000E+00 0.  1.
      99926    2    1    2    0    0  0.00000000000E+00  0.00000000000E+00  0.56087200194E+03  0.72310400317E+03  0.45640113588E+03 0.  0.
      99925    2    3    3    0    0  0.61027995065E+01 -0.11358314130E+03  0.33150060157E+03  0.43815291691E+03  0.26295808717E+03 0.  0.
         25    1    4    4    0    0  0.23450775042E+02 -0.18989188758E+02  0.15260750350E+03  0.19961734986E+03  0.12509000000E+03 0.  0.
         25    1    3    3    0    0 -0.61027995065E+01  0.11358314130E+03  0.22937140038E+03  0.28495108626E+03  0.12509000000E+03 0.  0.
         25    1    4    4    0    0 -0.17347975536E+02 -0.94593952539E+02  0.17889309807E+03  0.23853556705E+03  0.12509000000E+03 0.  0.
<mgrwt>
<rscale>  2 0.45640114E+03</rscale>
<asrwt>0</asrwt>
<pdfrwt beam="1">  1       21 0.94409998E-01 0.45640114E+03</pdfrwt>
<pdfrwt beam="2">  1       21 0.11928824E-01 0.45640114E+03</pdfrwt>
<totfact> 0.51101031E+04</totfact>
</mgrwt>
</event>
<event>
 7    0  0.4737014E-002  0.4331762E+03  0.7546771E-02  0.1032861E+00
         21   -1    0    0  502  501  0.00000000000E+00  0.00000000000E+00  0.93824154515E+03  0.93824154515E+03  0.00000000000E+00 0. -1.
         21   -1    0    0  501  502 -0.00000000000E+00 -0.00000000000E+00 -0.49998211105E+02  0.49998211105E+02  0.00000000000E+00 0. -1.
      99926    2    1    2    0    0  0.88817841970E-15  0.00000000000E+00  0.88824333405E+03  0.98823975626E+03  0.43317617128E+03 0.  0.
      99925    2    3    3    0    0 -0.38972526481E+01  0.91098123984E+02  0.56972429103E+03  0.63409861824E+03  0.26302325580E+03 0.  0.
         25    1    4    4    0    0  0.24984705134E+01  0.28354765599E+01  0.25422867066E+03  0.28336197234E+03  0.12509000000E+03 0.  0.
         25    1    3    3    0    0  0.38972526481E+01 -0.91098123984E+02  0.31851904302E+03  0.35414113802E+03  0.12509000000E+03 0.  0.
         25    1    4    4    0    0 -0.63957231615E+01  0.88262647424E+02  0.31549562037E+03  0.35073664590E+03  0.12509000000E+03 0.  0.
<mgrwt>
<rscale>  2 0.43317617E+03</rscale>
<asrwt>0</asrwt>
<pdfrwt beam="1">  1       21 0.13797669E+00 0.43317617E+03</pdfrwt>
<pdfrwt beam="2">  1       21 0.73526787E-02 0.43317617E+03</pdfrwt>
<totfact> 0.47169463E+04</totfact>
</mgrwt>
</event>
<event>
 7    0  0.4737014E-002  0.4705948E+03  0.7546771E-02  0.1021752E+00
         21   -1    0    0  502  501  0.00000000000E+00  0.00000000000E+00  0.16687084057E+03  0.16687084057E+03  0.00000000000E+00 0. -1.
         21   -1    0    0  501  502 -0.00000000000E+00 -0.00000000000E+00 -0.33178278191E+03  0.33178278191E+03  0.00000000000E+00 0. -1.
      99926    2    1    2    0    0  0.00000000000E+00  0.00000000000E+00 -0.16491194135E+03  0.49865362248E+03  0.47059482234E+03 0.  0.
      99925    2    3    3    0    0 -0.53623471398E+02 -0.10694025387E+03 -0.56594322008E+02  0.29446765494E+03  0.26305244332E+03 0.  0.
         25    1    4    4    0    0 -0.24717652840E+02 -0.96993679321E+02 -0.31293101191E+02  0.16323450148E+03  0.12509000000E+03 0.  0.
         25    1    3    3    0    0  0.53623471398E+02  0.10694025387E+03 -0.10831761934E+03  0.20418596755E+03  0.12509000000E+03 0.  0.
         25    1    4    4    0    0 -0.28905818558E+02 -0.99465745512E+01 -0.25301220817E+02  0.13123315346E+03  0.12509000000E+03 0.  0.
<mgrwt>
<rscale>  2 0.47059482E+03</rscale>
<asrwt>0</asrwt>
<pdfrwt beam="1">  1       21 0.24539830E-01 0.47059482E+03</pdfrwt>
<pdfrwt beam="2">  1       21 0.48791585E-01 0.47059482E+03</pdfrwt>
<totfact> 0.57863228E+04</totfact>
</mgrwt>
</event>
<event>
 7    0  0.4737014E-002  0.4571945E+03  0.7546771E-02  0.1025598E+00
         21   -1    0    0  502  501  0.00000000000E+00  0.00000000000E+00  0.53422859731E+02  0.53422859731E+02  0.00000000000E+00 0. -1.
         21   -1    0    0  501  502 -0.00000000000E+00 -0.00000000000E+00 -0.97817099866E+03  0.97817099866E+03  0.00000000000E+00 0. -1.
      99926    2    1    2    0    0  0.00000000000E+00  0.00000000000E+00 -0.92474813893E+03  0.10315938584E+04  0.45719445340E+03 0.  0.
      99925    2    3    3    0    0  0.33397687946E+02  0.12234072390E+02 -0.33341451333E+03  0.42612871244E+03  0.26297407436E+03 0.  0.
         25    1    4    4    0    0  0.38349506666E+02  0.27478984966E+02 -0.21475477625E+03  0.25296818238E+03  0.12509000000E+03 0.  0.
         25    1    3    3    0    0 -0.33397687946E+02 -0.12234072390E+02 -0.59133362560E+03  0.60546514594E+03  0.12509000000E+03 0.  0.
         25    1    4    4    0    0 -0.49518187199E+01 -0.15244912575E+02 -0.11865973707E+03  0.17316053006E+03  0.12509000000E+03 0.  0.
<mgrwt>
<rscale>  2 0.45719445E+03</rscale>
<asrwt>0</asrwt>
<pdfrwt beam="1">  1       21 0.78563037E-02 0.45719445E+03</pdfrwt>
<pdfrwt beam="2">  1       21 0.14384866E+00 0.45719445E+03</pdfrwt>
<totfact> 0.37316702E+04</totfact>
</mgrwt>
</event>
<event>
 7    0  0.4737014E-002  0.4559896E+03  0.7546771E-02  0.1025951E+00
         21   -1    0    0  502  501  0.00000000000E+00  0.00000000000E+00  0.14024950197E+04  0.14024950197E+04  0.00000000000E+00 0.  1.
         21   -1    0    0  501  502 -0.00000000000E+00 -0.00000000000E+00 -0.37063674843E+02  0.37063674843E+02  0.00000000000E+00 0.  1.
      99926    2    1    2    0    0  0.35527136788E-14  0.00000000000E+00  0.13654313448E+04  0.14395586945E+04  0.45598955856E+03 0.  0.
      99925    2    3    3    0    0  0.17788661069E+02 -0.69758166475E+02  0.57851987033E+03  0.63952131098E+03  0.26290612123E+03 0.  0.
         25    1    3    3    0    0 -0.17788661069E+02  0.69758166475E+02  0.78691147451E+03  0.80003738354E+03  0.12509000000E+03 0.  0.
         25    1    4    4    0    0 -0.16646780566E+02 -0.21081521913E+02  0.21118070782E+03  0.24691363941E+03  0.12509000000E+03 0.  0.
         25    1    4    4    0    0  0.34435441636E+02 -0.48676644563E+02  0.36733916251E+03  0.39260767157E+03  0.12509000000E+03 0.  0.
<mgrwt>
<rscale>  2 0.45598956E+03</rscale>
<asrwt>0</asrwt>
<pdfrwt beam="1">  1       21 0.20624923E+00 0.45598956E+03</pdfrwt>
<pdfrwt beam="2">  1       21 0.54505413E-02 0.45598956E+03</pdfrwt>
<totfact> 0.25103092E+04</totfact>
</mgrwt>
</event>
<event>
 7    0  0.4737014E-002  0.4384328E+03  0.7546771E-02  0.1031229E+00
         21   -1    0    0  502  501  0.00000000000E+00  0.00000000000E+00  0.43562096079E+03  0.43562096079E+03  0.00000000000E+00 0.  1.
         21   -1    0    0  501  502 -0.00000000000E+00 -0.00000000000E+00 -0.11031567474E+03  0.11031567474E+03  0.00000000000E+00 0.  1.
      99926    2    1    2    0    0  0.00000000000E+00 -0.17763568394E-14  0.32530528604E+03  0.54593663553E+03  0.43843275526E+03 0.  0.
      99925    2    3    3    0    0 -0.88903908646E+02 -0.11128882573E+02  0.25366283100E+03  0.37620771500E+03  0.26298223513E+03 0.  0.
         25    1    3    3    0    0  0.88903908646E+02  0.11128882573E+02  0.71642455042E+02  0.16972892053E+03  0.12509000000E+03 0.  0.
         25    1    4    4    0    0 -0.46771636688E+02 -0.37840029275E+02  0.16184327757E+03  0.21321399674E+03  0.12509000000E+03 0.  0.
         25    1    4    4    0    0 -0.42132271958E+02  0.26711146701E+02  0.91819553433E+02  0.16299371826E+03  0.12509000000E+03 0.  0.
<mgrwt>
<rscale>  2 0.43843276E+03</rscale>
<asrwt>0</asrwt>
<pdfrwt beam="1">  1       21 0.64061905E-01 0.43843276E+03</pdfrwt>
<pdfrwt beam="2">  1       21 0.16222894E-01 0.43843276E+03</pdfrwt>
<totfact> 0.70994760E+04</totfact>
</mgrwt>
</event>
<event>
 7    0  0.4737014E-002  0.4567052E+03  0.7546771E-02  0.1025741E+00
         21   -1    0    0  502  501  0.00000000000E+00  0.00000000000E+00  0.68118248719E+03  0.68118248719E+03  0.00000000000E+00 0.  1.
         21   -1    0    0  501  502 -0.00000000000E+00 -0.00000000000E+00 -0.76550571253E+02  0.76550571253E+02  0.00000000000E+00 0.  1.
      99926    2    1    2    0    0  0.00000000000E+00  0.00000000000E+00  0.60463191593E+03  0.75773305844E+03  0.45670519385E+03 0.  0.
      99925    2    3    3    0    0 -0.71766103165E+02 -0.66412876172E+02  0.47930782894E+03  0.55545928711E+03  0.26313111005E+03 0.  0.
         25    1    3    3    0    0  0.71766103165E+02  0.66412876172E+02  0.12532408700E+03  0.20227377133E+03  0.12509000000E+03 0.  0.
         25    1    4    4    0    0 -0.72699069343E+02 -0.33321277135E+02  0.21641184255E+03  0.26244438628E+03  0.12509000000E+03 0.  0.
         25    1    4    4    0    0  0.93296617749E+00 -0.33091599037E+02  0.26289598638E+03  0.29301490083E+03  0.12509000000E+03 0.  0.
<mgrwt>
<rscale>  2 0.45670519E+03</rscale>
<asrwt>0</asrwt>
<pdfrwt beam="1">  1       21 0.10017389E+00 0.45670519E+03</pdfrwt>
<pdfrwt beam="2">  1       21 0.11257437E-01 0.45670519E+03</pdfrwt>
<totfact> 0.49214316E+04</totfact>
</mgrwt>
</event>
<event>
 7    0  0.4737014E-002  0.4538674E+03  0.7546771E-02  0.1026575E+00
         21   -1    0    0  502  501  0.00000000000E+00  0.00000000000E+00  0.26222886579E+03  0.26222886579E+03  0.00000000000E+00 0.  1.
         21   -1    0    0  501  502 -0.00000000000E+00 -0.00000000000E+00 -0.19638913636E+03  0.19638913636E+03  0.00000000000E+00 0.  1.
      99926    2    1    2    0    0  0.00000000000E+00  0.00000000000E+00  0.65839729433E+02  0.45861800215E+03  0.45386738363E+03 0.  0.
      99925    2    3    3    0    0 -0.46336778568E+02  0.30428296818E+02 -0.57488251006E+02  0.27441627264E+03  0.26253840364E+03 0.  0.
         25    1    3    3    0    0  0.46336778568E+02 -0.30428296818E+02  0.12332798044E+03  0.18420172951E+03  0.12509000000E+03 0.  0.
         25    1    4    4    0    0  0.38791277477E+01 -0.14264572179E+02 -0.34094239762E+02  0.13049310685E+03  0.12509000000E+03 0.  0.
         25    1    4    4    0    0 -0.50215906316E+02  0.44692868997E+02 -0.23394011244E+02  0.14392316578E+03  0.12509000000E+03 0.  0.
<mgrwt>
<rscale>  2 0.45386738E+03</rscale>
<asrwt>0</asrwt>
<pdfrwt beam="1">  1       21 0.38563069E-01 0.45386738E+03</pdfrwt>
<pdfrwt beam="2">  1       21 0.28880755E-01 0.45386738E+03</pdfrwt>
<totfact> 0.68901647E+04</totfact>
</mgrwt>
</event>
<event>
 7    0  0.4737014E-002  0.4573189E+03  0.7546771E-02  0.1025562E+00
         21   -1    0    0  502  501  0.00000000000E+00  0.00000000000E+00  0.97680939636E+02  0.97680939636E+02  0.00000000000E+00 0. -1.
         21   -1    0    0  501  502 -0.00000000000E+00 -0.00000000000E+00 -0.53526446449E+03  0.53526446449E+03  0.00000000000E+00 0. -1.
      99926    2    1    2    0    0  0.00000000000E+00  0.14210854715E-13 -0.43758352486E+03  0.63294540413E+03  0.45731886401E+03 0.  0.
      99925    2    3    3    0    0  0.80953123463E+02  0.81809087363E+02 -0.26912427573E+03  0.39362937522E+03  0.26319208628E+03 0.  0.
         25    1    3    3    0    0 -0.80953123463E+02 -0.81809087363E+02 -0.16845924913E+03  0.23931602890E+03  0.12509000000E+03 0.  0.
         25    1    4    4    0    0  0.32371102263E+02  0.22175512910E+02 -0.77798309566E+02  0.15244581564E+03  0.12509000000E+03 0.  0.
         25    1    4    4    0    0  0.48582021200E+02  0.59633574453E+02 -0.19132596616E+03  0.24118355959E+03  0.12509000000E+03 0.  0.
<mgrwt>
<rscale>  2 0.45731886E+03</rscale>
<asrwt>0</asrwt>
<pdfrwt beam="1">  1       21 0.14364844E-01 0.45731886E+03</pdfrwt>
<pdfrwt beam="2">  1       21 0.78715362E-01 0.45731886E+03</pdfrwt>
<totfact> 0.55668887E+04</totfact>
</mgrwt>
</event>
<event>
 7    0  0.4737014E-002  0.4559391E+03  0.7546771E-02  0.1025966E+00
         21   -1    0    0  502  501  0.00000000000E+00  0.00000000000E+00  0.37610403061E+03  0.37610403061E+03  0.00000000000E+00 0. -1.
         21   -1    0    0  501  502 -0.00000000000E+00 -0.00000000000E+00 -0.13818013396E+03  0.13818013396E+03  0.00000000000E+00 0. -1.
      99926    2    1    2    0    0  0.00000000000E+00  0.14210854715E-13  0.23792389665E+03  0.51428416456E+03  0.45593905440E+03 0.  0.
      99925    2    3    3    0    0  0.24597520927E+02 -0.97920780335E+02  0.20944178629E+03  0.35102897792E+03  0.26298662368E+03 0.  0.
         25    1    3    3    0    0 -0.24597520927E+02  0.97920780335E+02  0.28482110355E+02  0.16325518665E+03  0.12509000000E+03 0.  0.
         25    1    4    4    0    0 -0.13161733762E+02 -0.79739013740E+02  0.12463065503E+03  0.19419539084E+03  0.12509000000E+03 0.  0.
         25    1    4    4    0    0  0.37759254689E+02 -0.18181766595E+02  0.84811131259E+02  0.15683358708E+03  0.12509000000E+03 0.  0.
<mgrwt>
<rscale>  2 0.45593905E+03</rscale>
<asrwt>0</asrwt>
<pdfrwt beam="1">  1       21 0.55309416E-01 0.45593905E+03</pdfrwt>
<pdfrwt beam="2">  1       21 0.20320608E-01 0.45593905E+03</pdfrwt>
<totfact> 0.63801600E+04</totfact>
</mgrwt>
</event>
<event>
 7    0  0.4737014E-002  0.4537054E+03  0.7546771E-02  0.1026623E+00
         21   -1    0    0  502  501  0.00000000000E+00  0.00000000000E+00  0.21558401186E+04  0.21558401186E+04  0.00000000000E+00 0.  1.
         21   -1    0    0  501  502 -0.00000000000E+00 -0.00000000000E+00 -0.23871040931E+02  0.23871040931E+02  0.00000000000E+00 0.  1.
      99926    2    1    2    0    0  0.00000000000E+00 -0.35527136788E-14  0.21319690777E+04  0.21797111595E+04  0.45370540095E+03 0.  0.
      99925    2    3    3    0    0 -0.21810726849E+01  0.14191819597E+02  0.80983297479E+03  0.85159311227E+03  0.26301181910E+03 0.  0.
         25    1    3    3    0    0  0.21810726849E+01 -0.14191819597E+02  0.13221361029E+04  0.13281180473E+04  0.12509000000E+03 0.  0.
         25    1    4    4    0    0  0.21591821683E+01  0.46784137949E+02  0.38533486378E+03  0.40782825181E+03  0.12509000000E+03 0.  0.
         25    1    4    4    0    0 -0.43402548532E+01 -0.32592318352E+02  0.42449811101E+03  0.44376486046E+03  0.12509000000E+03 0.  0.
<mgrwt>
<rscale>  2 0.45370540E+03</rscale>
<asrwt>0</asrwt>
<pdfrwt beam="1">  1       21 0.31703518E+00 0.45370540E+03</pdfrwt>
<pdfrwt beam="2">  1       21 0.35104487E-02 0.45370540E+03</pdfrwt>
<totfact> 0.11102676E+04</totfact>
</mgrwt>
</event>
<event>
 7    0  0.4737014E-002  0.4541253E+03  0.7546771E-02  0.1026499E+00
         21   -1    0    0  502  501  0.00000000000E+00  0.00000000000E+00  0.18116815477E+03  0.18116815477E+03  0.00000000000E+00 0. -1.
         21   -1    0    0  501  502 -0.00000000000E+00 -0.00000000000E+00 -0.28458339294E+03  0.28458339294E+03  0.00000000000E+00 0. -1.
      99926    2    1    2    0    0  0.00000000000E+00  0.00000000000E+00 -0.10341523817E+03  0.46575154771E+03  0.45412530507E+03 0.  0.
      99925    2    3    3    0    0 -0.59884050305E+02 -0.27161189735E+02 -0.15846454419E+03  0.31408822352E+03  0.26309042302E+03 0.  0.
         25    1    4    4    0    0 -0.38350390045E+02 -0.99740051785E+01 -0.12607374523E+03  0.18196793820E+03  0.12509000000E+03 0.  0.
         25    1    3    3    0    0  0.59884050305E+02  0.27161189735E+02  0.55049306021E+02  0.15166332418E+03  0.12509000000E+03 0.  0.
         25    1    4    4    0    0 -0.21533660260E+02 -0.17187184557E+02 -0.32390798957E+02  0.13212028532E+03  0.12509000000E+03 0.  0.
<mgrwt>
<rscale>  2 0.45412531E+03</rscale>
<asrwt>0</asrwt>
<pdfrwt beam="1">  1       21 0.26642376E-01 0.45412531E+03</pdfrwt>
<pdfrwt beam="2">  1       21 0.41850498E-01 0.45412531E+03</pdfrwt>
<totfact> 0.68225464E+04</totfact>
</mgrwt>
</event>
<event>
 6    0  0.4737014E-002  0.4625557E+03  0.7546771E-02  0.1024043E+00
         21   -1    0    0  502  501  0.00000000000E+00  0.00000000000E+00  0.54775063380E+03  0.54775063380E+03  0.00000000000E+00 0. -1.
         21   -1    0    0  501  502 -0.00000000000E+00 -0.00000000000E+00 -0.97652924163E+02  0.97652924163E+02  0.00000000000E+00 0. -1.
      99926    2    1    2    0    0 -0.71054273576E-14  0.71054273576E-14  0.45009770963E+03  0.64540355796E+03  0.46255573114E+03 0.  0.
         25    1    3    3    0    0  0.33208179315E+02  0.10659942377E+02  0.13006278621E+03  0.18379405323E+03  0.12509000000E+03 0.  0.
         25    1    3    3    0    0  0.15560513322E+02 -0.59670157549E+02  0.28059290637E+03  0.31334093968E+03  0.12509000000E+03 0.  0.
         25    1    3    3    0    0 -0.48768692637E+02  0.49010215172E+02  0.39442017054E+02  0.14826856505E+03  0.12509000000E+03 0.  0.
<mgrwt>
<rscale>  2 0.46255573E+03</rscale>
<asrwt>0</asrwt>
<pdfrwt beam="1">  1       21 0.80551563E-01 0.46255573E+03</pdfrwt>
<pdfrwt beam="2">  1       21 0.14360724E-01 0.46255573E+03</pdfrwt>
<totfact> 0.52751021E+04</totfact>
</mgrwt>
</event>
<event>
 7    0  0.4737014E-002  0.4651727E+03  0.7546771E-02  0.1023292E+00
         21   -1    0    0  502  501  0.00000000000E+00  0.00000000000E+00  0.31740649252E+02  0.31740649252E+02  0.00000000000E+00 0. -1.
         21   -1    0    0  501  502 -0.00000000000E+00 -0.00000000000E+00 -0.17043257972E+04  0.17043257972E+04  0.00000000000E+00 0. -1.
      99926    2    1    2    0    0  0.00000000000E+00  0.00000000000E+00 -0.16725851480E+04  0.17360664465E+04  0.46517268768E+03 0.  0.
      99925    2    3    3    0    0  0.76813436766E+02  0.91688041616E+02 -0.94941787502E+03  0.99247689987E+03  0.26326620432E+03 0.  0.
         25    1    4    4    0    0  0.15981228073E+02  0.50184510675E+02 -0.34181759638E+03  0.36777800649E+03  0.12509000000E+03 0.  0.
         25    1    4    4    0    0  0.60832208693E+02  0.41503530941E+02 -0.60760027863E+03  0.62469889338E+03  0.12509000000E+03 0.  0.
         25    1    3    3    0    0 -0.76813436766E+02 -0.91688041616E+02 -0.72316727297E+03  0.74358954661E+03  0.12509000000E+03 0.  0.
<mgrwt>
<rscale>  2 0.46517269E+03</rscale>
<asrwt>0</asrwt>
<pdfrwt beam="1">  1       21 0.46677406E-02 0.46517269E+03</pdfrwt>
<pdfrwt beam="2">  1       21 0.25063625E+00 0.46517269E+03</pdfrwt>
<totfact> 0.17127786E+04</totfact>
</mgrwt>
</event>
<event>
 7    0  0.4737014E-002  0.4074684E+03  0.7546771E-02  0.1041224E+00
         21   -1    0    0  502  501  0.00000000000E+00  0.00000000000E+00  0.40902511534E+03  0.40902511534E+03  0.00000000000E+00 0.  1.
         21   -1    0    0  501  502 -0.00000000000E+00 -0.00000000000E+00 -0.10147939734E+03  0.10147939734E+03  0.00000000000E+00 0.  1.
      99926    2    1    2    0    0  0.00000000000E+00 -0.71054273576E-14  0.30754571799E+03  0.51050451268E+03  0.40746838995E+03 0.  0.
      99925    2    3    3    0    0  0.35983824938E+02  0.43472826160E+02  0.22191095220E+03  0.34874684367E+03  0.26304974433E+03 0.  0.
         25    1    4    4    0    0  0.76117089294E+01  0.33567714734E+02  0.15995614882E+03  0.20595680914E+03  0.12509000000E+03 0.  0.
         25    1    4    4    0    0  0.28372116009E+02  0.99051114256E+01  0.61954803378E+02  0.14279003453E+03  0.12509000000E+03 0.  0.
         25    1    3    3    0    0 -0.35983824938E+02 -0.43472826160E+02  0.85634765789E+02  0.16175766901E+03  0.12509000000E+03 0.  0.
<mgrwt>
<rscale>  2 0.40746839E+03</rscale>
<asrwt>0</asrwt>
<pdfrwt beam="1">  1       21 0.60150752E-01 0.40746839E+03</pdfrwt>
<pdfrwt beam="2">  1       21 0.14923441E-01 0.40746839E+03</pdfrwt>
<totfact> 0.95858722E+04</totfact>
</mgrwt>
</event>
<event>
 7    0  0.4737014E-002  0.4453036E+03  0.7546771E-02  0.1029132E+00
         21   -1    0    0  502  501  0.00000000000E+00  0.00000000000E+00  0.16293964258E+03  0.16293964258E+03  0.00000000000E+00 0.  1.
         21   -1    0    0  501  502 -0.00000000000E+00 -0.00000000000E+00 -0.30424660181E+03  0.30424660181E+03  0.00000000000E+00 0.  1.
      99926    2    1    2    0    0  0.00000000000E+00 -0.71054273576E-14 -0.14130695923E+03  0.46718624439E+03  0.44530363823E+03 0.  0.
      99925    2    3    3    0    0 -0.85506704062E+02 -0.49759572544E+02 -0.56753249809E+02  0.28667516613E+03  0.26301009108E+03 0.  0.
         25    1    3    3    0    0  0.85506704062E+02  0.49759572544E+02 -0.84553709420E+02  0.18051107826E+03  0.12509000000E+03 0.  0.
         25    1    4    4    0    0 -0.80786418637E+02 -0.45521365183E+02 -0.33819460598E+02  0.15934209783E+03  0.12509000000E+03 0.  0.
         25    1    4    4    0    0 -0.47202854254E+01 -0.42382073610E+01 -0.22933789211E+02  0.12733306830E+03  0.12509000000E+03 0.  0.
<mgrwt>
<rscale>  2 0.44530364E+03</rscale>
<asrwt>0</asrwt>
<pdfrwt beam="1">  1       21 0.23961712E-01 0.44530364E+03</pdfrwt>
<pdfrwt beam="2">  1       21 0.44742147E-01 0.44530364E+03</pdfrwt>
<totfact> 0.73110626E+04</totfact>
</mgrwt>
</event>
<event>
 7    0  0.4737014E-002  0.4442265E+03  0.7546771E-02  0.1029458E+00
         21   -1    0    0  502  501  0.00000000000E+00  0.00000000000E+00  0.23769669798E+03  0.23769669798E+03  0.00000000000E+00 0. -1.
         21   -1    0    0  501  502 -0.00000000000E+00 -0.00000000000E+00 -0.20755147279E+03  0.20755147279E+03  0.00000000000E+00 0. -1.
      99926    2    1    2    0    0  0.00000000000E+00  0.00000000000E+00  0.30145225186E+02  0.44524817078E+03  0.44422651764E+03 0.  0.
      99925    2    3    3    0    0 -0.77518976402E+02  0.65019729724E+02  0.36954430814E+02  0.28421826567E+03  0.26301641704E+03 0.  0.
         25    1    4    4    0    0 -0.72066631890E+02  0.17794902197E+02  0.38216490494E+02  0.15039370406E+03  0.12509000000E+03 0.  0.
         25    1    3    3    0    0  0.77518976402E+02 -0.65019729724E+02 -0.68092056276E+01  0.16102990510E+03  0.12509000000E+03 0.  0.
         25    1    4    4    0    0 -0.54523445111E+01  0.47224827528E+02 -0.12620596796E+01  0.13382456161E+03  0.12509000000E+03 0.  0.
<mgrwt>
<rscale>  2 0.44422652E+03</rscale>
<asrwt>0</asrwt>
<pdfrwt beam="1">  1       21 0.34955397E-01 0.44422652E+03</pdfrwt>
<pdfrwt beam="2">  1       21 0.30522275E-01 0.44422652E+03</pdfrwt>
<totfact> 0.75554975E+04</totfact>
</mgrwt>
</event>
<event>
 7    0  0.4737014E-002  0.4584894E+03  0.7546771E-02  0.1025220E+00
         21   -1    0    0  502  501  0.00000000000E+00  0.00000000000E+00  0.86299872330E+02  0.86299872330E+02  0.00000000000E+00 0.  1.
         21   -1    0    0  501  502 -0.00000000000E+00 -0.00000000000E+00 -0.60895945440E+03  0.60895945440E+03  0.00000000000E+00 0.  1.
      99926    2    1    2    0    0  0.00000000000E+00  0.00000000000E+00 -0.52265958207E+03  0.69525932673E+03  0.45848935939E+03 0.  0.
      99925    2    3    3    0    0  0.24016137577E+02  0.10297219149E+03 -0.25548719714E+03  0.38187675150E+03  0.26339342883E+03 0.  0.
         25    1    4    4    0    0  0.16666008877E+01  0.71063228067E+02 -0.85873420740E+02  0.16755450585E+03  0.12509000000E+03 0.  0.
         25    1    3    3    0    0 -0.24016137577E+02 -0.10297219149E+03 -0.26717238493E+03  0.31338257522E+03  0.12509000000E+03 0.  0.
         25    1    4    4    0    0  0.22349536690E+02  0.31908963425E+02 -0.16961377640E+03  0.21432224565E+03  0.12509000000E+03 0.  0.
<mgrwt>
<rscale>  2 0.45848936E+03</rscale>
<asrwt>0</asrwt>
<pdfrwt beam="1">  1       21 0.12691158E-01 0.45848936E+03</pdfrwt>
<pdfrwt beam="2">  1       21 0.89552861E-01 0.45848936E+03</pdfrwt>
<totfact> 0.51725803E+04</totfact>
</mgrwt>
</event>
<event>
 7    0  0.4737014E-002  0.4323450E+03  0.7546771E-02  0.1033122E+00
         21   -1    0    0  502  501  0.00000000000E+00  0.00000000000E+00  0.22365028422E+03  0.22365028422E+03  0.00000000000E+00 0. -1.
         21   -1    0    0  501  502 -0.00000000000E+00 -0.00000000000E+00 -0.20894471740E+03  0.20894471740E+03  0.00000000000E+00 0. -1.
      99926    2    1    2    0    0  0.00000000000E+00  0.00000000000E+00  0.14705566819E+02  0.43259500163E+03  0.43234498001E+03 0.  0.
      99925    2    3    3    0    0  0.30402661186E+02 -0.82237523561E+02  0.30923473201E+02  0.27897904974E+03  0.26303177927E+03 0.  0.
         25    1    3    3    0    0 -0.30402661186E+02  0.82237523561E+02 -0.16217906381E+02  0.15361595189E+03  0.12509000000E+03 0.  0.
         25    1    4    4    0    0 -0.31829823613E+01 -0.76547506460E+01 -0.42508699707E+01  0.12543645634E+03  0.12509000000E+03 0.  0.
         25    1    4    4    0    0  0.33585643548E+02 -0.74582772915E+02  0.35174343171E+02  0.15354259339E+03  0.12509000000E+03 0.  0.
<mgrwt>
<rscale>  2 0.43234498E+03</rscale>
<asrwt>0</asrwt>
<pdfrwt beam="1">  1       21 0.32889748E-01 0.43234498E+03</pdfrwt>
<pdfrwt beam="2">  1       21 0.30727164E-01 0.43234498E+03</pdfrwt>
<totfact> 0.84489885E+04</totfact>
</mgrwt>
</event>
<event>
 7    0  0.4737014E-002  0.4516408E+03  0.7546771E-02  0.1027234E+00
         21   -1    0    0  502  501  0.00000000000E+00  0.00000000000E+00  0.41036859364E+02  0.41036859364E+02  0.00000000000E+00 0. -1.
         21   -1    0    0  501  502 -0.00000000000E+00 -0.00000000000E+00 -0.12426595422E+04  0.12426595422E+04  0.00000000000E+00 0. -1.
      99926    2    1    2    0    0  0.00000000000E+00  0.14210854715E-13 -0.12016226828E+04  0.12836964015E+04  0.45164076375E+03 0.  0.
      99925    2    3    3    0    0  0.28390119047E+02 -0.10552852153E+03 -0.80216734771E+03  0.85108301691E+03  0.26254062587E+03 0.  0.
         25    1    3    3    0    0 -0.28390119047E+02  0.10552852153E+03 -0.39945533510E+03  0.43261338462E+03  0.12509000000E+03 0.  0.
         25    1    4    4    0    0  0.26900202785E+02 -0.18237186166E+02 -0.31141173313E+03  0.33716611856E+03  0.12509000000E+03 0.  0.
         25    1    4    4    0    0  0.14899162628E+01 -0.87291335364E+02 -0.49075561457E+03  0.51391689836E+03  0.12509000000E+03 0.  0.
<mgrwt>
<rscale>  2 0.45164076E+03</rscale>
<asrwt>0</asrwt>
<pdfrwt beam="1">  1       21 0.60348320E-02 0.45164076E+03</pdfrwt>
<pdfrwt beam="2">  1       21 0.18274406E+00 0.45164076E+03</pdfrwt>
<totfact> 0.30377977E+04</totfact>
</mgrwt>
</event>
<event>
 7    0  0.4737014E-002  0.4699310E+03  0.7546771E-02  0.1021940E+00
         21   -1    0    0  502  501  0.00000000000E+00  0.00000000000E+00  0.28295188948E+03  0.28295188948E+03  0.00000000000E+00 0.  1.
         21   -1    0    0  501  502 -0.00000000000E+00 -0.00000000000E+00 -0.19511720789E+03  0.19511720789E+03  0.00000000000E+00 0.  1.
      99926    2    1    2    0    0  0.71054273576E-14  0.35527136788E-14  0.87834681588E+02  0.47806909737E+03  0.46993098490E+03 0.  0.
      99925    2    3    3    0    0 -0.36026790685E+02 -0.21619578342E+02 -0.66943408186E+02  0.27467514223E+03  0.26305831681E+03 0.  0.
         25    1    3    3    0    0  0.36026790685E+02  0.21619578342E+02  0.15477808977E+03  0.20339395514E+03  0.12509000000E+03 0.  0.
         25    1    4    4    0    0 -0.31857173908E+02 -0.31655377441E+02 -0.67601826860E+02  0.14911223137E+03  0.12509000000E+03 0.  0.
         25    1    4    4    0    0 -0.41696167775E+01  0.10035799099E+02  0.65841867362E+00  0.12556291086E+03  0.12509000000E+03 0.  0.
<mgrwt>
<rscale>  2 0.46993098E+03</rscale>
<asrwt>0</asrwt>
<pdfrwt beam="1">  1       21 0.41610572E-01 0.46993098E+03</pdfrwt>
<pdfrwt beam="2">  1       21 0.28693707E-01 0.46993098E+03</pdfrwt>
<totfact> 0.59472412E+04</totfact>
</mgrwt>
</event>
<event>
 7    0  0.4737014E-002  0.4530292E+03  0.7546771E-02  0.1026823E+00
         21   -1    0    0  502  501  0.00000000000E+00  0.00000000000E+00  0.36135752884E+03  0.36135752884E+03  0.00000000000E+00 0.  1.
         21   -1    0    0  501  502 -0.00000000000E+00 -0.00000000000E+00 -0.14198916809E+03  0.14198916809E+03  0.00000000000E+00 0.  1.
      99926    2    1    2    0    0  0.00000000000E+00 -0.71054273576E-14  0.21936836075E+03  0.50334669692E+03  0.45302915977E+03 0.  0.
      99925    2    3    3    0    0 -0.10402216140E+03  0.36940066947E+02  0.12230161062E+03  0.31033208429E+03  0.26298885902E+03 0.  0.
         25    1    4    4    0    0 -0.73113823503E+02 -0.14622512507E+02  0.50972221052E+02  0.15428909384E+03  0.12509000000E+03 0.  0.
         25    1    4    4    0    0 -0.30908337900E+02  0.51562579454E+02  0.71329389567E+02  0.15604299045E+03  0.12509000000E+03 0.  0.
         25    1    3    3    0    0  0.10402216140E+03 -0.36940066947E+02  0.97066750131E+02  0.19301461263E+03  0.12509000000E+03 0.  0.
<mgrwt>
<rscale>  2 0.45302916E+03</rscale>
<asrwt>0</asrwt>
<pdfrwt beam="1">  1       21 0.53140813E-01 0.45302916E+03</pdfrwt>
<pdfrwt beam="2">  1       21 0.20880760E-01 0.45302916E+03</pdfrwt>
<totfact> 0.66063601E+04</totfact>
</mgrwt>
</event>
<event>
 7    0  0.4737014E-002  0.4572812E+03  0.7546771E-02  0.1025573E+00
         21   -1    0    0  502  501  0.00000000000E+00  0.00000000000E+00  0.11068309338E+04  0.11068309338E+04  0.00000000000E+00 0. -1.
         21   -1    0    0  501  502 -0.00000000000E+00 -0.00000000000E+00 -0.47230821853E+02  0.47230821853E+02  0.00000000000E+00 0. -1.
      99926    2    1    2    0    0  0.00000000000E+00  0.00000000000E+00  0.10596001119E+04  0.11540617556E+04  0.45728124674E+03 0.  0.
      99925    2    3    3    0    0 -0.30296197165E+02  0.32266192261E+02  0.39665097599E+03  0.47796410613E+03  0.26298046176E+03 0.  0.
         25    1    4    4    0    0 -0.24225749161E+02  0.53771385082E+02  0.23029655772E+03  0.26863034336E+03  0.12509000000E+03 0.  0.
         25    1    3    3    0    0  0.30296197165E+02 -0.32266192261E+02  0.66294913595E+03  0.67609764952E+03  0.12509000000E+03 0.  0.
         25    1    4    4    0    0 -0.60704480041E+01 -0.21505192822E+02  0.16635441828E+03  0.20933376278E+03  0.12509000000E+03 0.  0.
<mgrwt>
<rscale>  2 0.45728125E+03</rscale>
<asrwt>0</asrwt>
<pdfrwt beam="1">  1       21 0.16276924E+00 0.45728125E+03</pdfrwt>
<pdfrwt beam="2">  1       21 0.69457098E-02 0.45728125E+03</pdfrwt>
<totfact> 0.33055443E+04</totfact>
</mgrwt>
</event>
<event>
 7    0  0.4737014E-002  0.4485646E+03  0.7546771E-02  0.1028151E+00
         21   -1    0    0  502  501  0.00000000000E+00  0.00000000000E+00  0.38165712572E+03  0.38165712572E+03  0.00000000000E+00 0. -1.
         21   -1    0    0  501  502 -0.00000000000E+00 -0.00000000000E+00 -0.13180035495E+03  0.13180035495E+03  0.00000000000E+00 0. -1.
      99926    2    1    2    0    0  0.00000000000E+00 -0.14210854715E-13  0.24985677076E+03  0.51345748067E+03  0.44856457568E+03 0.  0.
      99925    2    3    3    0    0 -0.57592918128E+02  0.76237748905E+02  0.21348748557E+03  0.35190448137E+03  0.26292721224E+03 0.  0.
         25    1    3    3    0    0  0.57592918128E+02 -0.76237748905E+02  0.36369285193E+02  0.16155299930E+03  0.12509000000E+03 0.  0.
         25    1    4    4    0    0 -0.42520691999E+01  0.29200649389E+01  0.99186435658E+02  0.15972496358E+03  0.12509000000E+03 0.  0.
         25    1    4    4    0    0 -0.53340848928E+02  0.73317683966E+02  0.11430104991E+03  0.19217951779E+03  0.12509000000E+03 0.  0.
<mgrwt>
<rscale>  2 0.44856458E+03</rscale>
<asrwt>0</asrwt>
<pdfrwt beam="1">  1       21 0.56126047E-01 0.44856458E+03</pdfrwt>
<pdfrwt beam="2">  1       21 0.19382405E-01 0.44856458E+03</pdfrwt>
<totfact> 0.67728008E+04</totfact>
</mgrwt>
</event>
<event>
 7    0  0.4737014E-002  0.4547871E+03  0.7546771E-02  0.1026304E+00
         21   -1    0    0  502  501  0.00000000000E+00  0.00000000000E+00  0.23210729527E+03  0.23210729527E+03  0.00000000000E+00 0. -1.
         21   -1    0    0  501  502 -0.00000000000E+00 -0.00000000000E+00 -0.22277548635E+03  0.22277548635E+03  0.00000000000E+00 0. -1.
      99926    2    1    2    0    0  0.14210854715E-13 -0.71054273576E-14  0.93318089149E+01  0.45488278162E+03  0.45478705166E+03 0.  0.
      99925    2    3    3    0    0  0.85438813884E+02 -0.50281451836E+02 -0.48422754627E+02  0.28514441523E+03  0.26293451476E+03 0.  0.
         25    1    3    3    0    0 -0.85438813884E+02  0.50281451836E+02  0.57754563542E+02  0.16973836640E+03  0.12509000000E+03 0.  0.
         25    1    4    4    0    0  0.18994470269E+02  0.10166026766E+02 -0.18705356995E+02  0.12830251939E+03  0.12509000000E+03 0.  0.
         25    1    4    4    0    0  0.66444343616E+02 -0.60447478602E+02 -0.29717397632E+02  0.15684189584E+03  0.12509000000E+03 0.  0.
<mgrwt>
<rscale>  2 0.45478705E+03</rscale>
<asrwt>0</asrwt>
<pdfrwt beam="1">  1       21 0.34133426E-01 0.45478705E+03</pdfrwt>
<pdfrwt beam="2">  1       21 0.32761101E-01 0.45478705E+03</pdfrwt>
<totfact> 0.68670989E+04</totfact>
</mgrwt>
</event>
<event>
 7    0  0.4737014E-002  0.4542612E+03  0.7546771E-02  0.1026459E+00
         21   -1    0    0  502  501  0.00000000000E+00  0.00000000000E+00  0.42643386196E+03  0.42643386196E+03  0.00000000000E+00 0. -1.
         21   -1    0    0  501  502 -0.00000000000E+00 -0.00000000000E+00 -0.12097612170E+03  0.12097612170E+03  0.00000000000E+00 0. -1.
      99926    2    1    2    0    0  0.71054273576E-14  0.00000000000E+00  0.30545774026E+03  0.54740998366E+03  0.45426122345E+03 0.  0.
      99925    2    3    3    0    0 -0.35129980411E+02 -0.88068217483E+02  0.11957146478E+03  0.30411727525E+03  0.26305865403E+03 0.  0.
         25    1    4    4    0    0  0.11718599421E+00 -0.78723974728E+02  0.47665767909E+02  0.15529652752E+03  0.12509000000E+03 0.  0.
         25    1    3    3    0    0  0.35129980411E+02  0.88068217483E+02  0.18588627548E+03  0.24329270841E+03  0.12509000000E+03 0.  0.
         25    1    4    4    0    0 -0.35247166405E+02 -0.93442427555E+01  0.71905696873E+02  0.14882074773E+03  0.12509000000E+03 0.  0.
<mgrwt>
<rscale>  2 0.45426122E+03</rscale>
<asrwt>0</asrwt>
<pdfrwt beam="1">  1       21 0.62710862E-01 0.45426122E+03</pdfrwt>
<pdfrwt beam="2">  1       21 0.17790606E-01 0.45426122E+03</pdfrwt>
<totfact> 0.62401959E+04</totfact>
</mgrwt>
</event>
<event>
 7    0  0.4737014E-002  0.4538812E+03  0.7546771E-02  0.1026571E+00
         21   -1    0    0  502  501  0.00000000000E+00  0.00000000000E+00  0.54215339322E+03  0.54215339322E+03  0.00000000000E+00 0. -1.
         21   -1    0    0  501  502 -0.00000000000E+00 -0.00000000000E+00 -0.94995309919E+02  0.94995309919E+02  0.00000000000E+00 0. -1.
      99926    2    1    2    0    0  0.14210854715E-13  0.00000000000E+00  0.44715808330E+03  0.63714870314E+03  0.45388117217E+03 0.  0.
      99925    2    3    3    0    0 -0.96511251922E+02  0.30442012808E+02  0.21398841092E+03  0.35385249401E+03  0.26301978940E+03 0.  0.
         25    1    4    4    0    0 -0.15851073711E+02 -0.74834391896E+01  0.11716072057E+03  0.17228290961E+03  0.12509000000E+03 0.  0.
         25    1    4    4    0    0 -0.80660178211E+02  0.37925451998E+02  0.96827690355E+02  0.18156958440E+03  0.12509000000E+03 0.  0.
         25    1    3    3    0    0  0.96511251922E+02 -0.30442012808E+02  0.23316967237E+03  0.28329620913E+03  0.12509000000E+03 0.  0.
<mgrwt>
<rscale>  2 0.45388117E+03</rscale>
<asrwt>0</asrwt>
<pdfrwt beam="1">  1       21 0.79728439E-01 0.45388117E+03</pdfrwt>
<pdfrwt beam="2">  1       21 0.13969899E-01 0.45388117E+03</pdfrwt>
<totfact> 0.56949190E+04</totfact>
</mgrwt>
</event>
<event>
 7    0  0.4737014E-002  0.4586754E+03  0.7546771E-02  0.1025166E+00
         21   -1    0    0  502  501  0.00000000000E+00  0.00000000000E+00  0.84523587972E+03  0.84523587972E+03  0.00000000000E+00 0. -1.
         21   -1    0    0  501  502 -0.00000000000E+00 -0.00000000000E+00 -0.62226148489E+02  0.62226148489E+02  0.00000000000E+00 0. -1.
      99926    2    1    2    0    0  0.00000000000E+00  0.14210854715E-13  0.78300973123E+03  0.90746202820E+03  0.45867536825E+03 0.  0.
      99925    2    3    3    0    0 -0.22456600813E+02  0.71035307583E+02  0.31405689704E+03  0.41642783120E+03  0.26311611538E+03 0.  0.
         25    1    3    3    0    0  0.22456600813E+02 -0.71035307583E+02  0.46895283418E+03  0.49103419701E+03  0.12509000000E+03 0.  0.
         25    1    4    4    0    0 -0.45557554428E+02  0.36315121956E+02  0.12679380527E+03  0.18739918890E+03  0.12509000000E+03 0.  0.
         25    1    4    4    0    0  0.23100953615E+02  0.34720185628E+02  0.18726309178E+03  0.22902864229E+03  0.12509000000E+03 0.  0.
<mgrwt>
<rscale>  2 0.45867537E+03</rscale>
<asrwt>0</asrwt>
<pdfrwt beam="1">  1       21 0.12429939E+00 0.45867537E+03</pdfrwt>
<pdfrwt beam="2">  1       21 0.91509047E-02 0.45867537E+03</pdfrwt>
<totfact> 0.41699808E+04</totfact>
</mgrwt>
</event>
<event>
 7    0  0.4737014E-002  0.4560374E+03  0.7546771E-02  0.1025937E+00
         21   -1    0    0  502  501  0.00000000000E+00  0.00000000000E+00  0.20322168161E+03  0.20322168161E+03  0.00000000000E+00 0. -1.
         21   -1    0    0  501  502 -0.00000000000E+00 -0.00000000000E+00 -0.25584144894E+03  0.25584144894E+03  0.00000000000E+00 0. -1.
      99926    2    1    2    0    0  0.00000000000E+00  0.00000000000E+00 -0.52619767334E+02  0.45906313055E+03  0.45603740846E+03 0.  0.
      99925    2    3    3    0    0 -0.94123854688E+02 -0.64828570583E+02 -0.28452167866E+02  0.28790932677E+03  0.26271697889E+03 0.  0.
         25    1    3    3    0    0  0.94123854688E+02  0.64828570583E+02 -0.24167599467E+02  0.17115380378E+03  0.12509000000E+03 0.  0.
         25    1    4    4    0    0 -0.37211987453E+02 -0.24983294092E+02 -0.52391017616E+02  0.14283285274E+03  0.12509000000E+03 0.  0.
         25    1    4    4    0    0 -0.56911867235E+02 -0.39845276491E+02  0.23938849749E+02  0.14507647403E+03  0.12509000000E+03 0.  0.
<mgrwt>
<rscale>  2 0.45603741E+03</rscale>
<asrwt>0</asrwt>
<pdfrwt beam="1">  1       21 0.29885541E-01 0.45603741E+03</pdfrwt>
<pdfrwt beam="2">  1       21 0.37623743E-01 0.45603741E+03</pdfrwt>
<totfact> 0.67687088E+04</totfact>
</mgrwt>
</event>
<event>
 7    0  0.4737014E-002  0.4631858E+03  0.7546771E-02  0.1023861E+00
         21   -1    0    0  502  501  0.00000000000E+00  0.00000000000E+00  0.15877068893E+03  0.15877068893E+03  0.00000000000E+00 0. -1.
         21   -1    0    0  501  502 -0.00000000000E+00 -0.00000000000E+00 -0.33781599716E+03  0.33781599716E+03  0.00000000000E+00 0. -1.
      99926    2    1    2    0    0  0.00000000000E+00  0.35527136788E-14 -0.17904530823E+03  0.49658668609E+03  0.46318583139E+03 0.  0.
      99925    2    3    3    0    0  0.55915637252E+02  0.75176660987E+01  0.24551811127E+01  0.26904985495E+03  0.26305650104E+03 0.  0.
         25    1    4    4    0    0  0.32433153239E+02 -0.29967222137E+02 -0.21015239633E+02  0.13430968777E+03  0.12509000000E+03 0.  0.
         25    1    4    4    0    0  0.23482484013E+02  0.37484888235E+02  0.23470420746E+02  0.13474016718E+03  0.12509000000E+03 0.  0.
         25    1    3    3    0    0 -0.55915637252E+02 -0.75176660987E+01 -0.18150048934E+03  0.22753683114E+03  0.12509000000E+03 0.  0.
<mgrwt>
<rscale>  2 0.46318583E+03</rscale>
<asrwt>0</asrwt>
<pdfrwt beam="1">  1       21 0.23348631E-01 0.46318583E+03</pdfrwt>
<pdfrwt beam="2">  1       21 0.49678822E-01 0.46318583E+03</pdfrwt>
<totfact> 0.61421597E+04</totfact>
</mgrwt>
</event>
<event>
 7    0  0.4737014E-002  0.4549402E+03  0.7546771E-02  0.1026259E+00
         21   -1    0    0  502  501  0.00000000000E+00  0.00000000000E+00  0.64349826322E+02  0.64349826322E+02  0.00000000000E+00 0. -1.
         21   -1    0    0  501  502 -0.00000000000E+00 -0.00000000000E+00 -0.80408353969E+03  0.80408353969E+03  0.00000000000E+00 0. -1.
      99926    2    1    2    0    0 -0.14210854715E-13  0.00000000000E+00 -0.73973371337E+03  0.86843336601E+03  0.45494015487E+03 0.  0.
      99925    2    3    3    0    0 -0.71093155430E+02 -0.42464305814E+02 -0.61218042724E+03  0.67152017976E+03  0.26328126085E+03 0.  0.
         25    1    3    3    0    0  0.71093155430E+02  0.42464305814E+02 -0.12755328613E+03  0.19691318625E+03  0.12509000000E+03 0.  0.
         25    1    4    4    0    0 -0.48260258308E+02 -0.29701021606E+02 -0.22297977546E+03  0.26187533595E+03  0.12509000000E+03 0.  0.
         25    1    4    4    0    0 -0.22832897122E+02 -0.12763284208E+02 -0.38920065178E+03  0.40964484381E+03  0.12509000000E+03 0.  0.
<mgrwt>
<rscale>  2 0.45494015E+03</rscale>
<asrwt>0</asrwt>
<pdfrwt beam="1">  1       21 0.94632108E-02 0.45494015E+03</pdfrwt>
<pdfrwt beam="2">  1       21 0.11824757E+00 0.45494015E+03</pdfrwt>
<totfact> 0.44646521E+04</totfact>
</mgrwt>
</event>
<event>
 7    0  0.4737014E-002  0.4553123E+03  0.7546771E-02  0.1026150E+00
         21   -1    0    0  502  501  0.00000000000E+00  0.00000000000E+00  0.11464462570E+03  0.11464462570E+03  0.00000000000E+00 0.  1.
         21   -1    0    0  501  502 -0.00000000000E+00 -0.00000000000E+00 -0.45206937405E+03  0.45206937405E+03  0.00000000000E+00 0.  1.
      99926    2    1    2    0    0  0.00000000000E+00  0.00000000000E+00 -0.33742474836E+03  0.56671399975E+03  0.45531230679E+03 0.  0.
      99925    2    3    3    0    0  0.19098240646E+02 -0.91479751799E+02 -0.29234312909E+03  0.40419277566E+03  0.26300951881E+03 0.  0.
         25    1    3    3    0    0 -0.19098240646E+02  0.91479751799E+02 -0.45081619266E+02  0.16252122409E+03  0.12509000000E+03 0.  0.
         25    1    4    4    0    0  0.15502476065E+02 -0.82594231515E+02 -0.18850717662E+03  0.24133917539E+03  0.12509000000E+03 0.  0.
         25    1    4    4    0    0  0.35957645811E+01 -0.88855202836E+01 -0.10383595247E+03  0.16285360027E+03  0.12509000000E+03 0.  0.
<mgrwt>
<rscale>  2 0.45531231E+03</rscale>
<asrwt>0</asrwt>
<pdfrwt beam="1">  1       21 0.16859504E-01 0.45531231E+03</pdfrwt>
<pdfrwt beam="2">  1       21 0.66480791E-01 0.45531231E+03</pdfrwt>
<totfact> 0.60625486E+04</totfact>
</mgrwt>
</event>
<event>
 7    0  0.4737014E-002  0.4529629E+03  0.7546771E-02  0.1026842E+00
         21   -1    0    0  502  501  0.00000000000E+00  0.00000000000E+00  0.23495396340E+03  0.23495396340E+03  0.00000000000E+00 0. -1.
         21   -1    0    0  501  502 -0.00000000000E+00 -0.00000000000E+00 -0.21831444669E+03  0.21831444669E+03  0.00000000000E+00 0. -1.
      99926    2    1    2    0    0  0.22204460493E-14  0.71054273576E-14  0.16639516704E+02  0.45326841009E+03  0.45296288818E+03 0.  0.
      99925    2    3    3    0    0 -0.18010859093E+01  0.55111343033E+02 -0.86048012100E+02  0.28229256176E+03  0.26314316635E+03 0.  0.
         25    1    4    4    0    0  0.37915502092E+02  0.39440619136E+02 -0.38981446465E+02  0.14198665080E+03  0.12509000000E+03 0.  0.
         25    1    3    3    0    0  0.18010859093E+01 -0.55111343033E+02  0.10268752880E+03  0.17097584833E+03  0.12509000000E+03 0.  0.
         25    1    4    4    0    0 -0.39716588001E+02  0.15670723897E+02 -0.47066565635E+02  0.14030591096E+03  0.12509000000E+03 0.  0.
<mgrwt>
<rscale>  2 0.45296289E+03</rscale>
<asrwt>0</asrwt>
<pdfrwt beam="1">  1       21 0.34552053E-01 0.45296289E+03</pdfrwt>
<pdfrwt beam="2">  1       21 0.32105066E-01 0.45296289E+03</pdfrwt>
<totfact> 0.69800501E+04</totfact>
</mgrwt>
</event>
<event>
 7    0  0.4737014E-002  0.4566777E+03  0.7546771E-02  0.1025749E+00
         21   -1    0    0  502  501  0.00000000000E+00  0.00000000000E+00  0.12817031356E+03  0.12817031356E+03  0.00000000000E+00 0.  1.
         21   -1    0    0  501  502 -0.00000000000E+00 -0.00000000000E+00 -0.40679179970E+03  0.40679179970E+03  0.00000000000E+00 0.  1.
      99926    2    1    2    0    0  0.00000000000E+00  0.00000000000E+00 -0.27862148614E+03  0.53496211326E+03  0.45667770920E+03 0.  0.
      99925    2    3    3    0    0 -0.41126052615E+02 -0.10681269011E+03 -0.18359612787E+03  0.34059743080E+03  0.26305658844E+03 0.  0.
         25    1    4    4    0    0 -0.23575303961E+02 -0.36125846278E+02 -0.43843918043E+02  0.13939393450E+03  0.12509000000E+03 0.  0.
         25    1    4    4    0    0 -0.17550748654E+02 -0.70686843837E+02 -0.13975220983E+03  0.20120349630E+03  0.12509000000E+03 0.  0.
         25    1    3    3    0    0  0.41126052615E+02  0.10681269011E+03 -0.95025358271E+02  0.19436468246E+03  0.12509000000E+03 0.  0.
<mgrwt>
<rscale>  2 0.45667771E+03</rscale>
<asrwt>0</asrwt>
<pdfrwt beam="1">  1       21 0.18848576E-01 0.45667771E+03</pdfrwt>
<pdfrwt beam="2">  1       21 0.59822323E-01 0.45667771E+03</pdfrwt>
<totfact> 0.62042759E+04</totfact>
</mgrwt>
</event>
<event>
 7    0  0.4737014E-002  0.4479105E+03  0.7546771E-02  0.1028347E+00
         21   -1    0    0  502  501  0.00000000000E+00  0.00000000000E+00  0.19145264396E+03  0.19145264396E+03  0.00000000000E+00 0.  1.
         21   -1    0    0  501  502 -0.00000000000E+00 -0.00000000000E+00 -0.26197571652E+03  0.26197571652E+03  0.00000000000E+00 0.  1.
      99926    2    1    2    0    0  0.00000000000E+00  0.00000000000E+00 -0.70523072569E+02  0.45342836048E+03  0.44791045346E+03 0.  0.
      99925    2    3    3    0    0 -0.61778331693E+02  0.77107731825E+02 -0.47676713371E+01  0.28099447325E+03  0.26300760204E+03 0.  0.
         25    1    4    4    0    0 -0.25318774710E+02  0.72420196515E+02  0.20567276774E+02  0.14817640227E+03  0.12509000000E+03 0.  0.
         25    1    4    4    0    0 -0.36459556983E+02  0.46875353101E+01 -0.25334948111E+02  0.13281807098E+03  0.12509000000E+03 0.  0.
         25    1    3    3    0    0  0.61778331693E+02 -0.77107731825E+02 -0.65755401232E+02  0.17243388723E+03  0.12509000000E+03 0.  0.
<mgrwt>
<rscale>  2 0.44791045E+03</rscale>
<asrwt>0</asrwt>
<pdfrwt beam="1">  1       21 0.28154801E-01 0.44791045E+03</pdfrwt>
<pdfrwt beam="2">  1       21 0.38525841E-01 0.44791045E+03</pdfrwt>
<totfact> 0.72685375E+04</totfact>
</mgrwt>
</event>
<event>
 7    0  0.4737014E-002  0.4540441E+03  0.7546771E-02  0.1026523E+00
         21   -1    0    0  502  501  0.00000000000E+00  0.00000000000E+00  0.34501530457E+02  0.34501530457E+02  0.00000000000E+00 0. -1.
         21   -1    0    0  501  502 -0.00000000000E+00 -0.00000000000E+00 -0.14938179753E+04  0.14938179753E+04  0.00000000000E+00 0. -1.
      99926    2    1    2    0    0  0.00000000000E+00  0.00000000000E+00 -0.14593164448E+04  0.15283195057E+04  0.45404407879E+03 0.  0.
      99925    2    3    3    0    0  0.86925125941E+01  0.68802463371E+02 -0.12159576777E+04  0.12460424496E+04  0.26317175705E+03 0.  0.
         25    1    4    4    0    0  0.36402143353E+02  0.60804654903E+02 -0.63608859017E+03  0.65213382426E+03  0.12509000000E+03 0.  0.
         25    1    4    4    0    0 -0.27709630759E+02  0.79978084680E+01 -0.57986908749E+03  0.59390862538E+03  0.12509000000E+03 0.  0.
         25    1    3    3    0    0 -0.86925125941E+01 -0.68802463371E+02 -0.24335876714E+03  0.28227705608E+03  0.12509000000E+03 0.  0.
<mgrwt>
<rscale>  2 0.45404408E+03</rscale>
<asrwt>0</asrwt>
<pdfrwt beam="1">  1       21 0.50737550E-02 0.45404408E+03</pdfrwt>
<pdfrwt beam="2">  1       21 0.21967909E+00 0.45404408E+03</pdfrwt>
<totfact> 0.23265773E+04</totfact>
</mgrwt>
</event>
<event>
 7    0  0.4737014E-002  0.4550905E+03  0.7546771E-02  0.1026215E+00
         21   -1    0    0  502  501  0.00000000000E+00  0.00000000000E+00  0.12719850586E+04  0.12719850586E+04  0.00000000000E+00 0. -1.
         21   -1    0    0  501  502 -0.00000000000E+00 -0.00000000000E+00 -0.40705540105E+02  0.40705540105E+02  0.00000000000E+00 0. -1.
      99926    2    1    2    0    0  0.14210854715E-13  0.00000000000E+00  0.12312795185E+04  0.13126905987E+04  0.45509049129E+03 0.  0.
      99925    2    3    3    0    0 -0.64595640089E+02  0.11864779841E+02  0.50297068634E+03  0.57080473631E+03  0.26177311925E+03 0.  0.
         25    1    4    4    0    0 -0.15438657561E+01  0.13817112019E+02  0.28687418367E+03  0.31326921563E+03  0.12509000000E+03 0.  0.
         25    1    3    3    0    0  0.64595640089E+02 -0.11864779841E+02  0.72830883216E+03  0.74188586240E+03  0.12509000000E+03 0.  0.
         25    1    4    4    0    0 -0.63051774333E+02 -0.19523321787E+01  0.21609650267E+03  0.25753552068E+03  0.12509000000E+03 0.  0.
<mgrwt>
<rscale>  2 0.45509049E+03</rscale>
<asrwt>0</asrwt>
<pdfrwt beam="1">  1       21 0.18705660E+00 0.45509049E+03</pdfrwt>
<pdfrwt beam="2">  1       21 0.59861097E-02 0.45509049E+03</pdfrwt>
<totfact> 0.28728126E+04</totfact>
</mgrwt>
</event>
<event>
 7    0  0.4737014E-002  0.4538858E+03  0.7546771E-02  0.1026570E+00
         21   -1    0    0  502  501  0.00000000000E+00  0.00000000000E+00  0.14390684573E+04  0.14390684573E+04  0.00000000000E+00 0.  1.
         21   -1    0    0  501  502 -0.00000000000E+00 -0.00000000000E+00 -0.35789184382E+02  0.35789184382E+02  0.00000000000E+00 0.  1.
      99926    2    1    2    0    0  0.14210854715E-13  0.00000000000E+00  0.14032792729E+04  0.14748576417E+04  0.45388582863E+03 0.  0.
      99925    2    3    3    0    0  0.87343399454E+02 -0.50018514690E+02  0.10437494691E+04  0.10811065665E+04  0.26314963945E+03 0.  0.
         25    1    3    3    0    0 -0.87343399454E+02  0.50018514690E+02  0.35952980385E+03  0.39375107517E+03  0.12509000000E+03 0.  0.
         25    1    4    4    0    0  0.78724402837E+02 -0.23068856391E+02  0.65024644977E+03  0.66723133716E+03  0.12509000000E+03 0.  0.
         25    1    4    4    0    0  0.86189966167E+01 -0.26949658299E+02  0.39350301931E+03  0.41387522938E+03  0.12509000000E+03 0.  0.
<mgrwt>
<rscale>  2 0.45388583E+03</rscale>
<asrwt>0</asrwt>
<pdfrwt beam="1">  1       21 0.21162768E+00 0.45388583E+03</pdfrwt>
<pdfrwt beam="2">  1       21 0.52631163E-02 0.45388583E+03</pdfrwt>
<totfact> 0.24614449E+04</totfact>
</mgrwt>
</event>
<event>
 7    0  0.4737014E-002  0.4618799E+03  0.7546771E-02  0.1024237E+00
         21   -1    0    0  502  501  0.00000000000E+00  0.00000000000E+00  0.56624421323E+02  0.56624421323E+02  0.00000000000E+00 0. -1.
         21   -1    0    0  501  502 -0.00000000000E+00 -0.00000000000E+00 -0.94187746979E+03  0.94187746979E+03  0.00000000000E+00 0. -1.
      99926    2    1    2    0    0  0.00000000000E+00  0.00000000000E+00 -0.88525304847E+03  0.99850189112E+03  0.46187992675E+03 0.  0.
      99925    2    3    3    0    0  0.55126847962E+02  0.10000711645E+03 -0.63009697743E+03  0.69224624399E+03  0.26294917502E+03 0.  0.
         25    1    4    4    0    0  0.17347806701E+02  0.40660743345E+02 -0.21086812107E+03  0.24913272573E+03  0.12509000000E+03 0.  0.
         25    1    4    4    0    0  0.37779041261E+02  0.59346373106E+02 -0.41922885636E+03  0.44311351826E+03  0.12509000000E+03 0.  0.
         25    1    3    3    0    0 -0.55126847962E+02 -0.10000711645E+03 -0.25515607104E+03  0.30625564713E+03  0.12509000000E+03 0.  0.
<mgrwt>
<rscale>  2 0.46187993E+03</rscale>
<asrwt>0</asrwt>
<pdfrwt beam="1">  1       21 0.83271204E-02 0.46187993E+03</pdfrwt>
<pdfrwt beam="2">  1       21 0.13851140E+00 0.46187993E+03</pdfrwt>
<totfact> 0.37186447E+04</totfact>
</mgrwt>
</event>
<event>
 7    0  0.4737014E-002  0.4609699E+03  0.7546771E-02  0.1024500E+00
         21   -1    0    0  502  501  0.00000000000E+00  0.00000000000E+00  0.66895844642E+02  0.66895844642E+02  0.00000000000E+00 0.  1.
         21   -1    0    0  501  502 -0.00000000000E+00 -0.00000000000E+00 -0.79411989313E+03  0.79411989313E+03  0.00000000000E+00 0.  1.
      99926    2    1    2    0    0  0.00000000000E+00  0.00000000000E+00 -0.72722404849E+03  0.86101573777E+03  0.46096993828E+03 0.  0.
      99925    2    3    3    0    0  0.58779875961E+02  0.87220132541E+02 -0.55736124013E+03  0.62529703444E+03  0.26321550855E+03 0.  0.
         25    1    4    4    0    0  0.58244295278E+02  0.44038044894E+02 -0.35606175146E+03  0.38439462312E+03  0.12509000000E+03 0.  0.
         25    1    4    4    0    0  0.53558068283E+00  0.43182087647E+02 -0.20129948867E+03  0.24090241132E+03  0.12509000000E+03 0.  0.
         25    1    3    3    0    0 -0.58779875961E+02 -0.87220132541E+02 -0.16986280836E+03  0.23571870333E+03  0.12509000000E+03 0.  0.
<mgrwt>
<rscale>  2 0.46096994E+03</rscale>
<asrwt>0</asrwt>
<pdfrwt beam="1">  1       21 0.98376243E-02 0.46096994E+03</pdfrwt>
<pdfrwt beam="2">  1       21 0.11678234E+00 0.46096994E+03</pdfrwt>
<totfact> 0.42905854E+04</totfact>
</mgrwt>
</event>
<event>
 7    0  0.4737014E-002  0.4458963E+03  0.7546771E-02  0.1028953E+00
         21   -1    0    0  502  501  0.00000000000E+00  0.00000000000E+00  0.17157723076E+03  0.17157723076E+03  0.00000000000E+00 0. -1.
         21   -1    0    0  501  502 -0.00000000000E+00 -0.00000000000E+00 -0.28969969755E+03  0.28969969755E+03  0.00000000000E+00 0. -1.
      99926    2    1    2    0    0  0.00000000000E+00  0.00000000000E+00 -0.11812246679E+03  0.46127692831E+03  0.44589627429E+03 0.  0.
      99925    2    3    3    0    0 -0.65809080275E+02  0.38207121061E+02 -0.14891115495E+03  0.31165717505E+03  0.26299247812E+03 0.  0.
         25    1    4    4    0    0 -0.43653489055E+02  0.58533656652E+02 -0.85950914652E+02  0.16842471285E+03  0.12509000000E+03 0.  0.
         25    1    3    3    0    0  0.65809080275E+02 -0.38207121061E+02  0.30788688154E+02  0.14961975326E+03  0.12509000000E+03 0.  0.
         25    1    4    4    0    0 -0.22155591220E+02 -0.20326535591E+02 -0.62960240296E+02  0.14323246221E+03  0.12509000000E+03 0.  0.
<mgrwt>
<rscale>  2 0.44589627E+03</rscale>
<asrwt>0</asrwt>
<pdfrwt beam="1">  1       21 0.25231946E-01 0.44589627E+03</pdfrwt>
<pdfrwt beam="2">  1       21 0.42602896E-01 0.44589627E+03</pdfrwt>
<totfact> 0.73237805E+04</totfact>
</mgrwt>
</event>
<event>
 7    0  0.4737014E-002  0.4557636E+03  0.7546771E-02  0.1026017E+00
         21   -1    0    0  502  501  0.00000000000E+00  0.00000000000E+00  0.61439325363E+03  0.61439325363E+03  0.00000000000E+00 0.  1.
         21   -1    0    0  501  502 -0.00000000000E+00 -0.00000000000E+00 -0.84522617743E+02  0.84522617743E+02  0.00000000000E+00 0.  1.
      99926    2    1    2    0    0  0.00000000000E+00  0.00000000000E+00  0.52987063588E+03  0.69891587137E+03  0.45576364980E+03 0.  0.
      99925    2    3    3    0    0 -0.45731421261E+02  0.23149890329E+02  0.17700619510E+03  0.32104274189E+03  0.26288774924E+03 0.  0.
         25    1    4    4    0    0 -0.37910429722E+02 -0.93541512187E+01  0.12626344899E+03  0.18197435940E+03  0.12509000000E+03 0.  0.
         25    1    4    4    0    0 -0.78209915397E+01  0.32504041548E+02  0.50742746101E+02  0.13906838249E+03  0.12509000000E+03 0.  0.
         25    1    3    3    0    0  0.45731421261E+02 -0.23149890329E+02  0.35286444079E+03  0.37787312948E+03  0.12509000000E+03 0.  0.
<mgrwt>
<rscale>  2 0.45576365E+03</rscale>
<asrwt>0</asrwt>
<pdfrwt beam="1">  1       21 0.90351947E-01 0.45576365E+03</pdfrwt>
<pdfrwt beam="2">  1       21 0.12429797E-01 0.45576365E+03</pdfrwt>
<totfact> 0.52644755E+04</totfact>
</mgrwt>
</event>
<event>
 7    0  0.4737014E-002  0.4562289E+03  0.7546771E-02  0.1025881E+00
         21   -1    0    0  502  501  0.00000000000E+00  0.00000000000E+00  0.94911037414E+03  0.94911037414E+03  0.00000000000E+00 0. -1.
         21   -1    0    0  501  502 -0.00000000000E+00 -0.00000000000E+00 -0.54826302042E+02  0.54826302042E+02  0.00000000000E+00 0. -1.
      99926    2    1    2    0    0  0.00000000000E+00  0.00000000000E+00  0.89428407210E+03  0.10039366762E+04  0.45622894272E+03 0.  0.
      99925    2    3    3    0    0 -0.11171976403E+03 -0.24756606822E+02  0.54886754147E+03  0.61915845046E+03  0.26269262160E+03 0.  0.
         25    1    4    4    0    0 -0.43432720713E+02 -0.50016993610E+02  0.25845637420E+03  0.29467830993E+03  0.12509000000E+03 0.  0.
         25    1    4    4    0    0 -0.68287043318E+02  0.25260386789E+02  0.29041116728E+03  0.32448014054E+03  0.12509000000E+03 0.  0.
         25    1    3    3    0    0  0.11171976403E+03  0.24756606822E+02  0.34541653062E+03  0.38477822572E+03  0.12509000000E+03 0.  0.
<mgrwt>
<rscale>  2 0.45622894E+03</rscale>
<asrwt>0</asrwt>
<pdfrwt beam="1">  1       21 0.13957505E+00 0.45622894E+03</pdfrwt>
<pdfrwt beam="2">  1       21 0.80626921E-02 0.45622894E+03</pdfrwt>
<totfact> 0.38641836E+04</totfact>
</mgrwt>
</event>
<event>
 7    0  0.4737014E-002  0.4471105E+03  0.7546771E-02  0.1028587E+00
         21   -1    0    0  502  501  0.00000000000E+00  0.00000000000E+00  0.86781313711E+02  0.86781313711E+02  0.00000000000E+00 0.  1.
         21   -1    0    0  501  502 -0.00000000000E+00 -0.00000000000E+00 -0.57589529073E+03  0.57589529073E+03  0.00000000000E+00 0.  1.
      99926    2    1    2    0    0  0.00000000000E+00 -0.71054273576E-14 -0.48911397702E+03  0.66267660444E+03  0.44711050039E+03 0.  0.
      99925    2    3    3    0    0 -0.92045861211E+02 -0.48932728031E+02 -0.29499196753E+03  0.40930392417E+03  0.26389882341E+03 0.  0.
         25    1    4    4    0    0 -0.67921315165E+02  0.11109331704E+02 -0.15477558439E+03  0.21056996920E+03  0.12509000000E+03 0.  0.
         25    1    3    3    0    0  0.92045861211E+02  0.48932728031E+02 -0.19412200950E+03  0.25337268027E+03  0.12509000000E+03 0.  0.
         25    1    4    4    0    0 -0.24124546046E+02 -0.60042059735E+02 -0.14021638314E+03  0.19873395497E+03  0.12509000000E+03 0.  0.
<mgrwt>
<rscale>  2 0.44711050E+03</rscale>
<asrwt>0</asrwt>
<pdfrwt beam="1">  1       21 0.12761959E-01 0.44711050E+03</pdfrwt>
<pdfrwt beam="2">  1       21 0.84690479E-01 0.44711050E+03</pdfrwt>
<totfact> 0.58532344E+04</totfact>
</mgrwt>
</event>
<event>
 7    0  0.4737014E-002  0.4526260E+03  0.7546771E-02  0.1026942E+00
         21   -1    0    0  502  501  0.00000000000E+00  0.00000000000E+00  0.18290670665E+03  0.18290670665E+03  0.00000000000E+00 0. -1.
         21   -1    0    0  501  502 -0.00000000000E+00 -0.00000000000E+00 -0.28002015908E+03  0.28002015908E+03  0.00000000000E+00 0. -1.
      99926    2    1    2    0    0  0.00000000000E+00  0.17763568394E-14 -0.97113452432E+02  0.46292686573E+03  0.45262596078E+03 0.  0.
      99925    2    3    3    0    0 -0.95828578297E+02 -0.15768531670E+02 -0.62998646397E+01  0.28037172656E+03  0.26293887835E+03 0.  0.
         25    1    4    4    0    0 -0.38846395627E+02  0.17631931271E+02 -0.33452602551E+02  0.13633235922E+03  0.12509000000E+03 0.  0.
         25    1    3    3    0    0  0.95828578297E+02  0.15768531670E+02 -0.90813587792E+02  0.18255513917E+03  0.12509000000E+03 0.  0.
         25    1    4    4    0    0 -0.56982182670E+02 -0.33400462941E+02  0.27152737911E+02  0.14403936734E+03  0.12509000000E+03 0.  0.
<mgrwt>
<rscale>  2 0.45262596E+03</rscale>
<asrwt>0</asrwt>
<pdfrwt beam="1">  1       21 0.26898045E-01 0.45262596E+03</pdfrwt>
<pdfrwt beam="2">  1       21 0.41179435E-01 0.45262596E+03</pdfrwt>
<totfact> 0.69261108E+04</totfact>
</mgrwt>
</event>
<event>
 7    0  0.4737014E-002  0.4550573E+03  0.7546771E-02  0.1026225E+00
         21   -1    0    0  502  501  0.00000000000E+00  0.00000000000E+00  0.48556326368E+02  0.48556326368E+02  0.00000000000E+00 0. -1.
         21   -1    0    0  501  502 -0.00000000000E+00 -0.00000000000E+00 -0.10661697889E+04  0.10661697889E+04  0.00000000000E+00 0. -1.
      99926    2    1    2    0    0  0.22204460493E-14  0.00000000000E+00 -0.10176134625E+04  0.11147261152E+04  0.45505730730E+03 0.  0.
      99925    2    3    3    0    0 -0.90620944859E+00  0.50332975680E+02 -0.88880231232E+03  0.92824809999E+03  0.26294629699E+03 0.  0.
         25    1    3    3    0    0  0.90620944859E+00 -0.50332975680E+02 -0.12881115017E+03  0.18647801523E+03  0.12509000000E+03 0.  0.
         25    1    4    4    0    0 -0.28793259184E+02  0.28433906513E+01 -0.49593082329E+03  0.51228119840E+03  0.12509000000E+03 0.  0.
         25    1    4    4    0    0  0.27887049736E+02  0.47489585029E+02 -0.39287148903E+03  0.41596690159E+03  0.12509000000E+03 0.  0.
<mgrwt>
<rscale>  2 0.45505731E+03</rscale>
<asrwt>0</asrwt>
<pdfrwt beam="1">  1       21 0.71406363E-02 0.45505731E+03</pdfrwt>
<pdfrwt beam="2">  1       21 0.15678967E+00 0.45505731E+03</pdfrwt>
<totfact> 0.34966474E+04</totfact>
</mgrwt>
</event>
<event>
 7    0  0.4737014E-002  0.4588077E+03  0.7546771E-02  0.1025128E+00
         21   -1    0    0  502  501  0.00000000000E+00  0.00000000000E+00  0.12268574443E+04  0.12268574443E+04  0.00000000000E+00 0.  1.
         21   -1    0    0  501  502 -0.00000000000E+00 -0.00000000000E+00 -0.42895065513E+02  0.42895065513E+02  0.00000000000E+00 0.  1.
      99926    2    1    2    0    0  0.14210854715E-13  0.00000000000E+00  0.11839623788E+04  0.12697525098E+04  0.45880771767E+03 0.  0.
      99925    2    3    3    0    0  0.71961608151E+02 -0.51453647656E+02  0.53227668692E+03  0.60029922542E+03  0.26308693942E+03 0.  0.
         25    1    3    3    0    0 -0.71961608151E+02  0.51453647656E+02  0.65168569184E+03  0.66945328437E+03  0.12509000000E+03 0.  0.
         25    1    4    4    0    0 -0.53482336840E+01 -0.15711236203E+02  0.24724905830E+03  0.27758791666E+03  0.12509000000E+03 0.  0.
         25    1    4    4    0    0  0.77309841835E+02 -0.35742411453E+02  0.28502762862E+03  0.32271130875E+03  0.12509000000E+03 0.  0.
<mgrwt>
<rscale>  2 0.45880772E+03</rscale>
<asrwt>0</asrwt>
<pdfrwt beam="1">  1       21 0.18042019E+00 0.45880772E+03</pdfrwt>
<pdfrwt beam="2">  1       21 0.63080986E-02 0.45880772E+03</pdfrwt>
<totfact> 0.29132978E+04</totfact>
</mgrwt>
</event>
<event>
 7    0  0.4737014E-002  0.4471139E+03  0.7546771E-02  0.1028586E+00
         21   -1    0    0  502  501  0.00000000000E+00  0.00000000000E+00  0.46347525604E+03  0.46347525604E+03  0.00000000000E+00 0. -1.
         21   -1    0    0  501  502 -0.00000000000E+00 -0.00000000000E+00 -0.10783252786E+03  0.10783252786E+03  0.00000000000E+00 0. -1.
      99926    2    1    2    0    0  0.00000000000E+00  0.00000000000E+00  0.35564272818E+03  0.57130778390E+03  0.44711389358E+03 0.  0.
      99925    2    3    3    0    0  0.37293512735E+02  0.91004886645E+02  0.27469887338E+03  0.39278016358E+03  0.26295263905E+03 0.  0.
         25    1    4    4    0    0  0.54249076774E+02  0.39931909063E+02  0.11409179568E+03  0.18221406541E+03  0.12509000000E+03 0.  0.
         25    1    3    3    0    0 -0.37293512735E+02 -0.91004886645E+02  0.80943854795E+02  0.17852762031E+03  0.12509000000E+03 0.  0.
         25    1    4    4    0    0 -0.16955564039E+02  0.51072977582E+02  0.16060707770E+03  0.21056609817E+03  0.12509000000E+03 0.  0.
<mgrwt>
<rscale>  2 0.44711389E+03</rscale>
<asrwt>0</asrwt>
<pdfrwt beam="1">  1       21 0.68158125E-01 0.44711389E+03</pdfrwt>
<pdfrwt beam="2">  1       21 0.15857725E-01 0.44711389E+03</pdfrwt>
<totfact> 0.64403153E+04</totfact>
</mgrwt>
</event>
<event>
 7    0  0.4737014E-002  0.4873742E+03  0.7546771E-02  0.1017128E+00
         21   -1    0    0  502  501  0.00000000000E+00  0.00000000000E+00  0.11925684866E+04  0.11925684866E+04  0.00000000000E+00 0.  1.
         21   -1    0    0  501  502 -0.00000000000E+00 -0.00000000000E+00 -0.49794541711E+02  0.49794541711E+02  0.00000000000E+00 0.  1.
      99926    2    1    2    0    0  0.00000000000E+00 -0.14210854715E-13  0.11427739449E+04  0.12423630283E+04  0.48737419402E+03 0.  0.
      99925    2    3    3    0    0  0.47308254184E+02 -0.10335867032E+03  0.48524913192E+03  0.56346136134E+03  0.26287050053E+03 0.  0.
         25    1    4    4    0    0 -0.99066282738E+01 -0.68375630639E+02  0.27281167731E+03  0.30797254346E+03  0.12509000000E+03 0.  0.
         25    1    3    3    0    0 -0.47308254184E+02  0.10335867032E+03  0.65752481296E+03  0.67890166696E+03  0.12509000000E+03 0.  0.
         25    1    4    4    0    0  0.57214882458E+02 -0.34983039683E+02  0.21243745461E+03  0.25548881788E+03  0.12509000000E+03 0.  0.
<mgrwt>
<rscale>  2 0.48737419E+03</rscale>
<asrwt>0</asrwt>
<pdfrwt beam="1">  1       21 0.17537770E+00 0.48737419E+03</pdfrwt>
<pdfrwt beam="2">  1       21 0.73227275E-02 0.48737419E+03</pdfrwt>
<totfact> 0.24150110E+04</totfact>
</mgrwt>
</event>
<event>
 7    0  0.4737014E-002  0.4658411E+03  0.7546771E-02  0.1023101E+00
         21   -1    0    0  502  501  0.00000000000E+00  0.00000000000E+00  0.92571552804E+02  0.92571552804E+02  0.00000000000E+00 0.  1.
         21   -1    0    0  501  502 -0.00000000000E+00 -0.00000000000E+00 -0.58605466665E+03  0.58605466665E+03  0.00000000000E+00 0.  1.
      99926    2    1    2    0    0  0.00000000000E+00  0.00000000000E+00 -0.49348311385E+03  0.67862621945E+03  0.46584113395E+03 0.  0.
      99925    2    3    3    0    0 -0.10296153410E+03 -0.23703482152E+02 -0.21539531365E+03  0.35591386257E+03  0.26290036869E+03 0.  0.
         25    1    3    3    0    0  0.10296153410E+03  0.23703482152E+02 -0.27808780019E+03  0.32271235689E+03  0.12509000000E+03 0.  0.
         25    1    4    4    0    0 -0.91311377213E+02 -0.29094632863E+02 -0.12116468997E+03  0.19877790487E+03  0.12509000000E+03 0.  0.
         25    1    4    4    0    0 -0.11650156886E+02  0.53911507116E+01 -0.94230623683E+02  0.15713595770E+03  0.12509000000E+03 0.  0.
<mgrwt>
<rscale>  2 0.46584113E+03</rscale>
<asrwt>0</asrwt>
<pdfrwt beam="1">  1       21 0.13613464E-01 0.46584113E+03</pdfrwt>
<pdfrwt beam="2">  1       21 0.86184509E-01 0.46584113E+03</pdfrwt>
<totfact> 0.49695198E+04</totfact>
</mgrwt>
</event>
<event>
 7    0  0.4737014E-002  0.4570354E+03  0.7546771E-02  0.1025645E+00
         21   -1    0    0  502  501  0.00000000000E+00  0.00000000000E+00  0.32478463293E+03  0.32478463293E+03  0.00000000000E+00 0.  1.
         21   -1    0    0  501  502 -0.00000000000E+00 -0.00000000000E+00 -0.16078450834E+03  0.16078450834E+03  0.00000000000E+00 0.  1.
      99926    2    1    2    0    0 -0.14210854715E-13  0.00000000000E+00  0.16400012459E+03  0.48556914127E+03  0.45703539260E+03 0.  0.
      99925    2    3    3    0    0 -0.11234679791E+03 -0.15574665499E+02  0.84788915297E+02  0.29905829177E+03  0.26340525528E+03 0.  0.
         25    1    3    3    0    0  0.11234679791E+03  0.15574665499E+02  0.79211209291E+02  0.18651084951E+03  0.12509000000E+03 0.  0.
         25    1    4    4    0    0 -0.80846821552E+02 -0.16406861531E+02  0.80252959141E+02  0.16998070247E+03  0.12509000000E+03 0.  0.
         25    1    4    4    0    0 -0.31499976361E+02  0.83219603272E+00  0.45359561567E+01  0.12907758930E+03  0.12509000000E+03 0.  0.
<mgrwt>
<rscale>  2 0.45703539E+03</rscale>
<asrwt>0</asrwt>
<pdfrwt beam="1">  1       21 0.47762446E-01 0.45703539E+03</pdfrwt>
<pdfrwt beam="2">  1       21 0.23644781E-01 0.45703539E+03</pdfrwt>
<totfact> 0.65236444E+04</totfact>
</mgrwt>
</event>
<event>
 7    0  0.4737014E-002  0.4631835E+03  0.7546771E-02  0.1023862E+00
         21   -1    0    0  502  501  0.00000000000E+00  0.00000000000E+00  0.32257255234E+03  0.32257255234E+03  0.00000000000E+00 0.  1.
         21   -1    0    0  501  502 -0.00000000000E+00 -0.00000000000E+00 -0.16627183280E+03  0.16627183280E+03  0.00000000000E+00 0.  1.
      99926    2    1    2    0    0 -0.14210854715E-13  0.00000000000E+00  0.15630071954E+03  0.48884438514E+03  0.46318346036E+03 0.  0.
      99925    2    3    3    0    0  0.74020642737E+02  0.93977407410E+02  0.82442676351E+02  0.30066009436E+03  0.26322782679E+03 0.  0.
         25    1    3    3    0    0 -0.74020642737E+02 -0.93977407410E+02  0.73858043194E+02  0.18818429079E+03  0.12509000000E+03 0.  0.
         25    1    4    4    0    0 -0.10062981777E+01  0.53169994893E+02  0.22548209718E+02  0.13778240401E+03  0.12509000000E+03 0.  0.
         25    1    4    4    0    0  0.75026940915E+02  0.40807412517E+02  0.59894466633E+02  0.16287769035E+03  0.12509000000E+03 0.  0.
<mgrwt>
<rscale>  2 0.46318346E+03</rscale>
<asrwt>0</asrwt>
<pdfrwt beam="1">  1       21 0.47437140E-01 0.46318346E+03</pdfrwt>
<pdfrwt beam="2">  1       21 0.24451740E-01 0.46318346E+03</pdfrwt>
<totfact> 0.61939174E+04</totfact>
</mgrwt>
</event>
<event>
 7    0  0.4737014E-002  0.4450181E+03  0.7546771E-02  0.1029218E+00
         21   -1    0    0  502  501  0.00000000000E+00  0.00000000000E+00  0.16694137570E+03  0.16694137570E+03  0.00000000000E+00 0. -1.
         21   -1    0    0  501  502 -0.00000000000E+00 -0.00000000000E+00 -0.29657287525E+03  0.29657287525E+03  0.00000000000E+00 0. -1.
      99926    2    1    2    0    0 -0.14210854715E-13  0.00000000000E+00 -0.12963149955E+03  0.46351425095E+03  0.44501812902E+03 0.  0.
      99925    2    3    3    0    0 -0.99410532752E+02 -0.28910696465E+02 -0.81571422827E+02  0.29417565090E+03  0.26299645277E+03 0.  0.
         25    1    3    3    0    0  0.99410532752E+02  0.28910696465E+02 -0.48060076724E+02  0.16933860005E+03  0.12509000000E+03 0.  0.
         25    1    4    4    0    0 -0.81426963939E+01 -0.33153149430E+01 -0.42905623340E+02  0.13253563835E+03  0.12509000000E+03 0.  0.
         25    1    4    4    0    0 -0.91267836358E+02 -0.25595381522E+02 -0.38665799487E+02  0.16164001255E+03  0.12509000000E+03 0.  0.
<mgrwt>
<rscale>  2 0.44501813E+03</rscale>
<asrwt>0</asrwt>
<pdfrwt beam="1">  1       21 0.24550202E-01 0.44501813E+03</pdfrwt>
<pdfrwt beam="2">  1       21 0.43613658E-01 0.44501813E+03</pdfrwt>
<totfact> 0.73577375E+04</totfact>
</mgrwt>
</event>
<event>
 7    0  0.4737014E-002  0.3915292E+03  0.7546771E-02  0.1046753E+00
         21   -1    0    0  502  501  0.00000000000E+00  0.00000000000E+00  0.46979772348E+02  0.46979772348E+02  0.00000000000E+00 0. -1.
         21   -1    0    0  501  502 -0.00000000000E+00 -0.00000000000E+00 -0.81575074039E+03  0.81575074039E+03  0.00000000000E+00 0. -1.
      99926    2    1    2    0    0  0.17763568394E-14  0.00000000000E+00 -0.76877096804E+03  0.86273051274E+03  0.39152922791E+03 0.  0.
      99925    2    3    3    0    0 -0.99624659773E+01 -0.16370674463E+02 -0.56302239608E+03  0.62117879431E+03  0.26172815344E+03 0.  0.
         25    1    4    4    0    0 -0.41189309686E+02 -0.20765168672E+02 -0.29477103528E+03  0.32352005008E+03  0.12509000000E+03 0.  0.
         25    1    4    4    0    0  0.31226843709E+02  0.43944942092E+01 -0.26825136080E+03  0.29765874424E+03  0.12509000000E+03 0.  0.
         25    1    3    3    0    0  0.99624659773E+01  0.16370674463E+02 -0.20574857195E+03  0.24155171842E+03  0.12509000000E+03 0.  0.
<mgrwt>
<rscale>  2 0.39152923E+03</rscale>
<asrwt>0</asrwt>
<pdfrwt beam="1">  1       21 0.69087906E-02 0.39152923E+03</pdfrwt>
<pdfrwt beam="2">  1       21 0.11996334E+00 0.39152923E+03</pdfrwt>
<totfact> 0.76333232E+04</totfact>
</mgrwt>
</event>
<event>
 7    0  0.4737014E-002  0.4471544E+03  0.7546771E-02  0.1028574E+00
         21   -1    0    0  502  501  0.00000000000E+00  0.00000000000E+00  0.24774533783E+03  0.24774533783E+03  0.00000000000E+00 0. -1.
         21   -1    0    0  501  502 -0.00000000000E+00 -0.00000000000E+00 -0.20176668138E+03  0.20176668138E+03  0.00000000000E+00 0. -1.
      99926    2    1    2    0    0  0.00000000000E+00  0.00000000000E+00  0.45978656444E+02  0.44951201921E+03  0.44715435654E+03 0.  0.
      99925    2    3    3    0    0 -0.31495074082E+02 -0.68081454061E+02 -0.45794842909E+02  0.27718411270E+03  0.26288179971E+03 0.  0.
         25    1    4    4    0    0 -0.17543326184E+02  0.75366680252E+01 -0.21724935742E+02  0.12839022779E+03  0.12509000000E+03 0.  0.
         25    1    3    3    0    0  0.31495074082E+02  0.68081454061E+02  0.91773499353E+02  0.17232790651E+03  0.12509000000E+03 0.  0.
         25    1    4    4    0    0 -0.13951747899E+02 -0.75618122086E+02 -0.24069907167E+02  0.14879388492E+03  0.12509000000E+03 0.  0.
<mgrwt>
<rscale>  2 0.44715436E+03</rscale>
<asrwt>0</asrwt>
<pdfrwt beam="1">  1       21 0.36433138E-01 0.44715436E+03</pdfrwt>
<pdfrwt beam="2">  1       21 0.29671571E-01 0.44715436E+03</pdfrwt>
<totfact> 0.73440275E+04</totfact>
</mgrwt>
</event>
<event>
 7    0  0.4737014E-002  0.4550743E+03  0.7546771E-02  0.1026220E+00
         21   -1    0    0  502  501  0.00000000000E+00  0.00000000000E+00  0.52755771151E+02  0.52755771151E+02  0.00000000000E+00 0.  1.
         21   -1    0    0  501  502 -0.00000000000E+00 -0.00000000000E+00 -0.98137409826E+03  0.98137409826E+03  0.00000000000E+00 0.  1.
      99926    2    1    2    0    0  0.00000000000E+00  0.00000000000E+00 -0.92861832711E+03  0.10341298694E+04  0.45507426797E+03 0.  0.
      99925    2    3    3    0    0  0.10292809166E+03  0.42443002296E+02 -0.63169836188E+03  0.69324194891E+03  0.26295622985E+03 0.  0.
         25    1    3    3    0    0 -0.10292809166E+03 -0.42443002296E+02 -0.29691996523E+03  0.34088792051E+03  0.12509000000E+03 0.  0.
         25    1    4    4    0    0  0.46938364938E+02  0.54858909646E+02 -0.37749739895E+03  0.40418375077E+03  0.12509000000E+03 0.  0.
         25    1    4    4    0    0  0.55989726725E+02 -0.12415907349E+02 -0.25420096293E+03  0.28905819814E+03  0.12509000000E+03 0.  0.
<mgrwt>
<rscale>  2 0.45507427E+03</rscale>
<asrwt>0</asrwt>
<pdfrwt beam="1">  1       21 0.77582017E-02 0.45507427E+03</pdfrwt>
<pdfrwt beam="2">  1       21 0.14431972E+00 0.45507427E+03</pdfrwt>
<totfact> 0.37843217E+04</totfact>
</mgrwt>
</event>
<event>
 7    0  0.4737014E-002  0.4552848E+03  0.7546771E-02  0.1026158E+00
         21   -1    0    0  502  501  0.00000000000E+00  0.00000000000E+00  0.13203551436E+03  0.13203551436E+03  0.00000000000E+00 0. -1.
         21   -1    0    0  501  502 -0.00000000000E+00 -0.00000000000E+00 -0.39247825690E+03  0.39247825690E+03  0.00000000000E+00 0. -1.
      99926    2    1    2    0    0  0.00000000000E+00  0.00000000000E+00 -0.26044274254E+03  0.52451377125E+03  0.45528482744E+03 0.  0.
      99925    2    3    3    0    0 -0.60180866467E+02  0.76465113987E+02 -0.23103254455E+03  0.36332717693E+03  0.26298659757E+03 0.  0.
         25    1    4    4    0    0 -0.14527780351E+02  0.30286250905E+02 -0.63056617792E+02  0.14405540095E+03  0.12509000000E+03 0.  0.
         25    1    3    3    0    0  0.60180866467E+02 -0.76465113987E+02 -0.29410197985E+02  0.16118659433E+03  0.12509000000E+03 0.  0.
         25    1    4    4    0    0 -0.45653086116E+02  0.46178863082E+02 -0.16797592676E+03  0.21927177598E+03  0.12509000000E+03 0.  0.
<mgrwt>
<rscale>  2 0.45528483E+03</rscale>
<asrwt>0</asrwt>
<pdfrwt beam="1">  1       21 0.19416987E-01 0.45528483E+03</pdfrwt>
<pdfrwt beam="2">  1       21 0.57717391E-01 0.45528483E+03</pdfrwt>
<totfact> 0.63436063E+04</totfact>
</mgrwt>
</event>
<event>
 7    0  0.4737014E-002  0.4853406E+03  0.7546771E-02  0.1017678E+00
         21   -1    0    0  502  501  0.00000000000E+00  0.00000000000E+00  0.11294474939E+03  0.11294474939E+03  0.00000000000E+00 0.  1.
         21   -1    0    0  501  502 -0.00000000000E+00 -0.00000000000E+00 -0.52139544113E+03  0.52139544113E+03  0.00000000000E+00 0.  1.
      99926    2    1    2    0    0  0.17763568394E-14  0.00000000000E+00 -0.40845069174E+03  0.63434019052E+03  0.48534061207E+03 0.  0.
      99925    2    3    3    0    0 -0.14423653617E+02  0.13603932124E+03 -0.28787450979E+03  0.41320479656E+03  0.26296716869E+03 0.  0.
         25    1    4    4    0    0 -0.31132500321E+02  0.74745351973E+02 -0.19304240032E+03  0.24386261838E+03  0.12509000000E+03 0.  0.
         25    1    4    4    0    0  0.16708846705E+02  0.61293969271E+02 -0.94832109466E+02  0.16934217819E+03  0.12509000000E+03 0.  0.
         25    1    3    3    0    0  0.14423653617E+02 -0.13603932124E+03 -0.12057618195E+03  0.22113539396E+03  0.12509000000E+03 0.  0.
<mgrwt>
<rscale>  2 0.48534061E+03</rscale>
<asrwt>0</asrwt>
<pdfrwt beam="1">  1       21 0.16609522E-01 0.48534061E+03</pdfrwt>
<pdfrwt beam="2">  1       21 0.76675800E-01 0.48534061E+03</pdfrwt>
<totfact> 0.44861836E+04</totfact>
</mgrwt>
</event>
<event>
 7    0  0.4737014E-002  0.4503627E+03  0.7546771E-02  0.1027614E+00
         21   -1    0    0  502  501  0.00000000000E+00  0.00000000000E+00  0.84936945795E+02  0.84936945795E+02  0.00000000000E+00 0. -1.
         21   -1    0    0  501  502 -0.00000000000E+00 -0.00000000000E+00 -0.59699167172E+03  0.59699167172E+03  0.00000000000E+00 0. -1.
      99926    2    1    2    0    0  0.00000000000E+00 -0.71054273576E-14 -0.51205472593E+03  0.68192861752E+03  0.45036273940E+03 0.  0.
      99925    2    3    3    0    0 -0.23563888686E+02  0.46789585051E+02 -0.17925754329E+03  0.32255973323E+03  0.26299618354E+03 0.  0.
         25    1    4    4    0    0 -0.14577880546E+02  0.51428426207E+02 -0.57442796008E+02  0.14766374144E+03  0.12509000000E+03 0.  0.
         25    1    4    4    0    0 -0.89860081400E+01 -0.46388411560E+01 -0.12181474728E+03  0.17489599179E+03  0.12509000000E+03 0.  0.
         25    1    3    3    0    0  0.23563888686E+02 -0.46789585051E+02 -0.33279718264E+03  0.35936888428E+03  0.12509000000E+03 0.  0.
<mgrwt>
<rscale>  2 0.45036274E+03</rscale>
<asrwt>0</asrwt>
<pdfrwt beam="1">  1       21 0.12490728E-01 0.45036274E+03</pdfrwt>
<pdfrwt beam="2">  1       21 0.87792891E-01 0.45036274E+03</pdfrwt>
<totfact> 0.55909043E+04</totfact>
</mgrwt>
</event>
<event>
 7    0  0.4737014E-002  0.4471277E+03  0.7546771E-02  0.1028582E+00
         21   -1    0    0  502  501  0.00000000000E+00  0.00000000000E+00  0.27651474295E+03  0.27651474295E+03  0.00000000000E+00 0. -1.
         21   -1    0    0  501  502 -0.00000000000E+00 -0.00000000000E+00 -0.18075276979E+03  0.18075276979E+03  0.00000000000E+00 0. -1.
      99926    2    1    2    0    0 -0.71054273576E-14  0.71054273576E-14  0.95761973158E+02  0.45726751275E+03  0.44712774764E+03 0.  0.
      99925    2    3    3    0    0 -0.46505921076E+02  0.50052354465E+02  0.14306202530E+03  0.30709147633E+03  0.26300264802E+03 0.  0.
         25    1    4    4    0    0 -0.16096175641E+02  0.45429762161E+02  0.11175134536E+03  0.17452455830E+03  0.12509000000E+03 0.  0.
         25    1    3    3    0    0  0.46505921076E+02 -0.50052354465E+02 -0.47300052140E+02  0.15017603642E+03  0.12509000000E+03 0.  0.
         25    1    4    4    0    0 -0.30409745435E+02  0.46225923039E+01  0.31310679943E+02  0.13256691803E+03  0.12509000000E+03 0.  0.
<mgrwt>
<rscale>  2 0.44712775E+03</rscale>
<asrwt>0</asrwt>
<pdfrwt beam="1">  1       21 0.40663933E-01 0.44712775E+03</pdfrwt>
<pdfrwt beam="2">  1       21 0.26581290E-01 0.44712775E+03</pdfrwt>
<totfact> 0.72838015E+04</totfact>
</mgrwt>
</event>
<event>
 7    0  0.4737014E-002  0.4611651E+03  0.7546771E-02  0.1024444E+00
         21   -1    0    0  502  501  0.00000000000E+00  0.00000000000E+00  0.38290777309E+02  0.38290777309E+02  0.00000000000E+00 0.  1.
         21   -1    0    0  501  502 -0.00000000000E+00 -0.00000000000E+00 -0.13885407512E+04  0.13885407512E+04  0.00000000000E+00 0.  1.
      99926    2    1    2    0    0  0.00000000000E+00  0.00000000000E+00 -0.13502499739E+04  0.14268315285E+04  0.46116506672E+03 0.  0.
      99925    2    3    3    0    0 -0.65664807604E+02 -0.23073561988E+02 -0.11430893615E+04  0.11750234992E+04  0.26302600436E+03 0.  0.
         25    1    3    3    0    0  0.65664807604E+02  0.23073561988E+02 -0.20716061237E+03  0.25180802934E+03  0.12509000000E+03 0.  0.
         25    1    4    4    0    0 -0.22806815648E+02  0.18506626238E+02 -0.66243781318E+03  0.67478441779E+03  0.12509000000E+03 0.  0.
         25    1    4    4    0    0 -0.42857991956E+02 -0.41580188226E+02 -0.48065154836E+03  0.50023908141E+03  0.12509000000E+03 0.  0.
<mgrwt>
<rscale>  2 0.46116507E+03</rscale>
<asrwt>0</asrwt>
<pdfrwt beam="1">  1       21 0.56309977E-02 0.46116507E+03</pdfrwt>
<pdfrwt beam="2">  1       21 0.20419713E+00 0.46116507E+03</pdfrwt>
<totfact> 0.24434089E+04</totfact>
</mgrwt>
</event>
<event>
 7    0  0.4737014E-002  0.4518777E+03  0.7546771E-02  0.1027164E+00
         21   -1    0    0  502  501  0.00000000000E+00  0.00000000000E+00  0.76000998577E+02  0.76000998577E+02  0.00000000000E+00 0.  1.
         21   -1    0    0  501  502 -0.00000000000E+00 -0.00000000000E+00 -0.67168031368E+03  0.67168031368E+03  0.00000000000E+00 0.  1.
      99926    2    1    2    0    0  0.00000000000E+00  0.00000000000E+00 -0.59567931510E+03  0.74768131225E+03  0.45187774702E+03 0.  0.
      99925    2    3    3    0    0 -0.73282648916E+02 -0.70981694248E+02 -0.30688233731E+03  0.41683399092E+03  0.26299250842E+03 0.  0.
         25    1    4    4    0    0 -0.58703698820E+02 -0.13848287029E+02 -0.11497347516E+03  0.18028950995E+03  0.12509000000E+03 0.  0.
         25    1    4    4    0    0 -0.14578950095E+02 -0.57133407218E+02 -0.19190886215E+03  0.23654448097E+03  0.12509000000E+03 0.  0.
         25    1    3    3    0    0  0.73282648916E+02  0.70981694248E+02 -0.28879697779E+03  0.33084732133E+03  0.12509000000E+03 0.  0.
<mgrwt>
<rscale>  2 0.45187775E+03</rscale>
<asrwt>0</asrwt>
<pdfrwt beam="1">  1       21 0.11176617E-01 0.45187775E+03</pdfrwt>
<pdfrwt beam="2">  1       21 0.98776520E-01 0.45187775E+03</pdfrwt>
<totfact> 0.51645224E+04</totfact>
</mgrwt>
</event>
<event>
 7    0  0.4737014E-002  0.4407187E+03  0.7546771E-02  0.1030527E+00
         21   -1    0    0  502  501  0.00000000000E+00  0.00000000000E+00  0.15538371743E+04  0.15538371743E+04  0.00000000000E+00 0. -1.
         21   -1    0    0  501  502 -0.00000000000E+00 -0.00000000000E+00 -0.31250542025E+02  0.31250542025E+02  0.00000000000E+00 0. -1.
      99926    2    1    2    0    0  0.00000000000E+00  0.00000000000E+00  0.15225866323E+04  0.15850877164E+04  0.44071874894E+03 0.  0.
      99925    2    3    3    0    0 -0.47492544952E+02  0.56167796669E+02  0.73189781963E+03  0.78119302811E+03  0.26301666406E+03 0.  0.
         25    1    4    4    0    0 -0.27996325464E+01 -0.27303153944E+00  0.40412206941E+03  0.42304854045E+03  0.12509000000E+03 0.  0.
         25    1    3    3    0    0  0.47492544952E+02 -0.56167796669E+02  0.79068881269E+03  0.80389468827E+03  0.12509000000E+03 0.  0.
         25    1    4    4    0    0 -0.44692912405E+02  0.56440828208E+02  0.32777575022E+03  0.35814448766E+03  0.12509000000E+03 0.  0.
<mgrwt>
<rscale>  2 0.44071875E+03</rscale>
<asrwt>0</asrwt>
<pdfrwt beam="1">  1       21 0.22850541E+00 0.44071875E+03</pdfrwt>
<pdfrwt beam="2">  1       21 0.45956690E-02 0.44071875E+03</pdfrwt>
<totfact> 0.24360446E+04</totfact>
</mgrwt>
</event>
<event>
 6    0  0.4737014E-002  0.4530849E+03  0.7546771E-02  0.1026806E+00
         21   -1    0    0  502  501  0.00000000000E+00  0.00000000000E+00  0.10052809785E+03  0.10052809785E+03  0.00000000000E+00 0.  1.
         21   -1    0    0  501  502 -0.00000000000E+00 -0.00000000000E+00 -0.51051866551E+03  0.51051866551E+03  0.00000000000E+00 0.  1.
      99926    2    1    2    0    0  0.71054273576E-14  0.35527136788E-14 -0.40999056766E+03  0.61104676337E+03  0.45308485017E+03 0.  0.
         25    1    3    3    0    0 -0.45813757469E+02 -0.22074712027E+02 -0.26957382978E+03  0.30150248935E+03  0.12509000000E+03 0.  0.
         25    1    3    3    0    0  0.50353509089E+02  0.53929682411E+02 -0.58330776983E+02  0.15650518894E+03  0.12509000000E+03 0.  0.
         25    1    3    3    0    0 -0.45397516202E+01 -0.31854970383E+02 -0.82085960901E+02  0.15303908507E+03  0.12509000000E+03 0.  0.
<mgrwt>
<rscale>  2 0.45308485E+03</rscale>
<asrwt>0</asrwt>
<pdfrwt beam="1">  1       21 0.14783544E-01 0.45308485E+03</pdfrwt>
<pdfrwt beam="2">  1       21 0.75076273E-01 0.45308485E+03</pdfrwt>
<totfact> 0.58889187E+04</totfact>
</mgrwt>
</event>
<event>
 7    0  0.4737014E-002  0.4585017E+03  0.7546771E-02  0.1025217E+00
         21   -1    0    0  502  501  0.00000000000E+00  0.00000000000E+00  0.70040666179E+03  0.70040666179E+03  0.00000000000E+00 0.  1.
         21   -1    0    0  501  502 -0.00000000000E+00 -0.00000000000E+00 -0.75036342603E+02  0.75036342603E+02  0.00000000000E+00 0.  1.
      99926    2    1    2    0    0  0.00000000000E+00  0.00000000000E+00  0.62537031919E+03  0.77544300440E+03  0.45850170877E+03 0.  0.
      99925    2    3    3    0    0  0.96740188015E+02  0.48247274699E+02  0.46617934239E+03  0.54593104678E+03  0.26273763544E+03 0.  0.
         25    1    3    3    0    0 -0.96740188015E+02 -0.48247274699E+02  0.15919097680E+03  0.22951195761E+03  0.12509000000E+03 0.  0.
         25    1    4    4    0    0  0.68236322009E+02  0.60655091009E+02  0.26784998599E+03  0.30939676599E+03  0.12509000000E+03 0.  0.
         25    1    4    4    0    0  0.28503866006E+02 -0.12407816310E+02  0.19832935640E+03  0.23653428080E+03  0.12509000000E+03 0.  0.
<mgrwt>
<rscale>  2 0.45850171E+03</rscale>
<asrwt>0</asrwt>
<pdfrwt beam="1">  1       21 0.10300098E+00 0.45850171E+03</pdfrwt>
<pdfrwt beam="2">  1       21 0.11034757E-01 0.45850171E+03</pdfrwt>
<totfact> 0.47652187E+04</totfact>
</mgrwt>
</event>
<event>
 7    0  0.4737014E-002  0.4569757E+03  0.7546771E-02  0.1025662E+00
         21   -1    0    0  502  501  0.00000000000E+00  0.00000000000E+00  0.21892117717E+03  0.21892117717E+03  0.00000000000E+00 0. -1.
         21   -1    0    0  501  502 -0.00000000000E+00 -0.00000000000E+00 -0.23847253218E+03  0.23847253218E+03  0.00000000000E+00 0. -1.
      99926    2    1    2    0    0  0.14210854715E-13  0.00000000000E+00 -0.19551355013E+02  0.45739370935E+03  0.45697565566E+03 0.  0.
      99925    2    3    3    0    0  0.66922412171E+02  0.91297130361E+02 -0.32509106023E+02  0.28819209389E+03  0.26302864054E+03 0.  0.
         25    1    3    3    0    0 -0.66922412171E+02 -0.91297130361E+02  0.12957751009E+02  0.16920161546E+03  0.12509000000E+03 0.  0.
         25    1    4    4    0    0  0.65567912461E+02  0.41124337004E+02  0.83971625820E+01  0.14733764854E+03  0.12509000000E+03 0.  0.
         25    1    4    4    0    0  0.13544997095E+01  0.50172793358E+02 -0.40906268605E+02  0.14085444535E+03  0.12509000000E+03 0.  0.
<mgrwt>
<rscale>  2 0.45697566E+03</rscale>
<asrwt>0</asrwt>
<pdfrwt beam="1">  1       21 0.32194291E-01 0.45697566E+03</pdfrwt>
<pdfrwt beam="2">  1       21 0.35069490E-01 0.45697566E+03</pdfrwt>
<totfact> 0.67303591E+04</totfact>
</mgrwt>
</event>
<event>
 7    0  0.4737014E-002  0.4508378E+03  0.7546771E-02  0.1027473E+00
         21   -1    0    0  502  501  0.00000000000E+00  0.00000000000E+00  0.11946581295E+04  0.11946581295E+04  0.00000000000E+00 0.  1.
         21   -1    0    0  501  502 -0.00000000000E+00 -0.00000000000E+00 -0.42534071503E+02  0.42534071503E+02  0.00000000000E+00 0.  1.
      99926    2    1    2    0    0  0.00000000000E+00  0.14210854715E-13  0.11521240580E+04  0.12371922010E+04  0.45083777261E+03 0.  0.
      99925    2    3    3    0    0  0.50897735543E+02 -0.93790439391E+02  0.78675154605E+03  0.83652799423E+03  0.26346510948E+03 0.  0.
         25    1    3    3    0    0 -0.50897735543E+02  0.93790439391E+02  0.36537251199E+03  0.40066420681E+03  0.12509000000E+03 0.  0.
         25    1    4    4    0    0  0.13522037881E+02 -0.41481555463E+01  0.34734338150E+03  0.36945227767E+03  0.12509000000E+03 0.  0.
         25    1    4    4    0    0  0.37375697661E+02 -0.89642283844E+02  0.43940816454E+03  0.46707571655E+03  0.12509000000E+03 0.  0.
<mgrwt>
<rscale>  2 0.45083777E+03</rscale>
<asrwt>0</asrwt>
<pdfrwt beam="1">  1       21 0.17568500E+00 0.45083777E+03</pdfrwt>
<pdfrwt beam="2">  1       21 0.62550113E-02 0.45083777E+03</pdfrwt>
<totfact> 0.32019768E+04</totfact>
</mgrwt>
</event>
<event>
 7    0  0.4737014E-002  0.4475489E+03  0.7546771E-02  0.1028456E+00
         21   -1    0    0  502  501  0.00000000000E+00  0.00000000000E+00  0.67375077971E+02  0.67375077971E+02  0.00000000000E+00 0.  1.
         21   -1    0    0  501  502 -0.00000000000E+00 -0.00000000000E+00 -0.74322743453E+03  0.74322743453E+03  0.00000000000E+00 0.  1.
      99926    2    1    2    0    0  0.00000000000E+00  0.22204460493E-15 -0.67585235656E+03  0.81060251250E+03  0.44754890839E+03 0.  0.
      99925    2    3    3    0    0 -0.10557713610E+03  0.13096471437E+01 -0.41158038524E+03  0.49974011566E+03  0.26304661725E+03 0.  0.
         25    1    3    3    0    0  0.10557713610E+03 -0.13096471437E+01 -0.26427197132E+03  0.31086239684E+03  0.12509000000E+03 0.  0.
         25    1    4    4    0    0 -0.40992477807E+02  0.38756992622E+02 -0.21521087338E+03  0.25523658796E+03  0.12509000000E+03 0.  0.
         25    1    4    4    0    0 -0.64584658290E+02 -0.37447345479E+02 -0.19636951186E+03  0.24450352770E+03  0.12509000000E+03 0.  0.
<mgrwt>
<rscale>  2 0.44754891E+03</rscale>
<asrwt>0</asrwt>
<pdfrwt beam="1">  1       21 0.99080995E-02 0.44754891E+03</pdfrwt>
<pdfrwt beam="2">  1       21 0.10929815E+00 0.44754891E+03</pdfrwt>
<totfact> 0.50123344E+04</totfact>
</mgrwt>
</event>
<event>
 7    0  0.4737014E-002  0.4517261E+03  0.7546771E-02  0.1027209E+00
         21   -1    0    0  502  501  0.00000000000E+00  0.00000000000E+00  0.48602460742E+03  0.48602460742E+03  0.00000000000E+00 0.  1.
         21   -1    0    0  501  502 -0.00000000000E+00 -0.00000000000E+00 -0.10496202331E+03  0.10496202331E+03  0.00000000000E+00 0.  1.
      99926    2    1    2    0    0 -0.66613381478E-15  0.00000000000E+00  0.38106258411E+03  0.59098663073E+03  0.45172613904E+03 0.  0.
      99925    2    3    3    0    0 -0.88153663451E+00 -0.98447252632E+02  0.30492943173E+03  0.41453152695E+03  0.26298629213E+03 0.  0.
         25    1    4    4    0    0 -0.26735053603E+02 -0.70880461411E+02  0.19514836970E+03  0.24386307059E+03  0.12509000000E+03 0.  0.
         25    1    4    4    0    0  0.25853516968E+02 -0.27566791220E+02  0.10978106203E+03  0.17066845636E+03  0.12509000000E+03 0.  0.
         25    1    3    3    0    0  0.88153663451E+00  0.98447252632E+02  0.76133152382E+02  0.17645510378E+03  0.12509000000E+03 0.  0.
<mgrwt>
<rscale>  2 0.45172614E+03</rscale>
<asrwt>0</asrwt>
<pdfrwt beam="1">  1       21 0.71474206E-01 0.45172614E+03</pdfrwt>
<pdfrwt beam="2">  1       21 0.15435592E-01 0.45172614E+03</pdfrwt>
<totfact> 0.60794306E+04</totfact>
</mgrwt>
</event>
<event>
 7    0  0.4737014E-002  0.4549563E+03  0.7546771E-02  0.1026254E+00
         21   -1    0    0  502  501  0.00000000000E+00  0.00000000000E+00  0.11122869070E+03  0.11122869070E+03  0.00000000000E+00 0.  1.
         21   -1    0    0  501  502 -0.00000000000E+00 -0.00000000000E+00 -0.46522454067E+03  0.46522454067E+03  0.00000000000E+00 0.  1.
      99926    2    1    2    0    0  0.00000000000E+00  0.35527136788E-14 -0.35399584996E+03  0.57645323137E+03  0.45495633435E+03 0.  0.
      99925    2    3    3    0    0  0.52724327436E+02  0.28019848471E+02 -0.34418845790E+03  0.43749762820E+03  0.26338852199E+03 0.  0.
         25    1    4    4    0    0  0.66844143802E+02  0.21791350934E+02 -0.19697870524E+03  0.24370293588E+03  0.12509000000E+03 0.  0.
         25    1    3    3    0    0 -0.52724327436E+02 -0.28019848471E+02 -0.98073920587E+01  0.13895560317E+03  0.12509000000E+03 0.  0.
         25    1    4    4    0    0 -0.14119816365E+02  0.62284975376E+01 -0.14720975266E+03  0.19379469233E+03  0.12509000000E+03 0.  0.
<mgrwt>
<rscale>  2 0.45495633E+03</rscale>
<asrwt>0</asrwt>
<pdfrwt beam="1">  1       21 0.16357161E-01 0.45495633E+03</pdfrwt>
<pdfrwt beam="2">  1       21 0.68415373E-01 0.45495633E+03</pdfrwt>
<totfact> 0.60172329E+04</totfact>
</mgrwt>
</event>
<event>
 7    0  0.4737014E-002  0.3911331E+03  0.7546771E-02  0.1046894E+00
         21   -1    0    0  502  501  0.00000000000E+00  0.00000000000E+00  0.37997260472E+02  0.37997260472E+02  0.00000000000E+00 0. -1.
         21   -1    0    0  501  502 -0.00000000000E+00 -0.00000000000E+00 -0.10065536007E+04  0.10065536007E+04  0.00000000000E+00 0. -1.
      99926    2    1    2    0    0 -0.17763568394E-14  0.00000000000E+00 -0.96855634023E+03  0.10445508612E+04  0.39113311977E+03 0.  0.
      99925    2    3    3    0    0  0.14569689544E+02  0.12416964241E+02 -0.62126647095E+03  0.67492372708E+03  0.26302766508E+03 0.  0.
         25    1    4    4    0    0 -0.77421690142E+01 -0.88341001897E+01 -0.39561308443E+03  0.41508457353E+03  0.12509000000E+03 0.  0.
         25    1    4    4    0    0  0.22311858558E+02  0.21251064431E+02 -0.22565338652E+03  0.25983915356E+03  0.12509000000E+03 0.  0.
         25    1    3    3    0    0 -0.14569689544E+02 -0.12416964241E+02 -0.34728986928E+03  0.36962713409E+03  0.12509000000E+03 0.  0.
<mgrwt>
<rscale>  2 0.39113312E+03</rscale>
<asrwt>0</asrwt>
<pdfrwt beam="1">  1       21 0.55878328E-02 0.39113312E+03</pdfrwt>
<pdfrwt beam="2">  1       21 0.14802258E+00 0.39113312E+03</pdfrwt>
<totfact> 0.63854643E+04</totfact>
</mgrwt>
</event>
<event>
 7    0  0.4737014E-002  0.4545821E+03  0.7546771E-02  0.1026364E+00
         21   -1    0    0  502  501  0.00000000000E+00  0.00000000000E+00  0.12092588030E+03  0.12092588030E+03  0.00000000000E+00 0. -1.
         21   -1    0    0  501  502 -0.00000000000E+00 -0.00000000000E+00 -0.42721384801E+03  0.42721384801E+03  0.00000000000E+00 0. -1.
      99926    2    1    2    0    0  0.71054273576E-14  0.71054273576E-14 -0.30628796771E+03  0.54813972832E+03  0.45458205265E+03 0.  0.
      99925    2    3    3    0    0 -0.60511956872E+02  0.42057789808E+02 -0.90246641767E+02  0.28784774376E+03  0.26321343551E+03 0.  0.
         25    1    3    3    0    0  0.60511956872E+02 -0.42057789808E+02 -0.21604132594E+03  0.26029198456E+03  0.12509000000E+03 0.  0.
         25    1    4    4    0    0 -0.71006963840E+01 -0.13393910171E+02 -0.49863619792E+02  0.13551274994E+03  0.12509000000E+03 0.  0.
         25    1    4    4    0    0 -0.53411260488E+02  0.55451699979E+02 -0.40383021975E+02  0.15233499382E+03  0.12509000000E+03 0.  0.
<mgrwt>
<rscale>  2 0.45458205E+03</rscale>
<asrwt>0</asrwt>
<pdfrwt beam="1">  1       21 0.17783218E-01 0.45458205E+03</pdfrwt>
<pdfrwt beam="2">  1       21 0.62825566E-01 0.45458205E+03</pdfrwt>
<totfact> 0.62195026E+04</totfact>
</mgrwt>
</event>
<event>
 7    0  0.4737014E-002  0.4566310E+03  0.7546771E-02  0.1025763E+00
         21   -1    0    0  502  501  0.00000000000E+00  0.00000000000E+00  0.14223256476E+03  0.14223256476E+03  0.00000000000E+00 0. -1.
         21   -1    0    0  501  502 -0.00000000000E+00 -0.00000000000E+00 -0.36649808475E+03  0.36649808475E+03  0.00000000000E+00 0. -1.
      99926    2    1    2    0    0 -0.44408920985E-15  0.14210854715E-13 -0.22426551999E+03  0.50873064951E+03  0.45663097824E+03 0.  0.
      99925    2    3    3    0    0  0.37235294385E+01 -0.11025457456E+03 -0.10564562791E+03  0.30406476867E+03  0.26291528857E+03 0.  0.
         25    1    4    4    0    0 -0.48990412420E+01 -0.93633314171E+02 -0.39103305780E+02  0.16114519773E+03  0.12509000000E+03 0.  0.
         25    1    4    4    0    0  0.86225706805E+01 -0.16621260390E+02 -0.66542322133E+02  0.14291957094E+03  0.12509000000E+03 0.  0.
         25    1    3    3    0    0 -0.37235294385E+01  0.11025457456E+03 -0.11861989208E+03  0.20466588084E+03  0.12509000000E+03 0.  0.
<mgrwt>
<rscale>  2 0.45663098E+03</rscale>
<asrwt>0</asrwt>
<pdfrwt beam="1">  1       21 0.20916554E-01 0.45663098E+03</pdfrwt>
<pdfrwt beam="2">  1       21 0.53896777E-01 0.45663098E+03</pdfrwt>
<totfact> 0.63831271E+04</totfact>
</mgrwt>
</event>
<event>
 7    0  0.4737014E-002  0.4656625E+03  0.7546771E-02  0.1023152E+00
         21   -1    0    0  502  501  0.00000000000E+00  0.00000000000E+00  0.72032799398E+03  0.72032799398E+03  0.00000000000E+00 0.  1.
         21   -1    0    0  501  502 -0.00000000000E+00 -0.00000000000E+00 -0.75257930067E+02  0.75257930067E+02  0.00000000000E+00 0.  1.
      99926    2    1    2    0    0  0.14210854715E-13 -0.14210854715E-13  0.64507006391E+03  0.79558592404E+03  0.46566251211E+03 0.  0.
      99925    2    3    3    0    0 -0.84731126338E+02  0.86122198936E+02  0.44051564342E+03  0.52709678839E+03  0.26302204341E+03 0.  0.
         25    1    3    3    0    0  0.84731126338E+02 -0.86122198936E+02  0.20455442049E+03  0.26848913565E+03  0.12509000000E+03 0.  0.
         25    1    4    4    0    0 -0.35496383613E+01  0.55408529370E+02  0.19598793344E+03  0.23904284807E+03  0.12509000000E+03 0.  0.
         25    1    4    4    0    0 -0.81181487977E+02  0.30713669566E+02  0.24452770998E+03  0.28805394033E+03  0.12509000000E+03 0.  0.
<mgrwt>
<rscale>  2 0.46566251E+03</rscale>
<asrwt>0</asrwt>
<pdfrwt beam="1">  1       21 0.10593058E+00 0.46566251E+03</pdfrwt>
<pdfrwt beam="2">  1       21 0.11067343E-01 0.46566251E+03</pdfrwt>
<totfact> 0.44165691E+04</totfact>
</mgrwt>
</event>
<event>
 7    0  0.4737014E-002  0.4567963E+03  0.7546771E-02  0.1025714E+00
         21   -1    0    0  502  501  0.00000000000E+00  0.00000000000E+00  0.12538910910E+03  0.12538910910E+03  0.00000000000E+00 0.  1.
         21   -1    0    0  501  502 -0.00000000000E+00 -0.00000000000E+00 -0.41603065383E+03  0.41603065383E+03  0.00000000000E+00 0.  1.
      99926    2    1    2    0    0  0.00000000000E+00  0.00000000000E+00 -0.29064154473E+03  0.54141976292E+03  0.45679629175E+03 0.  0.
      99925    2    3    3    0    0  0.16529258078E+02 -0.23263816718E+02 -0.31445492407E+03  0.41092452670E+03  0.26298791956E+03 0.  0.
         25    1    4    4    0    0  0.72303035042E+01 -0.37564416256E+02 -0.20835416352E+03  0.24601286189E+03  0.12509000000E+03 0.  0.
         25    1    3    3    0    0 -0.16529258078E+02  0.23263816718E+02  0.23813379337E+02  0.13049523622E+03  0.12509000000E+03 0.  0.
         25    1    4    4    0    0  0.92989545737E+01  0.14300599539E+02 -0.10610076054E+03  0.16491166481E+03  0.12509000000E+03 0.  0.
<mgrwt>
<rscale>  2 0.45679629E+03</rscale>
<asrwt>0</asrwt>
<pdfrwt beam="1">  1       21 0.18439575E-01 0.45679629E+03</pdfrwt>
<pdfrwt beam="2">  1       21 0.61180980E-01 0.45679629E+03</pdfrwt>
<totfact> 0.61557355E+04</totfact>
</mgrwt>
</event>
<event>
 7    0  0.4737014E-002  0.4503314E+03  0.7546771E-02  0.1027623E+00
         21   -1    0    0  502  501  0.00000000000E+00  0.00000000000E+00  0.80241372133E+02  0.80241372133E+02  0.00000000000E+00 0. -1.
         21   -1    0    0  501  502 -0.00000000000E+00 -0.00000000000E+00 -0.63183845585E+03  0.63183845585E+03  0.00000000000E+00 0. -1.
      99926    2    1    2    0    0  0.35527136788E-14  0.00000000000E+00 -0.55159708371E+03  0.71207982798E+03  0.45033136539E+03 0.  0.
      99925    2    3    3    0    0 -0.31489490560E+02  0.41782092154E+02 -0.49923661697E+03  0.56673039448E+03  0.26307567175E+03 0.  0.
         25    1    4    4    0    0  0.19176621384E+02  0.11025422271E+02 -0.27974908085E+03  0.30723990477E+03  0.12509000000E+03 0.  0.
         25    1    3    3    0    0  0.31489490560E+02 -0.41782092154E+02 -0.52360466747E+02  0.14534943350E+03  0.12509000000E+03 0.  0.
         25    1    4    4    0    0 -0.50666111944E+02  0.30756669883E+02 -0.21948753612E+03  0.25949048972E+03  0.12509000000E+03 0.  0.
<mgrwt>
<rscale>  2 0.45033137E+03</rscale>
<asrwt>0</asrwt>
<pdfrwt beam="1">  1       21 0.11800201E-01 0.45033137E+03</pdfrwt>
<pdfrwt beam="2">  1       21 0.92917423E-01 0.45033137E+03</pdfrwt>
<totfact> 0.54216043E+04</totfact>
</mgrwt>
</event>
<event>
 7    0  0.4737014E-002  0.4345953E+03  0.7546771E-02  0.1032418E+00
         21   -1    0    0  502  501  0.00000000000E+00  0.00000000000E+00  0.62504033349E+03  0.62504033349E+03  0.00000000000E+00 0.  1.
         21   -1    0    0  501  502 -0.00000000000E+00 -0.00000000000E+00 -0.75544350920E+02  0.75544350920E+02  0.00000000000E+00 0.  1.
      99926    2    1    2    0    0  0.17763568394E-14  0.00000000000E+00  0.54949598257E+03  0.70058468441E+03  0.43459528894E+03 0.  0.
      99925    2    3    3    0    0 -0.15486925522E+02  0.31972745152E+02  0.49057445669E+03  0.55782139919E+03  0.26313364388E+03 0.  0.
         25    1    4    4    0    0  0.96967603208E+01  0.47132986307E+02  0.20855616212E+03  0.24790870581E+03  0.12509000000E+03 0.  0.
         25    1    3    3    0    0  0.15486925522E+02 -0.31972745152E+02  0.58921525881E+02  0.14276328522E+03  0.12509000000E+03 0.  0.
         25    1    4    4    0    0 -0.25183685842E+02 -0.15160241155E+02  0.28201829457E+03  0.30991269338E+03  0.12509000000E+03 0.  0.
<mgrwt>
<rscale>  2 0.43459529E+03</rscale>
<asrwt>0</asrwt>
<pdfrwt beam="1">  1       21 0.91917693E-01 0.43459529E+03</pdfrwt>
<pdfrwt beam="2">  1       21 0.11109464E-01 0.43459529E+03</pdfrwt>
<totfact> 0.62286318E+04</totfact>
</mgrwt>
</event>
<event>
 7    0  0.4737014E-002  0.4519173E+03  0.7546771E-02  0.1027152E+00
         21   -1    0    0  502  501  0.00000000000E+00  0.00000000000E+00  0.22212609071E+03  0.22212609071E+03  0.00000000000E+00 0.  1.
         21   -1    0    0  501  502 -0.00000000000E+00 -0.00000000000E+00 -0.22985731133E+03  0.22985731133E+03  0.00000000000E+00 0.  1.
      99926    2    1    2    0    0  0.00000000000E+00  0.00000000000E+00 -0.77312206174E+01  0.45198340204E+03  0.45191727555E+03 0.  0.
      99925    2    3    3    0    0  0.24141177242E+02 -0.90256241766E+02  0.52008251946E+02  0.28481492923E+03  0.26398049176E+03 0.  0.
         25    1    4    4    0    0  0.13018775432E+02 -0.78912899447E+02  0.55932754063E+02  0.15865911663E+03  0.12509000000E+03 0.  0.
         25    1    4    4    0    0  0.11122401809E+02 -0.11343342319E+02 -0.39245021169E+01  0.12615581260E+03  0.12509000000E+03 0.  0.
         25    1    3    3    0    0 -0.24141177242E+02  0.90256241766E+02 -0.59739472564E+02  0.16716847280E+03  0.12509000000E+03 0.  0.
<mgrwt>
<rscale>  2 0.45191728E+03</rscale>
<asrwt>0</asrwt>
<pdfrwt beam="1">  1       21 0.32665602E-01 0.45191728E+03</pdfrwt>
<pdfrwt beam="2">  1       21 0.33802546E-01 0.45191728E+03</pdfrwt>
<totfact> 0.70485183E+04</totfact>
</mgrwt>
</event>
<event>
 7    0  0.4737014E-002  0.4544970E+03  0.7546771E-02  0.1026389E+00
         21   -1    0    0  502  501  0.00000000000E+00  0.00000000000E+00  0.20882860275E+03  0.20882860275E+03  0.00000000000E+00 0.  1.
         21   -1    0    0  501  502 -0.00000000000E+00 -0.00000000000E+00 -0.24729318040E+03  0.24729318040E+03  0.00000000000E+00 0.  1.
      99926    2    1    2    0    0  0.14210854715E-13 -0.44408920985E-15 -0.38464577653E+02  0.45612178315E+03  0.45449703776E+03 0.  0.
      99925    2    3    3    0    0 -0.11270419688E+03 -0.35463053071E+01 -0.23903155062E+02  0.28708227474E+03  0.26292595796E+03 0.  0.
         25    1    4    4    0    0 -0.33450593048E+02 -0.22206649030E+02  0.16624694716E+02  0.13242343452E+03  0.12509000000E+03 0.  0.
         25    1    4    4    0    0 -0.79253603835E+02  0.18660343723E+02 -0.40527849778E+02  0.15465884021E+03  0.12509000000E+03 0.  0.
         25    1    3    3    0    0  0.11270419688E+03  0.35463053071E+01 -0.14561422592E+02  0.16903950841E+03  0.12509000000E+03 0.  0.
<mgrwt>
<rscale>  2 0.45449704E+03</rscale>
<asrwt>0</asrwt>
<pdfrwt beam="1">  1       21 0.30710089E-01 0.45449704E+03</pdfrwt>
<pdfrwt beam="2">  1       21 0.36366644E-01 0.45449704E+03</pdfrwt>
<totfact> 0.68739151E+04</totfact>
</mgrwt>
</event>
<event>
 7    0  0.4737014E-002  0.4557812E+03  0.7546771E-02  0.1026012E+00
         21   -1    0    0  502  501  0.00000000000E+00  0.00000000000E+00  0.14408195826E+03  0.14408195826E+03  0.00000000000E+00 0.  1.
         21   -1    0    0  501  502 -0.00000000000E+00 -0.00000000000E+00 -0.36044855527E+03  0.36044855527E+03  0.00000000000E+00 0.  1.
      99926    2    1    2    0    0  0.00000000000E+00  0.00000000000E+00 -0.21636659701E+03  0.50453051353E+03  0.45578123567E+03 0.  0.
      99925    2    3    3    0    0 -0.33808916895E+02  0.38811427259E+02 -0.24850892098E+03  0.36549811861E+03  0.26302627465E+03 0.  0.
         25    1    3    3    0    0  0.33808916895E+02 -0.38811427259E+02  0.32142323970E+02  0.13903239492E+03  0.12509000000E+03 0.  0.
         25    1    4    4    0    0 -0.13064241916E+02 -0.18379950733E+02 -0.13990986594E+03  0.18902585985E+03  0.12509000000E+03 0.  0.
         25    1    4    4    0    0 -0.20744674980E+02  0.57191377992E+02 -0.10859905504E+03  0.17647225876E+03  0.12509000000E+03 0.  0.
<mgrwt>
<rscale>  2 0.45578124E+03</rscale>
<asrwt>0</asrwt>
<pdfrwt beam="1">  1       21 0.21188523E-01 0.45578124E+03</pdfrwt>
<pdfrwt beam="2">  1       21 0.53007140E-01 0.45578124E+03</pdfrwt>
<totfact> 0.64552319E+04</totfact>
</mgrwt>
</event>
<event>
 7    0  0.4737014E-002  0.4736828E+03  0.7546771E-02  0.1020886E+00
         21   -1    0    0  502  501  0.00000000000E+00  0.00000000000E+00  0.13055909223E+03  0.13055909223E+03  0.00000000000E+00 0. -1.
         21   -1    0    0  501  502 -0.00000000000E+00 -0.00000000000E+00 -0.42964340030E+03  0.42964340030E+03  0.00000000000E+00 0. -1.
      99926    2    1    2    0    0 -0.14210854715E-13  0.00000000000E+00 -0.29908430806E+03  0.56020249253E+03  0.47368281508E+03 0.  0.
      99925    2    3    3    0    0 -0.74556582891E+02 -0.10012208664E+03 -0.14297488768E+03  0.32440432561E+03  0.26308407722E+03 0.  0.
         25    1    3    3    0    0  0.74556582891E+02  0.10012208664E+03 -0.15610942039E+03  0.23579816691E+03  0.12509000000E+03 0.  0.
         25    1    4    4    0    0 -0.71640337418E+02 -0.31509463684E+02 -0.85702403254E+02  0.17063878302E+03  0.12509000000E+03 0.  0.
         25    1    4    4    0    0 -0.29162454734E+01 -0.68612622961E+02 -0.57272484422E+02  0.15376554259E+03  0.12509000000E+03 0.  0.
<mgrwt>
<rscale>  2 0.47368282E+03</rscale>
<asrwt>0</asrwt>
<pdfrwt beam="1">  1       21 0.19199866E-01 0.47368282E+03</pdfrwt>
<pdfrwt beam="2">  1       21 0.63182853E-01 0.47368282E+03</pdfrwt>
<totfact> 0.52928286E+04</totfact>
</mgrwt>
</event>
<event>
 7    0  0.4737014E-002  0.4111161E+03  0.7546771E-02  0.1039997E+00
         21   -1    0    0  502  501  0.00000000000E+00  0.00000000000E+00  0.52472677215E+02  0.52472677215E+02  0.00000000000E+00 0.  1.
         21   -1    0    0  501  502 -0.00000000000E+00 -0.00000000000E+00 -0.80525926361E+03  0.80525926361E+03  0.00000000000E+00 0.  1.
      99926    2    1    2    0    0  0.00000000000E+00 -0.71054273576E-14 -0.75278658640E+03  0.85773194083E+03  0.41111608781E+03 0.  0.
      99925    2    3    3    0    0 -0.36926812102E+02  0.35192406704E+02 -0.57589683832E+03  0.63515704104E+03  0.26299278213E+03 0.  0.
         25    1    4    4    0    0 -0.41048573740E+02  0.50593356266E+02 -0.28020716362E+03  0.31370086985E+03  0.12509000000E+03 0.  0.
         25    1    4    4    0    0  0.41217616381E+01 -0.15400949562E+02 -0.29568967470E+03  0.32145617118E+03  0.12509000000E+03 0.  0.
         25    1    3    3    0    0  0.36926812102E+02 -0.35192406704E+02 -0.17688974808E+03  0.22257489979E+03  0.12509000000E+03 0.  0.
<mgrwt>
<rscale>  2 0.41111609E+03</rscale>
<asrwt>0</asrwt>
<pdfrwt beam="1">  1       21 0.77165702E-02 0.41111609E+03</pdfrwt>
<pdfrwt beam="2">  1       21 0.11842048E+00 0.41111609E+03</pdfrwt>
<totfact> 0.64621945E+04</totfact>
</mgrwt>
</event>
<event>
 7    0  0.4737014E-002  0.4268203E+03  0.7546771E-02  0.1034869E+00
         21   -1    0    0  502  501  0.00000000000E+00  0.00000000000E+00  0.19181470503E+03  0.19181470503E+03  0.00000000000E+00 0.  1.
         21   -1    0    0  501  502 -0.00000000000E+00 -0.00000000000E+00 -0.23743696777E+03  0.23743696777E+03  0.00000000000E+00 0.  1.
      99926    2    1    2    0    0  0.71054273576E-14  0.00000000000E+00 -0.45622262740E+02  0.42925167280E+03  0.42682034598E+03 0.  0.
      99925    2    3    3    0    0 -0.62733804502E+02 -0.11131838532E+02  0.25766766833E+02  0.27176088037E+03  0.26292698943E+03 0.  0.
         25    1    4    4    0    0  0.95733163523E+01 -0.11838740803E+02  0.14246536550E+02  0.12681591412E+03  0.12509000000E+03 0.  0.
         25    1    3    3    0    0  0.62733804502E+02  0.11131838532E+02 -0.71389029573E+02  0.15749079243E+03  0.12509000000E+03 0.  0.
         25    1    4    4    0    0 -0.72307120854E+02  0.70690227127E+00  0.11520230283E+02  0.14494496626E+03  0.12509000000E+03 0.  0.
<mgrwt>
<rscale>  2 0.42682035E+03</rscale>
<asrwt>0</asrwt>
<pdfrwt beam="1">  1       21 0.28208045E-01 0.42682035E+03</pdfrwt>
<pdfrwt beam="2">  1       21 0.34917201E-01 0.42682035E+03</pdfrwt>
<totfact> 0.88828235E+04</totfact>
</mgrwt>
</event>
<event>
 7    0  0.4737014E-002  0.4519484E+03  0.7546771E-02  0.1027143E+00
         21   -1    0    0  502  501  0.00000000000E+00  0.00000000000E+00  0.84569567906E+02  0.84569567906E+02  0.00000000000E+00 0. -1.
         21   -1    0    0  501  502 -0.00000000000E+00 -0.00000000000E+00 -0.60381466191E+03  0.60381466191E+03  0.00000000000E+00 0. -1.
      99926    2    1    2    0    0 -0.35527136788E-14  0.00000000000E+00 -0.51924509400E+03  0.68838422982E+03  0.45194842649E+03 0.  0.
      99925    2    3    3    0    0 -0.27591886713E+02  0.93937172673E+02 -0.25043010761E+03  0.37614312164E+03  0.26302643316E+03 0.  0.
         25    1    4    4    0    0 -0.37208803737E+02  0.81644713615E+02 -0.12483638570E+03  0.19819683557E+03  0.12509000000E+03 0.  0.
         25    1    3    3    0    0  0.27591886713E+02 -0.93937172673E+02 -0.26881498640E+03  0.31224110817E+03  0.12509000000E+03 0.  0.
         25    1    4    4    0    0  0.96169170237E+01  0.12292459058E+02 -0.12559372191E+03  0.17794628607E+03  0.12509000000E+03 0.  0.
<mgrwt>
<rscale>  2 0.45194843E+03</rscale>
<asrwt>0</asrwt>
<pdfrwt beam="1">  1       21 0.12436701E-01 0.45194843E+03</pdfrwt>
<pdfrwt beam="2">  1       21 0.88796275E-01 0.45194843E+03</pdfrwt>
<totfact> 0.54843980E+04</totfact>
</mgrwt>
</event>
<event>
 7    0  0.4737014E-002  0.4617943E+03  0.7546771E-02  0.1024262E+00
         21   -1    0    0  502  501  0.00000000000E+00  0.00000000000E+00  0.17759055797E+03  0.17759055797E+03  0.00000000000E+00 0. -1.
         21   -1    0    0  501  502 -0.00000000000E+00 -0.00000000000E+00 -0.30020457982E+03  0.30020457982E+03  0.00000000000E+00 0. -1.
      99926    2    1    2    0    0  0.00000000000E+00 -0.35527136788E-14 -0.12261402185E+03  0.47779513779E+03  0.46179432147E+03 0.  0.
      99925    2    3    3    0    0 -0.11162881476E+03 -0.14024293904E+02 -0.35415312209E+02  0.28829897380E+03  0.26306725537E+03 0.  0.
         25    1    3    3    0    0  0.11162881476E+03  0.14024293904E+02 -0.87198709637E+02  0.18949616399E+03  0.12509000000E+03 0.  0.
         25    1    4    4    0    0 -0.73597669220E+02 -0.23740784554E+02  0.15018967183E+02  0.14782868206E+03  0.12509000000E+03 0.  0.
         25    1    4    4    0    0 -0.38031145540E+02  0.97164906505E+01 -0.50434279392E+02  0.14047029173E+03  0.12509000000E+03 0.  0.
<mgrwt>
<rscale>  2 0.46179432E+03</rscale>
<asrwt>0</asrwt>
<pdfrwt beam="1">  1       21 0.26116259E-01 0.46179432E+03</pdfrwt>
<pdfrwt beam="2">  1       21 0.44147732E-01 0.46179432E+03</pdfrwt>
<totfact> 0.63374613E+04</totfact>
</mgrwt>
</event>
<event>
 7    0  0.4737014E-002  0.4589361E+03  0.7546771E-02  0.1025090E+00
         21   -1    0    0  502  501  0.00000000000E+00  0.00000000000E+00  0.43995615137E+03  0.43995615137E+03  0.00000000000E+00 0.  1.
         21   -1    0    0  501  502 -0.00000000000E+00 -0.00000000000E+00 -0.11968373895E+03  0.11968373895E+03  0.00000000000E+00 0.  1.
      99926    2    1    2    0    0  0.00000000000E+00  0.00000000000E+00  0.32027241241E+03  0.55963989032E+03  0.45893614881E+03 0.  0.
      99925    2    3    3    0    0  0.11840300901E+02 -0.75348039373E+02  0.93003191193E+02  0.28923958193E+03  0.26304452555E+03 0.  0.
         25    1    4    4    0    0  0.26168431291E+02 -0.47835776506E+02  0.11921887991E+02  0.13697696092E+03  0.12509000000E+03 0.  0.
         25    1    3    3    0    0 -0.11840300901E+02  0.75348039373E+02  0.22726922122E+03  0.27040030839E+03  0.12509000000E+03 0.  0.
         25    1    4    4    0    0 -0.14328130390E+02 -0.27512262868E+02  0.81081303201E+02  0.15226262101E+03  0.12509000000E+03 0.  0.
<mgrwt>
<rscale>  2 0.45893615E+03</rscale>
<asrwt>0</asrwt>
<pdfrwt beam="1">  1       21 0.64699433E-01 0.45893615E+03</pdfrwt>
<pdfrwt beam="2">  1       21 0.17600550E-01 0.45893615E+03</pdfrwt>
<totfact> 0.59363956E+04</totfact>
</mgrwt>
</event>
<event>
 7    0  0.4737014E-002  0.4524752E+03  0.7546771E-02  0.1026986E+00
         21   -1    0    0  502  501  0.00000000000E+00  0.00000000000E+00  0.33471194619E+03  0.33471194619E+03  0.00000000000E+00 0.  1.
         21   -1    0    0  501  502 -0.00000000000E+00 -0.00000000000E+00 -0.15291791711E+03  0.15291791711E+03  0.00000000000E+00 0.  1.
      99926    2    1    2    0    0  0.00000000000E+00  0.35527136788E-14  0.18179402908E+03  0.48762986330E+03  0.45247520880E+03 0.  0.
      99925    2    3    3    0    0 -0.41903626054E+02  0.29996148143E+02  0.89333455766E+01  0.26812130588E+03  0.26297062046E+03 0.  0.
         25    1    4    4    0    0 -0.36669178712E+01 -0.22104383159E+02  0.77790204643E+01  0.12731877827E+03  0.12509000000E+03 0.  0.
         25    1    3    3    0    0  0.41903626054E+02 -0.29996148143E+02  0.17286068350E+03  0.21950855742E+03  0.12509000000E+03 0.  0.
         25    1    4    4    0    0 -0.38236708182E+02  0.52100531303E+02  0.11543251123E+01  0.14080252761E+03  0.12509000000E+03 0.  0.
<mgrwt>
<rscale>  2 0.45247521E+03</rscale>
<asrwt>0</asrwt>
<pdfrwt beam="1">  1       21 0.49222345E-01 0.45247521E+03</pdfrwt>
<pdfrwt beam="2">  1       21 0.22487929E-01 0.45247521E+03</pdfrwt>
<totfact> 0.67491408E+04</totfact>
</mgrwt>
</event>
<event>
 7    0  0.4737014E-002  0.4509904E+03  0.7546771E-02  0.1027427E+00
         21   -1    0    0  502  501  0.00000000000E+00  0.00000000000E+00  0.36345929590E+03  0.36345929590E+03  0.00000000000E+00 0. -1.
         21   -1    0    0  501  502 -0.00000000000E+00 -0.00000000000E+00 -0.13990034468E+03  0.13990034468E+03  0.00000000000E+00 0. -1.
      99926    2    1    2    0    0  0.00000000000E+00  0.00000000000E+00  0.22355895122E+03  0.50335964058E+03  0.45099038027E+03 0.  0.
      99925    2    3    3    0    0  0.35781084811E+02  0.83424794022E+02  0.73094640681E+02  0.28765846039E+03  0.26299159882E+03 0.  0.
         25    1    4    4    0    0  0.42743033447E+02  0.53566035185E+02  0.67722096842E+01  0.14279235959E+03  0.12509000000E+03 0.  0.
         25    1    3    3    0    0 -0.35781084811E+02 -0.83424794022E+02  0.15046431054E+03  0.21570118019E+03  0.12509000000E+03 0.  0.
         25    1    4    4    0    0 -0.69619486360E+01  0.29858758837E+02  0.66322430997E+02  0.14486610080E+03  0.12509000000E+03 0.  0.
<mgrwt>
<rscale>  2 0.45099038E+03</rscale>
<asrwt>0</asrwt>
<pdfrwt beam="1">  1       21 0.53449896E-01 0.45099038E+03</pdfrwt>
<pdfrwt beam="2">  1       21 0.20573580E-01 0.45099038E+03</pdfrwt>
<totfact> 0.67146917E+04</totfact>
</mgrwt>
</event>
<event>
 7    0  0.4737014E-002  0.4506361E+03  0.7546771E-02  0.1027533E+00
         21   -1    0    0  502  501  0.00000000000E+00  0.00000000000E+00  0.33537589306E+03  0.33537589306E+03  0.00000000000E+00 0.  1.
         21   -1    0    0  501  502 -0.00000000000E+00 -0.00000000000E+00 -0.15137710499E+03  0.15137710499E+03  0.00000000000E+00 0.  1.
      99926    2    1    2    0    0  0.00000000000E+00  0.00000000000E+00  0.18399878807E+03  0.48675299805E+03  0.45063613603E+03 0.  0.
      99925    2    3    3    0    0 -0.36869232594E+02 -0.73372769788E+02  0.39331614650E+02  0.27862082172E+03  0.26332429194E+03 0.  0.
         25    1    4    4    0    0 -0.69440808069E+01 -0.61097115334E+02 -0.11314543326E+02  0.13984493109E+03  0.12509000000E+03 0.  0.
         25    1    3    3    0    0  0.36869232594E+02  0.73372769788E+02  0.14466717342E+03  0.20813217633E+03  0.12509000000E+03 0.  0.
         25    1    4    4    0    0 -0.29925151787E+02 -0.12275654454E+02  0.50646157977E+02  0.13877589063E+03  0.12509000000E+03 0.  0.
<mgrwt>
<rscale>  2 0.45063614E+03</rscale>
<asrwt>0</asrwt>
<pdfrwt beam="1">  1       21 0.49319984E-01 0.45063614E+03</pdfrwt>
<pdfrwt beam="2">  1       21 0.22261339E-01 0.45063614E+03</pdfrwt>
<totfact> 0.68556121E+04</totfact>
</mgrwt>
</event>
<event>
 7    0  0.4737014E-002  0.4566218E+03  0.7546771E-02  0.1025766E+00
         21   -1    0    0  502  501  0.00000000000E+00  0.00000000000E+00  0.14915379109E+04  0.14915379109E+04  0.00000000000E+00 0.  1.
         21   -1    0    0  501  502 -0.00000000000E+00 -0.00000000000E+00 -0.34947733507E+02  0.34947733507E+02  0.00000000000E+00 0.  1.
      99926    2    1    2    0    0  0.00000000000E+00 -0.14210854715E-13  0.14565901774E+04  0.15264856444E+04  0.45662181036E+03 0.  0.
      99925    2    3    3    0    0 -0.79474132572E+02  0.82795260053E+02  0.90177142557E+03  0.94627658871E+03  0.26282405813E+03 0.  0.
         25    1    3    3    0    0  0.79474132572E+02 -0.82795260053E+02  0.55481875179E+03  0.58020905566E+03  0.12509000000E+03 0.  0.
         25    1    4    4    0    0 -0.16678405619E+02  0.54778049358E+02  0.54287130706E+03  0.56003175627E+03  0.12509000000E+03 0.  0.
         25    1    4    4    0    0 -0.62795726953E+02  0.28017210695E+02  0.35890011851E+03  0.38624483244E+03  0.12509000000E+03 0.  0.
<mgrwt>
<rscale>  2 0.45662181E+03</rscale>
<asrwt>0</asrwt>
<pdfrwt beam="1">  1       21 0.21934377E+00 0.45662181E+03</pdfrwt>
<pdfrwt beam="2">  1       21 0.51393736E-02 0.45662181E+03</pdfrwt>
<totfact> 0.22848250E+04</totfact>
</mgrwt>
</event>
<event>
 7    0  0.4737014E-002  0.4452402E+03  0.7546771E-02  0.1029151E+00
         21   -1    0    0  502  501  0.00000000000E+00  0.00000000000E+00  0.32450961824E+03  0.32450961824E+03  0.00000000000E+00 0. -1.
         21   -1    0    0  501  502 -0.00000000000E+00 -0.00000000000E+00 -0.15272184781E+03  0.15272184781E+03  0.00000000000E+00 0. -1.
      99926    2    1    2    0    0  0.71054273576E-14  0.00000000000E+00  0.17178777044E+03  0.47723146605E+03  0.44524019822E+03 0.  0.
      99925    2    3    3    0    0  0.63681779391E+02 -0.17788871391E+02  0.19495672749E+03  0.33385740409E+03  0.26283231860E+03 0.  0.
         25    1    3    3    0    0 -0.63681779391E+02  0.17788871391E+02 -0.23168957051E+02  0.14337406196E+03  0.12509000000E+03 0.  0.
         25    1    4    4    0    0  0.40690322303E+02 -0.21472455219E+02  0.53565114910E+02  0.14364365039E+03  0.12509000000E+03 0.  0.
         25    1    4    4    0    0  0.22991457089E+02  0.36835838283E+01  0.14139161258E+03  0.19021375370E+03  0.12509000000E+03 0.  0.
<mgrwt>
<rscale>  2 0.44524020E+03</rscale>
<asrwt>0</asrwt>
<pdfrwt beam="1">  1       21 0.47722003E-01 0.44524020E+03</pdfrwt>
<pdfrwt beam="2">  1       21 0.22459095E-01 0.44524020E+03</pdfrwt>
<totfact> 0.72346734E+04</totfact>
</mgrwt>
</event>
<event>
 7    0  0.4737014E-002  0.4551760E+03  0.7546771E-02  0.1026190E+00
         21   -1    0    0  502  501  0.00000000000E+00  0.00000000000E+00  0.86028118891E+02  0.86028118891E+02  0.00000000000E+00 0. -1.
         21   -1    0    0  501  502 -0.00000000000E+00 -0.00000000000E+00 -0.60208566954E+03  0.60208566954E+03  0.00000000000E+00 0. -1.
      99926    2    1    2    0    0  0.00000000000E+00  0.71054273576E-14 -0.51605755065E+03  0.68811378843E+03  0.45517599920E+03 0.  0.
      99925    2    3    3    0    0  0.79798736932E+02  0.55290932995E+02 -0.41191928544E+03  0.49859541975E+03  0.26361898488E+03 0.  0.
         25    1    4    4    0    0  0.12301360632E+02  0.55979955919E+02 -0.22556810445E+03  0.26422255161E+03  0.12509000000E+03 0.  0.
         25    1    4    4    0    0  0.67497376300E+02 -0.68902292392E+00 -0.18635118100E+03  0.23437286814E+03  0.12509000000E+03 0.  0.
         25    1    3    3    0    0 -0.79798736932E+02 -0.55290932995E+02 -0.10413826521E+03  0.18951836868E+03  0.12509000000E+03 0.  0.
<mgrwt>
<rscale>  2 0.45517600E+03</rscale>
<asrwt>0</asrwt>
<pdfrwt beam="1">  1       21 0.12651195E-01 0.45517600E+03</pdfrwt>
<pdfrwt beam="2">  1       21 0.88542006E-01 0.45517600E+03</pdfrwt>
<totfact> 0.53479076E+04</totfact>
</mgrwt>
</event>
<event>
 6    0  0.4737014E-002  0.4554037E+03  0.7546771E-02  0.1026123E+00
         21   -1    0    0  502  501  0.00000000000E+00  0.00000000000E+00  0.17773196189E+03  0.17773196189E+03  0.00000000000E+00 0. -1.
         21   -1    0    0  501  502 -0.00000000000E+00 -0.00000000000E+00 -0.29172098611E+03  0.29172098611E+03  0.00000000000E+00 0. -1.
      99926    2    1    2    0    0  0.71054273576E-14  0.00000000000E+00 -0.11398902421E+03  0.46945294800E+03  0.45540374696E+03 0.  0.
         25    1    3    3    0    0 -0.23734624710E+02 -0.51636806920E+02 -0.46526457722E+02  0.14505830416E+03  0.12509000000E+03 0.  0.
         25    1    3    3    0    0  0.65900831567E+02 -0.35733473631E+02 -0.78667248301E+02  0.16569805308E+03  0.12509000000E+03 0.  0.
         25    1    3    3    0    0 -0.42166206857E+02  0.87370280551E+02  0.11204681809E+02  0.15869659076E+03  0.12509000000E+03 0.  0.
<mgrwt>
<rscale>  2 0.45540375E+03</rscale>
<asrwt>0</asrwt>
<pdfrwt beam="1">  1       21 0.26137054E-01 0.45540375E+03</pdfrwt>
<pdfrwt beam="2">  1       21 0.42900144E-01 0.45540375E+03</pdfrwt>
<totfact> 0.67260773E+04</totfact>
</mgrwt>
</event>
<event>
 7    0  0.4737014E-002  0.4542519E+03  0.7546771E-02  0.1026462E+00
         21   -1    0    0  502  501  0.00000000000E+00  0.00000000000E+00  0.16801646921E+03  0.16801646921E+03  0.00000000000E+00 0.  1.
         21   -1    0    0  501  502 -0.00000000000E+00 -0.00000000000E+00 -0.30703054344E+03  0.30703054344E+03  0.00000000000E+00 0.  1.
      99926    2    1    2    0    0  0.00000000000E+00 -0.35527136788E-14 -0.13901407423E+03  0.47504701266E+03  0.45425185900E+03 0.  0.
      99925    2    3    3    0    0  0.83135704716E+02 -0.20762314124E+02 -0.16374541773E+03  0.32141834822E+03  0.26297257206E+03 0.  0.
         25    1    4    4    0    0  0.14738221146E+02 -0.37200475399E+02 -0.96242739202E+02  0.16282279779E+03  0.12509000000E+03 0.  0.
         25    1    4    4    0    0  0.68397483570E+02  0.16438161275E+02 -0.67502678533E+02  0.15859555042E+03  0.12509000000E+03 0.  0.
         25    1    3    3    0    0 -0.83135704716E+02  0.20762314124E+02  0.24731343505E+02  0.15362866444E+03  0.12509000000E+03 0.  0.
<mgrwt>
<rscale>  2 0.45425186E+03</rscale>
<asrwt>0</asrwt>
<pdfrwt beam="1">  1       21 0.24708304E-01 0.45425186E+03</pdfrwt>
<pdfrwt beam="2">  1       21 0.45151550E-01 0.45425186E+03</pdfrwt>
<totfact> 0.67462099E+04</totfact>
</mgrwt>
</event>
<event>
 7    0  0.4737014E-002  0.4511670E+03  0.7546771E-02  0.1027375E+00
         21   -1    0    0  502  501  0.00000000000E+00  0.00000000000E+00  0.60365739986E+02  0.60365739986E+02  0.00000000000E+00 0. -1.
         21   -1    0    0  501  502 -0.00000000000E+00 -0.00000000000E+00 -0.84299334217E+03  0.84299334217E+03  0.00000000000E+00 0. -1.
      99926    2    1    2    0    0  0.14210854715E-13  0.17763568394E-14 -0.78262760218E+03  0.90335908215E+03  0.45116700634E+03 0.  0.
      99925    2    3    3    0    0 -0.10732868481E+03 -0.15989028067E+02 -0.52468943341E+03  0.59683876862E+03  0.26294946015E+03 0.  0.
         25    1    4    4    0    0 -0.82884968390E+02  0.15726655793E+02 -0.24295407340E+03  0.28599202011E+03  0.12509000000E+03 0.  0.
         25    1    3    3    0    0  0.10732868481E+03  0.15989028067E+02 -0.25793816877E+03  0.30652031353E+03  0.12509000000E+03 0.  0.
         25    1    4    4    0    0 -0.24443716417E+02 -0.31715683860E+02 -0.28173536002E+03  0.31084674851E+03  0.12509000000E+03 0.  0.
<mgrwt>
<rscale>  2 0.45116701E+03</rscale>
<asrwt>0</asrwt>
<pdfrwt beam="1">  1       21 0.88773152E-02 0.45116701E+03</pdfrwt>
<pdfrwt beam="2">  1       21 0.12396960E+00 0.45116701E+03</pdfrwt>
<totfact> 0.44406312E+04</totfact>
</mgrwt>
</event>
<event>
 6    0  0.4737014E-002  0.4575159E+03  0.7546771E-02  0.1025504E+00
         21   -1    0    0  502  501  0.00000000000E+00  0.00000000000E+00  0.14570702802E+03  0.14570702802E+03  0.00000000000E+00 0. -1.
         21   -1    0    0  501  502 -0.00000000000E+00 -0.00000000000E+00 -0.35914677350E+03  0.35914677350E+03  0.00000000000E+00 0. -1.
      99926    2    1    2    0    0  0.00000000000E+00  0.00000000000E+00 -0.21343974549E+03  0.50485380152E+03  0.45751594065E+03 0.  0.
         25    1    3    3    0    0  0.43781120019E+02  0.58241377271E+01 -0.24701746940E+01  0.13268126060E+03  0.12509000000E+03 0.  0.
         25    1    3    3    0    0 -0.60872023486E+02  0.59744923865E+02 -0.16195531309E+03  0.22170225689E+03  0.12509000000E+03 0.  0.
         25    1    3    3    0    0  0.17090903467E+02 -0.65569061592E+02 -0.49014257705E+02  0.15047028404E+03  0.12509000000E+03 0.  0.
<mgrwt>
<rscale>  2 0.45751594E+03</rscale>
<asrwt>0</asrwt>
<pdfrwt beam="1">  1       21 0.21427504E-01 0.45751594E+03</pdfrwt>
<pdfrwt beam="2">  1       21 0.52815702E-01 0.45751594E+03</pdfrwt>
<totfact> 0.63650343E+04</totfact>
</mgrwt>
</event>
<event>
 7    0  0.4737014E-002  0.4547569E+03  0.7546771E-02  0.1026313E+00
         21   -1    0    0  502  501  0.00000000000E+00  0.00000000000E+00  0.48912048930E+02  0.48912048930E+02  0.00000000000E+00 0.  1.
         21   -1    0    0  501  502 -0.00000000000E+00 -0.00000000000E+00 -0.10570186915E+04  0.10570186915E+04  0.00000000000E+00 0.  1.
      99926    2    1    2    0    0 -0.35527136788E-14  0.00000000000E+00 -0.10081066425E+04  0.11059307404E+04  0.45475685792E+03 0.  0.
      99925    2    3    3    0    0  0.24529642656E+02 -0.10658439680E+03 -0.70658533135E+03  0.76165679975E+03  0.26248107191E+03 0.  0.
         25    1    4    4    0    0 -0.16702505130E+02 -0.66508047322E+02 -0.42327613176E+03  0.44666820556E+03  0.12509000000E+03 0.  0.
         25    1    4    4    0    0  0.41232147786E+02 -0.40076349475E+02 -0.28330919959E+03  0.31498859419E+03  0.12509000000E+03 0.  0.
         25    1    3    3    0    0 -0.24529642656E+02  0.10658439680E+03 -0.30152131117E+03  0.34427394063E+03  0.12509000000E+03 0.  0.
<mgrwt>
<rscale>  2 0.45475686E+03</rscale>
<asrwt>0</asrwt>
<pdfrwt beam="1">  1       21 0.71929488E-02 0.45475686E+03</pdfrwt>
<pdfrwt beam="2">  1       21 0.15544392E+00 0.45475686E+03</pdfrwt>
<totfact> 0.35355111E+04</totfact>
</mgrwt>
</event>
<event>
 7    0  0.4737014E-002  0.4098082E+03  0.7546771E-02  0.1040435E+00
         21   -1    0    0  502  501  0.00000000000E+00  0.00000000000E+00  0.47822177258E+03  0.47822177258E+03  0.00000000000E+00 0.  1.
         21   -1    0    0  501  502 -0.00000000000E+00 -0.00000000000E+00 -0.87795446124E+02  0.87795446124E+02  0.00000000000E+00 0.  1.
      99926    2    1    2    0    0 -0.44408920985E-15  0.00000000000E+00  0.39042632646E+03  0.56601721871E+03  0.40980821793E+03 0.  0.
      99925    2    3    3    0    0 -0.34002153085E+01  0.33249149270E+02  0.18589615061E+03  0.32394869882E+03  0.26318874075E+03 0.  0.
         25    1    3    3    0    0  0.34002153085E+01 -0.33249149270E+02  0.20453017585E+03  0.24206851989E+03  0.12509000000E+03 0.  0.
         25    1    4    4    0    0 -0.14056006857E+02  0.35652895447E+02  0.13634077953E+03  0.18895771099E+03  0.12509000000E+03 0.  0.
         25    1    4    4    0    0  0.10655791548E+02 -0.24037461771E+01  0.49555371088E+02  0.13499098782E+03  0.12509000000E+03 0.  0.
<mgrwt>
<rscale>  2 0.40980822E+03</rscale>
<asrwt>0</asrwt>
<pdfrwt beam="1">  1       21 0.70326730E-01 0.40980822E+03</pdfrwt>
<pdfrwt beam="2">  1       21 0.12911095E-01 0.40980822E+03</pdfrwt>
<totfact> 0.88435304E+04</totfact>
</mgrwt>
</event>
<event>
 7    0  0.4737014E-002  0.4470284E+03  0.7546771E-02  0.1028612E+00
         21   -1    0    0  502  501  0.00000000000E+00  0.00000000000E+00  0.25444060644E+03  0.25444060644E+03  0.00000000000E+00 0. -1.
         21   -1    0    0  501  502 -0.00000000000E+00 -0.00000000000E+00 -0.19634680658E+03  0.19634680658E+03  0.00000000000E+00 0. -1.
      99926    2    1    2    0    0  0.00000000000E+00 -0.88817841970E-15  0.58093799864E+02  0.45078741301E+03  0.44702841313E+03 0.  0.
      99925    2    3    3    0    0 -0.28738162140E+02 -0.70698710494E+01 -0.64915892642E+02  0.27286957358E+03  0.26337780094E+03 0.  0.
         25    1    4    4    0    0  0.26184997791E+02  0.41222760394E+01 -0.27710257213E+02  0.13083582737E+03  0.12509000000E+03 0.  0.
         25    1    4    4    0    0 -0.54923159931E+02 -0.11192147089E+02 -0.37205635430E+02  0.14203374620E+03  0.12509000000E+03 0.  0.
         25    1    3    3    0    0  0.28738162140E+02  0.70698710494E+01  0.12300969251E+03  0.17791783944E+03  0.12509000000E+03 0.  0.
<mgrwt>
<rscale>  2 0.44702841E+03</rscale>
<asrwt>0</asrwt>
<pdfrwt beam="1">  1       21 0.37417736E-01 0.44702841E+03</pdfrwt>
<pdfrwt beam="2">  1       21 0.28874531E-01 0.44702841E+03</pdfrwt>
<totfact> 0.73414501E+04</totfact>
</mgrwt>
</event>
<event>
 7    0  0.4737014E-002  0.4512428E+03  0.7546771E-02  0.1027352E+00
         21   -1    0    0  502  501  0.00000000000E+00  0.00000000000E+00  0.47654423510E+03  0.47654423510E+03  0.00000000000E+00 0. -1.
         21   -1    0    0  501  502 -0.00000000000E+00 -0.00000000000E+00 -0.10682119499E+03  0.10682119499E+03  0.00000000000E+00 0. -1.
      99926    2    1    2    0    0  0.14210854715E-13  0.00000000000E+00  0.36972304011E+03  0.58336543009E+03  0.45124283776E+03 0.  0.
      99925    2    3    3    0    0 -0.76831517623E+02 -0.41280879611E+02  0.14813136199E+03  0.31437179998E+03  0.26321005889E+03 0.  0.
         25    1    3    3    0    0  0.76831517623E+02  0.41280879611E+02  0.22159167813E+03  0.26899363011E+03  0.12509000000E+03 0.  0.
         25    1    4    4    0    0 -0.63698854149E+02 -0.22375530211E+01  0.46078048200E+02  0.14776077047E+03  0.12509000000E+03 0.  0.
         25    1    4    4    0    0 -0.13132663474E+02 -0.39043326589E+02  0.10205331378E+03  0.16661102951E+03  0.12509000000E+03 0.  0.
<mgrwt>
<rscale>  2 0.45124284E+03</rscale>
<asrwt>0</asrwt>
<pdfrwt beam="1">  1       21 0.70080034E-01 0.45124284E+03</pdfrwt>
<pdfrwt beam="2">  1       21 0.15708999E-01 0.45124284E+03</pdfrwt>
<totfact> 0.61520937E+04</totfact>
</mgrwt>
</event>
<event>
 7    0  0.4737014E-002  0.4510452E+03  0.7546771E-02  0.1027411E+00
         21   -1    0    0  502  501  0.00000000000E+00  0.00000000000E+00  0.17802310074E+03  0.17802310074E+03  0.00000000000E+00 0. -1.
         21   -1    0    0  501  502 -0.00000000000E+00 -0.00000000000E+00 -0.28569577946E+03  0.28569577946E+03  0.00000000000E+00 0. -1.
      99926    2    1    2    0    0  0.00000000000E+00  0.00000000000E+00 -0.10767267873E+03  0.46371888020E+03  0.45104522402E+03 0.  0.
      99925    2    3    3    0    0 -0.72460011972E+02 -0.80936204860E+02 -0.54465717695E+02  0.28970850294E+03  0.26298931477E+03 0.  0.
         25    1    3    3    0    0  0.72460011972E+02  0.80936204860E+02 -0.53206961031E+02  0.17401037726E+03  0.12509000000E+03 0.  0.
         25    1    4    4    0    0 -0.77469835448E+02 -0.44868808075E+02 -0.37460460614E+02  0.15832112794E+03  0.12509000000E+03 0.  0.
         25    1    4    4    0    0  0.50098234764E+01 -0.36067396785E+02 -0.17005257080E+02  0.13138737500E+03  0.12509000000E+03 0.  0.
<mgrwt>
<rscale>  2 0.45104522E+03</rscale>
<asrwt>0</asrwt>
<pdfrwt beam="1">  1       21 0.26179868E-01 0.45104522E+03</pdfrwt>
<pdfrwt beam="2">  1       21 0.42014085E-01 0.45104522E+03</pdfrwt>
<totfact> 0.70078638E+04</totfact>
</mgrwt>
</event>
<event>
 7    0  0.4737014E-002  0.4549139E+03  0.7546771E-02  0.1026267E+00
         21   -1    0    0  502  501  0.00000000000E+00  0.00000000000E+00  0.51303891916E+03  0.51303891916E+03  0.00000000000E+00 0.  1.
         21   -1    0    0  501  502 -0.00000000000E+00 -0.00000000000E+00 -0.10084356169E+03  0.10084356169E+03  0.00000000000E+00 0.  1.
      99926    2    1    2    0    0 -0.71054273576E-14  0.71054273576E-14  0.41219535747E+03  0.61388248085E+03  0.45491393425E+03 0.  0.
      99925    2    3    3    0    0 -0.46207462196E+02  0.48744703367E+02  0.13652621265E+03  0.30379836133E+03  0.26295030317E+03 0.  0.
         25    1    4    4    0    0 -0.20320994797E+02  0.28317349984E+02  0.11336618294E+03  0.17237811541E+03  0.12509000000E+03 0.  0.
         25    1    4    4    0    0 -0.25886467399E+02  0.20427353383E+02  0.23160029709E+02  0.13142024592E+03  0.12509000000E+03 0.  0.
         25    1    3    3    0    0  0.46207462196E+02 -0.48744703367E+02  0.27566914483E+03  0.31008411952E+03  0.12509000000E+03 0.  0.
<mgrwt>
<rscale>  2 0.45491393E+03</rscale>
<asrwt>0</asrwt>
<pdfrwt beam="1">  1       21 0.75446899E-01 0.45491393E+03</pdfrwt>
<pdfrwt beam="2">  1       21 0.14829936E-01 0.45491393E+03</pdfrwt>
<totfact> 0.57871130E+04</totfact>
</mgrwt>
</event>
<event>
 7    0  0.4737014E-002  0.4594226E+03  0.7546771E-02  0.1024949E+00
         21   -1    0    0  502  501  0.00000000000E+00  0.00000000000E+00  0.24039302402E+03  0.24039302402E+03  0.00000000000E+00 0.  1.
         21   -1    0    0  501  502 -0.00000000000E+00 -0.00000000000E+00 -0.21950420494E+03  0.21950420494E+03  0.00000000000E+00 0.  1.
      99926    2    1    2    0    0  0.00000000000E+00  0.00000000000E+00  0.20888819080E+02  0.45989722895E+03  0.45942259243E+03 0.  0.
      99925    2    3    3    0    0 -0.11004896031E+03 -0.24070650184E+02  0.46319821717E+02  0.28964913392E+03  0.26279445396E+03 0.  0.
         25    1    4    4    0    0 -0.31422766657E+02 -0.22088380137E+02 -0.10646849996E+02  0.13128651993E+03  0.12509000000E+03 0.  0.
         25    1    4    4    0    0 -0.78626193655E+02 -0.19822700473E+01  0.56966671713E+02  0.15836261399E+03  0.12509000000E+03 0.  0.
         25    1    3    3    0    0  0.11004896031E+03  0.24070650184E+02 -0.25431002638E+02  0.17024809503E+03  0.12509000000E+03 0.  0.
<mgrwt>
<rscale>  2 0.45942259E+03</rscale>
<asrwt>0</asrwt>
<pdfrwt beam="1">  1       21 0.35351915E-01 0.45942259E+03</pdfrwt>
<pdfrwt beam="2">  1       21 0.32280030E-01 0.45942259E+03</pdfrwt>
<totfact> 0.65834552E+04</totfact>
</mgrwt>
</event>
<event>
 7    0  0.4737014E-002  0.4478578E+03  0.7546771E-02  0.1028363E+00
         21   -1    0    0  502  501  0.00000000000E+00  0.00000000000E+00  0.34521412448E+03  0.34521412448E+03  0.00000000000E+00 0.  1.
         21   -1    0    0  501  502 -0.00000000000E+00 -0.00000000000E+00 -0.14525518796E+03  0.14525518796E+03  0.00000000000E+00 0.  1.
      99926    2    1    2    0    0  0.00000000000E+00  0.00000000000E+00  0.19995893651E+03  0.49046931244E+03  0.44785775661E+03 0.  0.
      99925    2    3    3    0    0  0.88508883439E+02 -0.29621391096E+02  0.71353202732E+02  0.28823629803E+03  0.26320644882E+03 0.  0.
         25    1    4    4    0    0  0.54201554409E+02 -0.30229079172E+01  0.75296680212E+02  0.15576920307E+03  0.12509000000E+03 0.  0.
         25    1    3    3    0    0 -0.88508883439E+02  0.29621391096E+02  0.12860573378E+03  0.20223301442E+03  0.12509000000E+03 0.  0.
         25    1    4    4    0    0  0.34307329030E+02 -0.26598483179E+02 -0.39434774800E+01  0.13246709496E+03  0.12509000000E+03 0.  0.
<mgrwt>
<rscale>  2 0.44785776E+03</rscale>
<asrwt>0</asrwt>
<pdfrwt beam="1">  1       21 0.50766783E-01 0.44785776E+03</pdfrwt>
<pdfrwt beam="2">  1       21 0.21361057E-01 0.44785776E+03</pdfrwt>
<totfact> 0.69821151E+04</totfact>
</mgrwt>
</event>
<event>
 7    0  0.4737014E-002  0.4592036E+03  0.7546771E-02  0.1025012E+00
         21   -1    0    0  502  501  0.00000000000E+00  0.00000000000E+00  0.72365420181E+02  0.72365420181E+02  0.00000000000E+00 0. -1.
         21   -1    0    0  501  502 -0.00000000000E+00 -0.00000000000E+00 -0.72848322840E+03  0.72848322840E+03  0.00000000000E+00 0. -1.
      99926    2    1    2    0    0  0.00000000000E+00  0.00000000000E+00 -0.65611780822E+03  0.80084864859E+03  0.45920363639E+03 0.  0.
      99925    2    3    3    0    0 -0.97222184833E+02 -0.53661096379E+02 -0.47653306521E+03  0.55543093425E+03  0.26284614129E+03 0.  0.
         25    1    3    3    0    0  0.97222184833E+02  0.53661096379E+02 -0.17958474301E+03  0.24541771434E+03  0.12509000000E+03 0.  0.
         25    1    4    4    0    0 -0.72634720890E+02 -0.35364251419E+02 -0.19093134273E+03  0.24213367939E+03  0.12509000000E+03 0.  0.
         25    1    4    4    0    0 -0.24587463943E+02 -0.18296844960E+02 -0.28560172248E+03  0.31329725486E+03  0.12509000000E+03 0.  0.
<mgrwt>
<rscale>  2 0.45920364E+03</rscale>
<asrwt>0</asrwt>
<pdfrwt beam="1">  1       21 0.10641974E-01 0.45920364E+03</pdfrwt>
<pdfrwt beam="2">  1       21 0.10712988E+00 0.45920364E+03</pdfrwt>
<totfact> 0.46181359E+04</totfact>
</mgrwt>
</event>
<event>
 7    0  0.4737014E-002  0.4533297E+03  0.7546771E-02  0.1026734E+00
         21   -1    0    0  502  501  0.00000000000E+00  0.00000000000E+00  0.13117880028E+03  0.13117880028E+03  0.00000000000E+00 0.  1.
         21   -1    0    0  501  502 -0.00000000000E+00 -0.00000000000E+00 -0.39165595109E+03  0.39165595109E+03  0.00000000000E+00 0.  1.
      99926    2    1    2    0    0  0.00000000000E+00  0.00000000000E+00 -0.26047715081E+03  0.52283475138E+03  0.45332971572E+03 0.  0.
      99925    2    3    3    0    0  0.54143409798E+02  0.93896331631E+02 -0.19422912557E+03  0.34455312342E+03  0.26314230317E+03 0.  0.
         25    1    4    4    0    0 -0.30251191207E+01  0.46381279067E+02 -0.59000944440E+02  0.14590748418E+03  0.12509000000E+03 0.  0.
         25    1    4    4    0    0  0.57168528919E+02  0.47515052565E+02 -0.13522818113E+03  0.19864563924E+03  0.12509000000E+03 0.  0.
         25    1    3    3    0    0 -0.54143409798E+02 -0.93896331631E+02 -0.66248025245E+02  0.17828162796E+03  0.12509000000E+03 0.  0.
<mgrwt>
<rscale>  2 0.45332972E+03</rscale>
<asrwt>0</asrwt>
<pdfrwt beam="1">  1       21 0.19291000E-01 0.45332972E+03</pdfrwt>
<pdfrwt beam="2">  1       21 0.57596464E-01 0.45332972E+03</pdfrwt>
<totfact> 0.64544572E+04</totfact>
</mgrwt>
</event>
<event>
 7    0  0.4737014E-002  0.4540617E+03  0.7546771E-02  0.1026518E+00
         21   -1    0    0  502  501  0.00000000000E+00  0.00000000000E+00  0.72842172563E+02  0.72842172563E+02  0.00000000000E+00 0.  1.
         21   -1    0    0  501  502 -0.00000000000E+00 -0.00000000000E+00 -0.70759829505E+03  0.70759829505E+03  0.00000000000E+00 0.  1.
      99926    2    1    2    0    0  0.00000000000E+00  0.00000000000E+00 -0.63475612249E+03  0.78044046761E+03  0.45406165711E+03 0.  0.
      99925    2    3    3    0    0  0.46777701756E+02  0.55949357962E+02 -0.54655200652E+03  0.61089413704E+03  0.26297160836E+03 0.  0.
         25    1    4    4    0    0  0.61519742611E+02  0.35365847193E+02 -0.25796250459E+03  0.29534316270E+03  0.12509000000E+03 0.  0.
         25    1    3    3    0    0 -0.46777701756E+02 -0.55949357962E+02 -0.88204115973E+02  0.16954633058E+03  0.12509000000E+03 0.  0.
         25    1    4    4    0    0 -0.14742040855E+02  0.20583510769E+02 -0.28858950192E+03  0.31555097433E+03  0.12509000000E+03 0.  0.
<mgrwt>
<rscale>  2 0.45406166E+03</rscale>
<asrwt>0</asrwt>
<pdfrwt beam="1">  1       21 0.10712085E-01 0.45406166E+03</pdfrwt>
<pdfrwt beam="2">  1       21 0.10405857E+00 0.45406166E+03</pdfrwt>
<totfact> 0.49086004E+04</totfact>
</mgrwt>
</event>
<event>
 7    0  0.4737014E-002  0.4448901E+03  0.7546771E-02  0.1029257E+00
         21   -1    0    0  502  501  0.00000000000E+00  0.00000000000E+00  0.91260404267E+02  0.91260404267E+02  0.00000000000E+00 0.  1.
         21   -1    0    0  501  502 -0.00000000000E+00 -0.00000000000E+00 -0.54220436189E+03  0.54220436189E+03  0.00000000000E+00 0.  1.
      99926    2    1    2    0    0  0.88817841970E-15  0.00000000000E+00 -0.45094395762E+03  0.63346476615E+03  0.44489005051E+03 0.  0.
      99925    2    3    3    0    0 -0.67080103466E+01 -0.64168762930E+02 -0.40141045598E+03  0.48425450034E+03  0.26307686974E+03 0.  0.
         25    1    4    4    0    0  0.15694372448E+02 -0.63957160524E+02 -0.24348643057E+03  0.28154925267E+03  0.12509000000E+03 0.  0.
         25    1    3    3    0    0  0.67080103466E+01  0.64168762930E+02 -0.49533501638E+02  0.14921026581E+03  0.12509000000E+03 0.  0.
         25    1    4    4    0    0 -0.22402382795E+02 -0.21160240599E+00 -0.15792402541E+03  0.20270524767E+03  0.12509000000E+03 0.  0.
<mgrwt>
<rscale>  2 0.44489005E+03</rscale>
<asrwt>0</asrwt>
<pdfrwt beam="1">  1       21 0.13420648E-01 0.44489005E+03</pdfrwt>
<pdfrwt beam="2">  1       21 0.79735937E-01 0.44489005E+03</pdfrwt>
<totfact> 0.61420482E+04</totfact>
</mgrwt>
</event>
<event>
 7    0  0.4737014E-002  0.4632087E+03  0.7546771E-02  0.1023855E+00
         21   -1    0    0  502  501  0.00000000000E+00  0.00000000000E+00  0.50620746283E+02  0.50620746283E+02  0.00000000000E+00 0.  1.
         21   -1    0    0  501  502 -0.00000000000E+00 -0.00000000000E+00 -0.10596559504E+04  0.10596559504E+04  0.00000000000E+00 0.  1.
      99926    2    1    2    0    0  0.00000000000E+00  0.00000000000E+00 -0.10090352042E+04  0.11102766967E+04  0.46320870032E+03 0.  0.
      99925    2    3    3    0    0  0.43043759163E+02 -0.10466745959E+03 -0.73110448930E+03  0.78515974444E+03  0.26297149602E+03 0.  0.
         25    1    4    4    0    0  0.32340765157E+02 -0.94397320642E+02 -0.42712285323E+03  0.45611206856E+03  0.12509000000E+03 0.  0.
         25    1    4    4    0    0  0.10702994006E+02 -0.10270138946E+02 -0.30398163606E+03  0.32904767588E+03  0.12509000000E+03 0.  0.
         25    1    3    3    0    0 -0.43043759163E+02  0.10466745959E+03 -0.27793071485E+03  0.32511695228E+03  0.12509000000E+03 0.  0.
<mgrwt>
<rscale>  2 0.46320870E+03</rscale>
<asrwt>0</asrwt>
<pdfrwt beam="1">  1       21 0.74442269E-02 0.46320870E+03</pdfrwt>
<pdfrwt beam="2">  1       21 0.15583177E+00 0.46320870E+03</pdfrwt>
<totfact> 0.32974935E+04</totfact>
</mgrwt>
</event>
<event>
 7    0  0.4737014E-002  0.4309427E+03  0.7546771E-02  0.1033563E+00
         21   -1    0    0  502  501  0.00000000000E+00  0.00000000000E+00  0.52835044230E+02  0.52835044230E+02  0.00000000000E+00 0.  1.
         21   -1    0    0  501  502 -0.00000000000E+00 -0.00000000000E+00 -0.87873301615E+03  0.87873301615E+03  0.00000000000E+00 0.  1.
      99926    2    1    2    0    0  0.00000000000E+00  0.00000000000E+00 -0.82589797192E+03  0.93156806038E+03  0.43094267728E+03 0.  0.
      99925    2    3    3    0    0 -0.12088334160E+02  0.65231837485E+02 -0.40433722016E+03  0.48686333141E+03  0.26295626142E+03 0.  0.
         25    1    4    4    0    0 -0.74024273572E+01  0.33675315552E+02 -0.27525468335E+03  0.30430489910E+03  0.12509000000E+03 0.  0.
         25    1    4    4    0    0 -0.46859068026E+01  0.31556521933E+02 -0.12908253681E+03  0.18255843231E+03  0.12509000000E+03 0.  0.
         25    1    3    3    0    0  0.12088334160E+02 -0.65231837485E+02 -0.42156075176E+03  0.44470472897E+03  0.12509000000E+03 0.  0.
<mgrwt>
<rscale>  2 0.43094268E+03</rscale>
<asrwt>0</asrwt>
<pdfrwt beam="1">  1       21 0.77698599E-02 0.43094268E+03</pdfrwt>
<pdfrwt beam="2">  1       21 0.12922544E+00 0.43094268E+03</pdfrwt>
<totfact> 0.50802666E+04</totfact>
</mgrwt>
</event>
<event>
 7    0  0.4737014E-002  0.4569711E+03  0.7546771E-02  0.1025663E+00
         21   -1    0    0  502  501  0.00000000000E+00  0.00000000000E+00  0.22454439855E+04  0.22454439855E+04  0.00000000000E+00 0.  1.
         21   -1    0    0  501  502 -0.00000000000E+00 -0.00000000000E+00 -0.23249591134E+02  0.23249591134E+02  0.00000000000E+00 0.  1.
      99926    2    1    2    0    0  0.00000000000E+00  0.00000000000E+00  0.22221943943E+04  0.22686935766E+04  0.45697113510E+03 0.  0.
      99925    2    3    3    0    0 -0.98676940299E+02 -0.60665709238E+02  0.14086382964E+04  0.14374664720E+04  0.26197431409E+03 0.  0.
         25    1    4    4    0    0 -0.62119597246E+02  0.55605487612E+01  0.64700276645E+03  0.66192888739E+03  0.12509000000E+03 0.  0.
         25    1    3    3    0    0  0.98676940299E+02  0.60665709238E+02  0.81355609792E+03  0.83122710458E+03  0.12509000000E+03 0.  0.
         25    1    4    4    0    0 -0.36557343053E+02 -0.66226257999E+02  0.76163552996E+03  0.77553758463E+03  0.12509000000E+03 0.  0.
<mgrwt>
<rscale>  2 0.45697114E+03</rscale>
<asrwt>0</asrwt>
<pdfrwt beam="1">  1       21 0.33021220E+00 0.45697114E+03</pdfrwt>
<pdfrwt beam="2">  1       21 0.34190591E-02 0.45697114E+03</pdfrwt>
<totfact> 0.96493173E+03</totfact>
</mgrwt>
</event>
<event>
 7    0  0.4737014E-002  0.4549502E+03  0.7546771E-02  0.1026256E+00
         21   -1    0    0  502  501  0.00000000000E+00  0.00000000000E+00  0.12826919304E+04  0.12826919304E+04  0.00000000000E+00 0.  1.
         21   -1    0    0  501  502 -0.00000000000E+00 -0.00000000000E+00 -0.40340879716E+02  0.40340879716E+02  0.00000000000E+00 0.  1.
      99926    2    1    2    0    0  0.00000000000E+00  0.14210854715E-13  0.12423510507E+04  0.13230328101E+04  0.45495019893E+03 0.  0.
      99925    2    3    3    0    0 -0.39992473283E+02  0.89692356554E+02  0.94362346807E+03  0.98461030280E+03  0.26341617670E+03 0.  0.
         25    1    3    3    0    0  0.39992473283E+02 -0.89692356554E+02  0.29872758263E+03  0.33842250733E+03  0.12509000000E+03 0.  0.
         25    1    4    4    0    0 -0.24538545833E+02  0.60849727082E+01  0.37042705259E+03  0.39179443145E+03  0.12509000000E+03 0.  0.
         25    1    4    4    0    0 -0.15453927450E+02  0.83607383846E+02  0.57319641548E+03  0.59281587135E+03  0.12509000000E+03 0.  0.
<mgrwt>
<rscale>  2 0.45495020E+03</rscale>
<asrwt>0</asrwt>
<pdfrwt beam="1">  1       21 0.18863114E+00 0.45495020E+03</pdfrwt>
<pdfrwt beam="2">  1       21 0.59324832E-02 0.45495020E+03</pdfrwt>
<totfact> 0.28464092E+04</totfact>
</mgrwt>
</event>
<event>
 7    0  0.4737014E-002  0.4564592E+03  0.7546771E-02  0.1025813E+00
         21   -1    0    0  502  501  0.00000000000E+00  0.00000000000E+00  0.10688364551E+04  0.10688364551E+04  0.00000000000E+00 0. -1.
         21   -1    0    0  501  502 -0.00000000000E+00 -0.00000000000E+00 -0.48734071133E+02  0.48734071133E+02  0.00000000000E+00 0. -1.
      99926    2    1    2    0    0  0.00000000000E+00  0.00000000000E+00  0.10201023840E+04  0.11175705263E+04  0.45645920665E+03 0.  0.
      99925    2    3    3    0    0  0.48841608085E+02  0.99491446081E+02  0.71175925739E+03  0.76684692804E+03  0.26299984799E+03 0.  0.
         25    1    3    3    0    0 -0.48841608085E+02 -0.99491446081E+02  0.30834312660E+03  0.35072359822E+03  0.12509000000E+03 0.  0.
         25    1    4    4    0    0  0.17634382379E+02  0.63895690077E+02  0.46627427706E+03  0.48729132991E+03  0.12509000000E+03 0.  0.
         25    1    4    4    0    0  0.31207225707E+02  0.35595756003E+02  0.24548498032E+03  0.27955559813E+03  0.12509000000E+03 0.  0.
<mgrwt>
<rscale>  2 0.45645921E+03</rscale>
<asrwt>0</asrwt>
<pdfrwt beam="1">  1       21 0.15718182E+00 0.45645921E+03</pdfrwt>
<pdfrwt beam="2">  1       21 0.71667759E-02 0.45645921E+03</pdfrwt>
<totfact> 0.34489674E+04</totfact>
</mgrwt>
</event>
<event>
 7    0  0.4737014E-002  0.4747064E+03  0.7546771E-02  0.1020600E+00
         21   -1    0    0  502  501  0.00000000000E+00  0.00000000000E+00  0.82252824666E+02  0.82252824666E+02  0.00000000000E+00 0. -1.
         21   -1    0    0  501  502 -0.00000000000E+00 -0.00000000000E+00 -0.68491924140E+03  0.68491924140E+03  0.00000000000E+00 0. -1.
      99926    2    1    2    0    0 -0.35527136788E-14  0.00000000000E+00 -0.60266641674E+03  0.76717206607E+03  0.47470640305E+03 0.  0.
      99925    2    3    3    0    0  0.30372371069E+02  0.67618950760E+02 -0.19877720675E+03  0.33790664064E+03  0.26300896646E+03 0.  0.
         25    1    3    3    0    0 -0.30372371069E+02 -0.67618950760E+02 -0.40388920999E+03  0.42926542543E+03  0.12509000000E+03 0.  0.
         25    1    4    4    0    0  0.38516037329E+02  0.44854611304E+02 -0.64002199805E+02  0.15244412408E+03  0.12509000000E+03 0.  0.
         25    1    4    4    0    0 -0.81436662601E+01  0.22764339456E+02 -0.13477500695E+03  0.18546251656E+03  0.12509000000E+03 0.  0.
<mgrwt>
<rscale>  2 0.47470640E+03</rscale>
<asrwt>0</asrwt>
<pdfrwt beam="1">  1       21 0.12096004E-01 0.47470640E+03</pdfrwt>
<pdfrwt beam="2">  1       21 0.10072342E+00 0.47470640E+03</pdfrwt>
<totfact> 0.42437501E+04</totfact>
</mgrwt>
</event>
<event>
 7    0  0.4737014E-002  0.4546539E+03  0.7546771E-02  0.1026343E+00
         21   -1    0    0  502  501  0.00000000000E+00  0.00000000000E+00  0.22319101272E+03  0.22319101272E+03  0.00000000000E+00 0.  1.
         21   -1    0    0  501  502 -0.00000000000E+00 -0.00000000000E+00 -0.23153955374E+03  0.23153955374E+03  0.00000000000E+00 0.  1.
      99926    2    1    2    0    0  0.00000000000E+00 -0.14210854715E-13 -0.83485410251E+01  0.45473056646E+03  0.45465392326E+03 0.  0.
      99925    2    3    3    0    0  0.20668870920E+02  0.10031171141E+03  0.42859731473E+02  0.28514449113E+03  0.26264192843E+03 0.  0.
         25    1    4    4    0    0 -0.25991543297E+02  0.45509751913E+02  0.39950872365E+01  0.13568406931E+03  0.12509000000E+03 0.  0.
         25    1    3    3    0    0 -0.20668870920E+02 -0.10031171141E+03 -0.51208272499E+02  0.16958607533E+03  0.12509000000E+03 0.  0.
         25    1    4    4    0    0  0.46660414217E+02  0.54801959501E+02  0.38864644237E+02  0.14946042182E+03  0.12509000000E+03 0.  0.
<mgrwt>
<rscale>  2 0.45465392E+03</rscale>
<asrwt>0</asrwt>
<pdfrwt beam="1">  1       21 0.32822208E-01 0.45465392E+03</pdfrwt>
<pdfrwt beam="2">  1       21 0.34049934E-01 0.45465392E+03</pdfrwt>
<totfact> 0.68755197E+04</totfact>
</mgrwt>
</event>
<event>
 7    0  0.4737014E-002  0.4643427E+03  0.7546771E-02  0.1023529E+00
         21   -1    0    0  502  501  0.00000000000E+00  0.00000000000E+00  0.34046936265E+03  0.34046936265E+03  0.00000000000E+00 0.  1.
         21   -1    0    0  501  502 -0.00000000000E+00 -0.00000000000E+00 -0.15832124358E+03  0.15832124358E+03  0.00000000000E+00 0.  1.
      99926    2    1    2    0    0  0.00000000000E+00  0.00000000000E+00  0.18214811908E+03  0.49879060623E+03  0.46434268766E+03 0.  0.
      99925    2    3    3    0    0 -0.95132460108E+02  0.75019444964E+02  0.12740606595E+03  0.31624663189E+03  0.26287168819E+03 0.  0.
         25    1    4    4    0    0 -0.34448480728E+02  0.12333646246E+02  0.25445743038E+02  0.13279235894E+03  0.12509000000E+03 0.  0.
         25    1    4    4    0    0 -0.60683979380E+02  0.62685798719E+02  0.10196032291E+03  0.18345427295E+03  0.12509000000E+03 0.  0.
         25    1    3    3    0    0  0.95132460108E+02 -0.75019444964E+02  0.54742053130E+02  0.18254397435E+03  0.12509000000E+03 0.  0.
<mgrwt>
<rscale>  2 0.46434269E+03</rscale>
<asrwt>0</asrwt>
<pdfrwt beam="1">  1       21 0.50069024E-01 0.46434269E+03</pdfrwt>
<pdfrwt beam="2">  1       21 0.23282536E-01 0.46434269E+03</pdfrwt>
<totfact> 0.60725336E+04</totfact>
</mgrwt>
</event>
<event>
 7    0  0.4737014E-002  0.4831227E+03  0.7546771E-02  0.1018280E+00
         21   -1    0    0  502  501  0.00000000000E+00  0.00000000000E+00  0.99896311203E+02  0.99896311203E+02  0.00000000000E+00 0. -1.
         21   -1    0    0  501  502 -0.00000000000E+00 -0.00000000000E+00 -0.58412460304E+03  0.58412460304E+03  0.00000000000E+00 0. -1.
      99926    2    1    2    0    0  0.00000000000E+00  0.00000000000E+00 -0.48422829184E+03  0.68402091424E+03  0.48312273027E+03 0.  0.
      99925    2    3    3    0    0 -0.72267520799E+02 -0.21670648981E+02 -0.46022856736E+03  0.53598137066E+03  0.26414670902E+03 0.  0.
         25    1    4    4    0    0 -0.38498284121E+02  0.19772348043E+02 -0.28421681583E+03  0.31352794154E+03  0.12509000000E+03 0.  0.
         25    1    4    4    0    0 -0.33769236678E+02 -0.41442997024E+02 -0.17601175154E+03  0.22245342912E+03  0.12509000000E+03 0.  0.
         25    1    3    3    0    0  0.72267520799E+02  0.21670648981E+02 -0.23999724474E+02  0.14803954358E+03  0.12509000000E+03 0.  0.
<mgrwt>
<rscale>  2 0.48312273E+03</rscale>
<asrwt>0</asrwt>
<pdfrwt beam="1">  1       21 0.14690635E-01 0.48312273E+03</pdfrwt>
<pdfrwt beam="2">  1       21 0.85900674E-01 0.48312273E+03</pdfrwt>
<totfact> 0.43343939E+04</totfact>
</mgrwt>
</event>
<event>
 7    0  0.4737014E-002  0.4499035E+03  0.7546771E-02  0.1027751E+00
         21   -1    0    0  502  501  0.00000000000E+00  0.00000000000E+00  0.24323894199E+02  0.24323894199E+02  0.00000000000E+00 0. -1.
         21   -1    0    0  501  502 -0.00000000000E+00 -0.00000000000E+00 -0.20803938531E+04  0.20803938531E+04  0.00000000000E+00 0. -1.
      99926    2    1    2    0    0  0.00000000000E+00  0.17763568394E-14 -0.20560699589E+04  0.21047177473E+04  0.44990345619E+03 0.  0.
      99925    2    3    3    0    0 -0.10080919582E+03  0.51688921876E+01 -0.14873857315E+04  0.15137537297E+04  0.26257347303E+03 0.  0.
         25    1    4    4    0    0 -0.63763535136E+02 -0.34583838584E+02 -0.72905574244E+03  0.74325743453E+03  0.12509000000E+03 0.  0.
         25    1    4    4    0    0 -0.37045660681E+02  0.39752730772E+02 -0.75832998901E+03  0.77049629520E+03  0.12509000000E+03 0.  0.
         25    1    3    3    0    0  0.10080919582E+03 -0.51688921876E+01 -0.56868422741E+03  0.59096401753E+03  0.12509000000E+03 0.  0.
<mgrwt>
<rscale>  2 0.44990346E+03</rscale>
<asrwt>0</asrwt>
<pdfrwt beam="1">  1       21 0.35770433E-02 0.44990346E+03</pdfrwt>
<pdfrwt beam="2">  1       21 0.30594027E+00 0.44990346E+03</pdfrwt>
<totfact> 0.12564239E+04</totfact>
</mgrwt>
</event>
<event>
 7    0  0.4737014E-002  0.4523194E+03  0.7546771E-02  0.1027033E+00
         21   -1    0    0  502  501  0.00000000000E+00  0.00000000000E+00  0.30059434505E+03  0.30059434505E+03  0.00000000000E+00 0. -1.
         21   -1    0    0  501  502 -0.00000000000E+00 -0.00000000000E+00 -0.17015692581E+03  0.17015692581E+03  0.00000000000E+00 0. -1.
      99926    2    1    2    0    0  0.00000000000E+00  0.00000000000E+00  0.13043741924E+03  0.47075127086E+03  0.45231939896E+03 0.  0.
      99925    2    3    3    0    0  0.28104017816E+02 -0.83477891747E+02  0.12660924957E+02  0.27767821491E+03  0.26303326365E+03 0.  0.
         25    1    4    4    0    0 -0.21133987501E+02 -0.60597051143E+02  0.14173515263E+02  0.14130479351E+03  0.12509000000E+03 0.  0.
         25    1    3    3    0    0 -0.28104017816E+02  0.83477891747E+02  0.11777649428E+03  0.19307305595E+03  0.12509000000E+03 0.  0.
         25    1    4    4    0    0  0.49238005316E+02 -0.22880840603E+02 -0.15125903065E+01  0.13637342140E+03  0.12509000000E+03 0.  0.
<mgrwt>
<rscale>  2 0.45231940E+03</rscale>
<asrwt>0</asrwt>
<pdfrwt beam="1">  1       21 0.44205051E-01 0.45231940E+03</pdfrwt>
<pdfrwt beam="2">  1       21 0.25023077E-01 0.45231940E+03</pdfrwt>
<totfact> 0.68832236E+04</totfact>
</mgrwt>
</event>
<event>
 7    0  0.4737014E-002  0.4580243E+03  0.7546771E-02  0.1025356E+00
         21   -1    0    0  502  501  0.00000000000E+00  0.00000000000E+00  0.27743437260E+03  0.27743437260E+03  0.00000000000E+00 0. -1.
         21   -1    0    0  501  502 -0.00000000000E+00 -0.00000000000E+00 -0.18904137546E+03  0.18904137546E+03  0.00000000000E+00 0. -1.
      99926    2    1    2    0    0  0.00000000000E+00  0.71054273576E-14  0.88392997146E+02  0.46647574806E+03  0.45802434606E+03 0.  0.
      99925    2    3    3    0    0  0.10427177841E+03  0.46502795390E+02  0.34151162914E+02  0.28864212235E+03  0.26289324661E+03 0.  0.
         25    1    3    3    0    0 -0.10427177841E+03 -0.46502795390E+02  0.54241834232E+02  0.17783362571E+03  0.12509000000E+03 0.  0.
         25    1    4    4    0    0  0.11269344444E+02  0.14633974506E+02  0.27510236119E+02  0.12940429871E+03  0.12509000000E+03 0.  0.
         25    1    4    4    0    0  0.93002433964E+02  0.31868820884E+02  0.66409267945E+01  0.15923782364E+03  0.12509000000E+03 0.  0.
<mgrwt>
<rscale>  2 0.45802435E+03</rscale>
<asrwt>0</asrwt>
<pdfrwt beam="1">  1       21 0.40799173E-01 0.45802435E+03</pdfrwt>
<pdfrwt beam="2">  1       21 0.27800202E-01 0.45802435E+03</pdfrwt>
<totfact> 0.66097372E+04</totfact>
</mgrwt>
</event>
<event>
 7    0  0.4737014E-002  0.4516298E+03  0.7546771E-02  0.1027237E+00
         21   -1    0    0  502  501  0.00000000000E+00  0.00000000000E+00  0.30310528881E+02  0.30310528881E+02  0.00000000000E+00 0. -1.
         21   -1    0    0  501  502 -0.00000000000E+00 -0.00000000000E+00 -0.16823315623E+04  0.16823315623E+04  0.00000000000E+00 0. -1.
      99926    2    1    2    0    0  0.00000000000E+00  0.00000000000E+00 -0.16520210334E+04  0.17126420912E+04  0.45162975724E+03 0.  0.
      99925    2    3    3    0    0  0.73573179169E+02 -0.73382798916E+02 -0.11776755038E+04  0.12111949480E+04  0.26320251111E+03 0.  0.
         25    1    3    3    0    0 -0.73573179169E+02  0.73382798916E+02 -0.47434552961E+03  0.50144714320E+03  0.12509000000E+03 0.  0.
         25    1    4    4    0    0  0.77437328913E+02 -0.51767426789E+02 -0.64430904796E+03  0.66291633240E+03  0.12509000000E+03 0.  0.
         25    1    4    4    0    0 -0.38641497445E+01 -0.21615372127E+02 -0.53336645585E+03  0.54827861557E+03  0.12509000000E+03 0.  0.
<mgrwt>
<rscale>  2 0.45162976E+03</rscale>
<asrwt>0</asrwt>
<pdfrwt beam="1">  1       21 0.44574293E-02 0.45162976E+03</pdfrwt>
<pdfrwt beam="2">  1       21 0.24740178E+00 0.45162976E+03</pdfrwt>
<totfact> 0.19505335E+04</totfact>
</mgrwt>
</event>
<event>
 7    0  0.4737014E-002  0.4728479E+03  0.7546771E-02  0.1021119E+00
         21   -1    0    0  502  501  0.00000000000E+00  0.00000000000E+00  0.40091020528E+03  0.40091020528E+03  0.00000000000E+00 0.  1.
         21   -1    0    0  501  502 -0.00000000000E+00 -0.00000000000E+00 -0.13942342296E+03  0.13942342296E+03  0.00000000000E+00 0.  1.
      99926    2    1    2    0    0  0.00000000000E+00 -0.14210854715E-13  0.26148678232E+03  0.54033362825E+03  0.47284785342E+03 0.  0.
      99925    2    3    3    0    0 -0.11342882694E+02 -0.12631925404E+03  0.13393114719E+03  0.32123738665E+03  0.26300321570E+03 0.  0.
         25    1    4    4    0    0  0.24155169541E+02 -0.88019815461E+02  0.88037831031E+02  0.17812671872E+03  0.12509000000E+03 0.  0.
         25    1    4    4    0    0 -0.35498052235E+02 -0.38299438576E+02  0.45893316159E+02  0.14311066793E+03  0.12509000000E+03 0.  0.
         25    1    3    3    0    0  0.11342882694E+02  0.12631925404E+03  0.12755563513E+03  0.21909624160E+03  0.12509000000E+03 0.  0.
<mgrwt>
<rscale>  2 0.47284785E+03</rscale>
<asrwt>0</asrwt>
<pdfrwt beam="1">  1       21 0.58957383E-01 0.47284785E+03</pdfrwt>
<pdfrwt beam="2">  1       21 0.20503445E-01 0.47284785E+03</pdfrwt>
<totfact> 0.54399718E+04</totfact>
</mgrwt>
</event>
<event>
 7    0  0.4737014E-002  0.4586803E+03  0.7546771E-02  0.1025165E+00
         21   -1    0    0  502  501  0.00000000000E+00  0.00000000000E+00  0.23442602450E+03  0.23442602450E+03  0.00000000000E+00 0. -1.
         21   -1    0    0  501  502 -0.00000000000E+00 -0.00000000000E+00 -0.22436463741E+03  0.22436463741E+03  0.00000000000E+00 0. -1.
      99926    2    1    2    0    0 -0.17763568394E-14  0.00000000000E+00  0.10061387090E+02  0.45879066190E+03  0.45868032434E+03 0.  0.
      99925    2    3    3    0    0 -0.60145084558E+01  0.74388354024E+02 -0.83412472788E+02  0.28571648097E+03  0.26288108595E+03 0.  0.
         25    1    4    4    0    0 -0.29328892380E+02  0.16724967975E+02 -0.15836068813E+02  0.13053044724E+03  0.12509000000E+03 0.  0.
         25    1    4    4    0    0  0.23314383924E+02  0.57663386049E+02 -0.67576403975E+02  0.15518603372E+03  0.12509000000E+03 0.  0.
         25    1    3    3    0    0  0.60145084558E+01 -0.74388354024E+02  0.93473859877E+02  0.17307418094E+03  0.12509000000E+03 0.  0.
<mgrwt>
<rscale>  2 0.45868032E+03</rscale>
<asrwt>0</asrwt>
<pdfrwt beam="1">  1       21 0.34474416E-01 0.45868032E+03</pdfrwt>
<pdfrwt beam="2">  1       21 0.32994799E-01 0.45868032E+03</pdfrwt>
<totfact> 0.66300567E+04</totfact>
</mgrwt>
</event>
<event>
 7    0  0.4737014E-002  0.4540306E+03  0.7546771E-02  0.1026527E+00
         21   -1    0    0  502  501  0.00000000000E+00  0.00000000000E+00  0.61633003837E+02  0.61633003837E+02  0.00000000000E+00 0.  1.
         21   -1    0    0  501  502 -0.00000000000E+00 -0.00000000000E+00 -0.83617442354E+03  0.83617442354E+03  0.00000000000E+00 0.  1.
      99926    2    1    2    0    0  0.00000000000E+00  0.71054273576E-14 -0.77454141970E+03  0.89780742737E+03  0.45403057806E+03 0.  0.
      99925    2    3    3    0    0 -0.84649141642E+02  0.50943399721E+02 -0.38358557420E+03  0.47560523839E+03  0.26325224195E+03 0.  0.
         25    1    4    4    0    0 -0.54278372827E+02 -0.29898164481E+00 -0.24028226636E+03  0.27627759007E+03  0.12509000000E+03 0.  0.
         25    1    3    3    0    0  0.84649141642E+02 -0.50943399721E+02 -0.39095584550E+03  0.42220218899E+03  0.12509000000E+03 0.  0.
         25    1    4    4    0    0 -0.30370768815E+02  0.51242381366E+02 -0.14330330785E+03  0.19932764832E+03  0.12509000000E+03 0.  0.
<mgrwt>
<rscale>  2 0.45403058E+03</rscale>
<asrwt>0</asrwt>
<pdfrwt beam="1">  1       21 0.90636778E-02 0.45403058E+03</pdfrwt>
<pdfrwt beam="2">  1       21 0.12296682E+00 0.45403058E+03</pdfrwt>
<totfact> 0.43659064E+04</totfact>
</mgrwt>
</event>
<event>
 7    0  0.4737014E-002  0.4593678E+03  0.7546771E-02  0.1024965E+00
         21   -1    0    0  502  501  0.00000000000E+00  0.00000000000E+00  0.70502510327E+03  0.70502510327E+03  0.00000000000E+00 0.  1.
         21   -1    0    0  501  502 -0.00000000000E+00 -0.00000000000E+00 -0.74826691394E+02  0.74826691394E+02  0.00000000000E+00 0.  1.
      99926    2    1    2    0    0 -0.14210854715E-13  0.00000000000E+00  0.63019841188E+03  0.77985179467E+03  0.45936780831E+03 0.  0.
      99925    2    3    3    0    0 -0.11649018621E+03  0.12319175548E+02  0.38699751378E+03  0.48233555897E+03  0.26298058902E+03 0.  0.
         25    1    4    4    0    0 -0.93791854861E+02  0.30903638520E+02  0.21793285043E+03  0.26998922628E+03  0.12509000000E+03 0.  0.
         25    1    3    3    0    0  0.11649018621E+03 -0.12319175548E+02  0.24320089810E+03  0.29751623570E+03  0.12509000000E+03 0.  0.
         25    1    4    4    0    0 -0.22698331350E+02 -0.18584462972E+02  0.16906466335E+03  0.21234633268E+03  0.12509000000E+03 0.  0.
<mgrwt>
<rscale>  2 0.45936781E+03</rscale>
<asrwt>0</asrwt>
<pdfrwt beam="1">  1       21 0.10368016E+00 0.45936781E+03</pdfrwt>
<pdfrwt beam="2">  1       21 0.11003926E-01 0.45936781E+03</pdfrwt>
<totfact> 0.47118551E+04</totfact>
</mgrwt>
</event>
<event>
 7    0  0.4737014E-002  0.4568096E+03  0.7546771E-02  0.1025711E+00
         21   -1    0    0  502  501  0.00000000000E+00  0.00000000000E+00  0.93404144208E+02  0.93404144208E+02  0.00000000000E+00 0. -1.
         21   -1    0    0  501  502 -0.00000000000E+00 -0.00000000000E+00 -0.55852727252E+03  0.55852727252E+03  0.00000000000E+00 0. -1.
      99926    2    1    2    0    0  0.00000000000E+00  0.00000000000E+00 -0.46512312831E+03  0.65193141673E+03  0.45680964047E+03 0.  0.
      99925    2    3    3    0    0  0.26660006870E+02  0.52250181208E+01 -0.45196134638E+03  0.52325042596E+03  0.26226683524E+03 0.  0.
         25    1    3    3    0    0 -0.26660006870E+02 -0.52250181208E+01 -0.13161781934E+02  0.12868099077E+03  0.12509000000E+03 0.  0.
         25    1    4    4    0    0  0.35379399600E+02  0.35117365381E+02 -0.22348608010E+03  0.26091850714E+03  0.12509000000E+03 0.  0.
         25    1    4    4    0    0 -0.87193927303E+01 -0.29892347261E+02 -0.22847526628E+03  0.26233191883E+03  0.12509000000E+03 0.  0.
<mgrwt>
<rscale>  2 0.45680964E+03</rscale>
<asrwt>0</asrwt>
<pdfrwt beam="1">  1       21 0.13735905E-01 0.45680964E+03</pdfrwt>
<pdfrwt beam="2">  1       21 0.82136358E-01 0.45680964E+03</pdfrwt>
<totfact> 0.54803810E+04</totfact>
</mgrwt>
</event>
<event>
 6    0  0.4737014E-002  0.4460132E+03  0.7546771E-02  0.1028918E+00
         21   -1    0    0  502  501  0.00000000000E+00  0.00000000000E+00  0.29252738302E+02  0.29252738302E+02  0.00000000000E+00 0.  1.
         21   -1    0    0  501  502 -0.00000000000E+00 -0.00000000000E+00 -0.17000782792E+04  0.17000782792E+04  0.00000000000E+00 0.  1.
      99926    2    1    2    0    0  0.00000000000E+00  0.00000000000E+00 -0.16708255409E+04  0.17293310175E+04  0.44601320605E+03 0.  0.
         25    1    3    3    0    0 -0.46629168527E+02  0.89421465478E+01 -0.43100197654E+03  0.45129198223E+03  0.12509000000E+03 0.  0.
         25    1    3    3    0    0  0.58168606900E+02 -0.50802964197E+02 -0.36900753546E+03  0.39721354122E+03  0.12509000000E+03 0.  0.
         25    1    3    3    0    0 -0.11539438373E+02  0.41860817649E+02 -0.87081602888E+03  0.88082549404E+03  0.12509000000E+03 0.  0.
<mgrwt>
<rscale>  2 0.44601321E+03</rscale>
<asrwt>0</asrwt>
<pdfrwt beam="1">  1       21 0.43018727E-02 0.44601321E+03</pdfrwt>
<pdfrwt beam="2">  1       21 0.25001155E+00 0.44601321E+03</pdfrwt>
<totfact> 0.20018401E+04</totfact>
</mgrwt>
</event>
<event>
 7    0  0.4737014E-002  0.4552243E+03  0.7546771E-02  0.1026175E+00
         21   -1    0    0  502  501  0.00000000000E+00  0.00000000000E+00  0.35471644844E+03  0.35471644844E+03  0.00000000000E+00 0.  1.
         21   -1    0    0  501  502 -0.00000000000E+00 -0.00000000000E+00 -0.14605269650E+03  0.14605269650E+03  0.00000000000E+00 0.  1.
      99926    2    1    2    0    0  0.00000000000E+00  0.14210854715E-13  0.20866375194E+03  0.50076914493E+03  0.45522431299E+03 0.  0.
      99925    2    3    3    0    0 -0.28685664049E+02  0.93331667046E+02  0.19466252664E+03  0.34146688567E+03  0.26300659181E+03 0.  0.
         25    1    3    3    0    0  0.28685664049E+02 -0.93331667046E+02  0.14001225305E+02  0.15930225926E+03  0.12509000000E+03 0.  0.
         25    1    4    4    0    0 -0.21727774969E+02  0.67626237541E+02  0.60329474344E+02  0.15598896687E+03  0.12509000000E+03 0.  0.
         25    1    4    4    0    0 -0.69578890795E+01  0.25705429505E+02  0.13433305229E+03  0.18547791881E+03  0.12509000000E+03 0.  0.
<mgrwt>
<rscale>  2 0.45522431E+03</rscale>
<asrwt>0</asrwt>
<pdfrwt beam="1">  1       21 0.52164184E-01 0.45522431E+03</pdfrwt>
<pdfrwt beam="2">  1       21 0.21478338E-01 0.45522431E+03</pdfrwt>
<totfact> 0.65100666E+04</totfact>
</mgrwt>
</event>
<event>
 7    0  0.4737014E-002  0.4541033E+03  0.7546771E-02  0.1026505E+00
         21   -1    0    0  502  501  0.00000000000E+00  0.00000000000E+00  0.22756317102E+03  0.22756317102E+03  0.00000000000E+00 0.  1.
         21   -1    0    0  501  502 -0.00000000000E+00 -0.00000000000E+00 -0.22654131159E+03  0.22654131159E+03  0.00000000000E+00 0.  1.
      99926    2    1    2    0    0  0.00000000000E+00  0.00000000000E+00  0.10218594281E+01  0.45410448261E+03  0.45410333288E+03 0.  0.
      99925    2    3    3    0    0  0.30537430632E+02 -0.62708344726E+02 -0.87415044555E+02  0.28577900844E+03  0.26298931629E+03 0.  0.
         25    1    4    4    0    0  0.13167792115E+02 -0.25668267595E+02 -0.85342291164E+02  0.15415273423E+03  0.12509000000E+03 0.  0.
         25    1    3    3    0    0 -0.30537430632E+02  0.62708344726E+02  0.88436903983E+02  0.16832547417E+03  0.12509000000E+03 0.  0.
         25    1    4    4    0    0  0.17369638517E+02 -0.37040077132E+02 -0.20727533912E+01  0.13162627421E+03  0.12509000000E+03 0.  0.
<mgrwt>
<rscale>  2 0.45410333E+03</rscale>
<asrwt>0</asrwt>
<pdfrwt beam="1">  1       21 0.33465172E-01 0.45410333E+03</pdfrwt>
<pdfrwt beam="2">  1       21 0.33314899E-01 0.45410333E+03</pdfrwt>
<totfact> 0.69104528E+04</totfact>
</mgrwt>
</event>
<event>
 7    0  0.4737014E-002  0.4424452E+03  0.7546771E-02  0.1029999E+00
         21   -1    0    0  502  501  0.00000000000E+00  0.00000000000E+00  0.27265588031E+03  0.27265588031E+03  0.00000000000E+00 0.  1.
         21   -1    0    0  501  502 -0.00000000000E+00 -0.00000000000E+00 -0.17949162206E+03  0.17949162206E+03  0.00000000000E+00 0.  1.
      99926    2    1    2    0    0  0.00000000000E+00  0.00000000000E+00  0.93164258256E+02  0.45214750237E+03  0.44244523377E+03 0.  0.
      99925    2    3    3    0    0 -0.41120931990E+02  0.89100124083E+02  0.35040231798E+02  0.28286763437E+03  0.26297626807E+03 0.  0.
         25    1    3    3    0    0  0.41120931990E+02 -0.89100124083E+02  0.58124026459E+02  0.16927986800E+03  0.12509000000E+03 0.  0.
         25    1    4    4    0    0 -0.45182045280E+02  0.11658733939E+02  0.17180729048E+02  0.13461065650E+03  0.12509000000E+03 0.  0.
         25    1    4    4    0    0  0.40611132899E+01  0.77441390144E+02  0.17859502750E+02  0.14825697787E+03  0.12509000000E+03 0.  0.
<mgrwt>
<rscale>  2 0.44244523E+03</rscale>
<asrwt>0</asrwt>
<pdfrwt beam="1">  1       21 0.40096453E-01 0.44244523E+03</pdfrwt>
<pdfrwt beam="2">  1       21 0.26395827E-01 0.44244523E+03</pdfrwt>
<totfact> 0.76086383E+04</totfact>
</mgrwt>
</event>
<event>
 7    0  0.4737014E-002  0.4351477E+03  0.7546771E-02  0.1032246E+00
         21   -1    0    0  502  501  0.00000000000E+00  0.00000000000E+00  0.14006280681E+04  0.14006280681E+04  0.00000000000E+00 0. -1.
         21   -1    0    0  501  502 -0.00000000000E+00 -0.00000000000E+00 -0.33797971416E+02  0.33797971416E+02  0.00000000000E+00 0. -1.
      99926    2    1    2    0    0  0.00000000000E+00  0.00000000000E+00  0.13668300967E+04  0.14344260395E+04  0.43514773312E+03 0.  0.
      99925    2    3    3    0    0  0.83266792230E+02  0.38215391479E+02  0.81754017651E+03  0.86367153946E+03  0.26298823742E+03 0.  0.
         25    1    4    4    0    0  0.41534505111E+02  0.58824470859E+02  0.45493314789E+03  0.47728095566E+03  0.12509000000E+03 0.  0.
         25    1    4    4    0    0  0.41732287119E+02 -0.20609079380E+02  0.36260702862E+03  0.38639058380E+03  0.12509000000E+03 0.  0.
         25    1    3    3    0    0 -0.83266792230E+02 -0.38215391479E+02  0.54928992017E+03  0.57075450006E+03  0.12509000000E+03 0.  0.
<mgrwt>
<rscale>  2 0.43514773E+03</rscale>
<asrwt>0</asrwt>
<pdfrwt beam="1">  1       21 0.20597468E+00 0.43514773E+03</pdfrwt>
<pdfrwt beam="2">  1       21 0.49702908E-02 0.43514773E+03</pdfrwt>
<totfact> 0.29761985E+04</totfact>
</mgrwt>
</event>
<event>
 7    0  0.4737014E-002  0.4550246E+03  0.7546771E-02  0.1026234E+00
         21   -1    0    0  502  501  0.00000000000E+00  0.00000000000E+00  0.15222556186E+04  0.15222556186E+04  0.00000000000E+00 0.  1.
         21   -1    0    0  501  502 -0.00000000000E+00 -0.00000000000E+00 -0.34003384310E+02  0.34003384310E+02  0.00000000000E+00 0.  1.
      99926    2    1    2    0    0 -0.17763568394E-14  0.00000000000E+00  0.14882522343E+04  0.15562590029E+04  0.45502458315E+03 0.  0.
      99925    2    3    3    0    0  0.84334336086E+01  0.68811423427E+02  0.63055736013E+03  0.68672226415E+03  0.26301853332E+03 0.  0.
         25    1    4    4    0    0 -0.86449725479E+01  0.60839242295E+02  0.25744703966E+03  0.29275012431E+03  0.12509000000E+03 0.  0.
         25    1    3    3    0    0 -0.84334336086E+01 -0.68811423427E+02  0.85769487419E+03  0.86953673879E+03  0.12509000000E+03 0.  0.
         25    1    4    4    0    0  0.17078406157E+02  0.79721811326E+01  0.37311032047E+03  0.39397213984E+03  0.12509000000E+03 0.  0.
<mgrwt>
<rscale>  2 0.45502458E+03</rscale>
<asrwt>0</asrwt>
<pdfrwt beam="1">  1       21 0.22386107E+00 0.45502458E+03</pdfrwt>
<pdfrwt beam="2">  1       21 0.50004987E-02 0.45502458E+03</pdfrwt>
<totfact> 0.22429127E+04</totfact>
</mgrwt>
</event>
<event>
 7    0  0.4737014E-002  0.4561396E+03  0.7546771E-02  0.1025907E+00
         21   -1    0    0  502  501  0.00000000000E+00  0.00000000000E+00  0.55448252240E+02  0.55448252240E+02  0.00000000000E+00 0. -1.
         21   -1    0    0  501  502 -0.00000000000E+00 -0.00000000000E+00 -0.93809701830E+03  0.93809701830E+03  0.00000000000E+00 0. -1.
      99926    2    1    2    0    0  0.00000000000E+00  0.14210854715E-13 -0.88264876606E+03  0.99354527054E+03  0.45613962817E+03 0.  0.
      99925    2    3    3    0    0  0.24183747019E+01  0.95257755194E+02 -0.69201687968E+03  0.74642604291E+03  0.26302963199E+03 0.  0.
         25    1    3    3    0    0 -0.24183747019E+01 -0.95257755194E+02 -0.19063188638E+03  0.24711922763E+03  0.12509000000E+03 0.  0.
         25    1    4    4    0    0  0.25283243831E+02  0.34575863615E+02 -0.41630925018E+03  0.43680159415E+03  0.12509000000E+03 0.  0.
         25    1    4    4    0    0 -0.22864869130E+02  0.60681891579E+02 -0.27570762950E+03  0.30962444876E+03  0.12509000000E+03 0.  0.
<mgrwt>
<rscale>  2 0.45613963E+03</rscale>
<asrwt>0</asrwt>
<pdfrwt beam="1">  1       21 0.81541548E-02 0.45613963E+03</pdfrwt>
<pdfrwt beam="2">  1       21 0.13795544E+00 0.45613963E+03</pdfrwt>
<totfact> 0.39069852E+04</totfact>
</mgrwt>
</event>
<event>
 7    0  0.4737014E-002  0.4550950E+03  0.7546771E-02  0.1026213E+00
         21   -1    0    0  502  501  0.00000000000E+00  0.00000000000E+00  0.41661335118E+03  0.41661335118E+03  0.00000000000E+00 0.  1.
         21   -1    0    0  501  502 -0.00000000000E+00 -0.00000000000E+00 -0.12428277243E+03  0.12428277243E+03  0.00000000000E+00 0.  1.
      99926    2    1    2    0    0  0.00000000000E+00  0.00000000000E+00  0.29233057875E+03  0.54089612360E+03  0.45509498927E+03 0.  0.
      99925    2    3    3    0    0 -0.68074661369E+02 -0.85556501974E+02  0.14938017792E+03  0.32172404566E+03  0.26313085994E+03 0.  0.
         25    1    4    4    0    0  0.30563527192E+01 -0.43273481989E+02  0.48649108473E+02  0.14105381736E+03  0.12509000000E+03 0.  0.
         25    1    4    4    0    0 -0.71131014089E+02 -0.42283019985E+02  0.10073106945E+03  0.18067022831E+03  0.12509000000E+03 0.  0.
         25    1    3    3    0    0  0.68074661369E+02  0.85556501974E+02  0.14295040083E+03  0.21917207794E+03  0.12509000000E+03 0.  0.
<mgrwt>
<rscale>  2 0.45509499E+03</rscale>
<asrwt>0</asrwt>
<pdfrwt beam="1">  1       21 0.61266669E-01 0.45509499E+03</pdfrwt>
<pdfrwt beam="2">  1       21 0.18276878E-01 0.45509499E+03</pdfrwt>
<totfact> 0.62425203E+04</totfact>
</mgrwt>
</event>
<event>
 7    0  0.4737014E-002  0.4546408E+03  0.7546771E-02  0.1026347E+00
         21   -1    0    0  502  501  0.00000000000E+00  0.00000000000E+00  0.35043160631E+03  0.35043160631E+03  0.00000000000E+00 0. -1.
         21   -1    0    0  501  502 -0.00000000000E+00 -0.00000000000E+00 -0.14745978421E+03  0.14745978421E+03  0.00000000000E+00 0. -1.
      99926    2    1    2    0    0  0.71054273576E-14  0.00000000000E+00  0.20297182210E+03  0.49789139052E+03  0.45464082108E+03 0.  0.
      99925    2    3    3    0    0 -0.41401709464E+02 -0.10362413994E+03  0.10938740184E+03  0.30590801692E+03  0.26298678143E+03 0.  0.
         25    1    3    3    0    0  0.41401709464E+02  0.10362413994E+03  0.93584420267E+02  0.19198337361E+03  0.12509000000E+03 0.  0.
         25    1    4    4    0    0 -0.35700720092E+02 -0.58992807848E+02  0.16611425623E+02  0.14379895811E+03  0.12509000000E+03 0.  0.
         25    1    4    4    0    0 -0.57009893720E+01 -0.44631332090E+02  0.92775976212E+02  0.16210905880E+03  0.12509000000E+03 0.  0.
<mgrwt>
<rscale>  2 0.45464082E+03</rscale>
<asrwt>0</asrwt>
<pdfrwt beam="1">  1       21 0.51534060E-01 0.45464082E+03</pdfrwt>
<pdfrwt beam="2">  1       21 0.21685262E-01 0.45464082E+03</pdfrwt>
<totfact> 0.65605910E+04</totfact>
</mgrwt>
</event>
<event>
 7    0  0.4737014E-002  0.4560581E+03  0.7546771E-02  0.1025931E+00
         21   -1    0    0  502  501  0.00000000000E+00  0.00000000000E+00  0.13439661860E+03  0.13439661860E+03  0.00000000000E+00 0.  1.
         21   -1    0    0  501  502 -0.00000000000E+00 -0.00000000000E+00 -0.38689393420E+03  0.38689393420E+03  0.00000000000E+00 0.  1.
      99926    2    1    2    0    0 -0.71054273576E-14 -0.17763568394E-14 -0.25249731560E+03  0.52129055280E+03  0.45605805119E+03 0.  0.
      99925    2    3    3    0    0 -0.53343759518E+02 -0.89321473922E+01 -0.44185802247E+02  0.27235976999E+03  0.26325295678E+03 0.  0.
         25    1    4    4    0    0 -0.25151426199E+02  0.10807944781E+02  0.16537934318E+02  0.12911397013E+03  0.12509000000E+03 0.  0.
         25    1    4    4    0    0 -0.28192333319E+02 -0.19740092173E+02 -0.60723736565E+02  0.14324579987E+03  0.12509000000E+03 0.  0.
         25    1    3    3    0    0  0.53343759518E+02  0.89321473922E+01 -0.20831151335E+03  0.24893078281E+03  0.12509000000E+03 0.  0.
<mgrwt>
<rscale>  2 0.45605805E+03</rscale>
<asrwt>0</asrwt>
<pdfrwt beam="1">  1       21 0.19764208E-01 0.45605805E+03</pdfrwt>
<pdfrwt beam="2">  1       21 0.56896168E-01 0.45605805E+03</pdfrwt>
<totfact> 0.63266675E+04</totfact>
</mgrwt>
</event>
<event>
 7    0  0.4737014E-002  0.4444543E+03  0.7546771E-02  0.1029389E+00
         21   -1    0    0  502  501  0.00000000000E+00  0.00000000000E+00  0.79909100140E+02  0.79909100140E+02  0.00000000000E+00 0. -1.
         21   -1    0    0  501  502 -0.00000000000E+00 -0.00000000000E+00 -0.61801362556E+03  0.61801362556E+03  0.00000000000E+00 0. -1.
      99926    2    1    2    0    0  0.00000000000E+00 -0.14210854715E-13 -0.53810452542E+03  0.69792272570E+03  0.44445432923E+03 0.  0.
      99925    2    3    3    0    0 -0.28519457460E+02 -0.78787629178E+02 -0.43572916202E+03  0.51585385660E+03  0.26310539479E+03 0.  0.
         25    1    4    4    0    0  0.13516937997E+02 -0.76728106871E+01 -0.19011016899E+03  0.22810296818E+03  0.12509000000E+03 0.  0.
         25    1    3    3    0    0  0.28519457460E+02  0.78787629178E+02 -0.10237536341E+03  0.18206886911E+03  0.12509000000E+03 0.  0.
         25    1    4    4    0    0 -0.42036395458E+02 -0.71114818491E+02 -0.24561899302E+03  0.28775088842E+03  0.12509000000E+03 0.  0.
<mgrwt>
<rscale>  2 0.44445433E+03</rscale>
<asrwt>0</asrwt>
<pdfrwt beam="1">  1       21 0.11751339E-01 0.44445433E+03</pdfrwt>
<pdfrwt beam="2">  1       21 0.90884353E-01 0.44445433E+03</pdfrwt>
<totfact> 0.57653955E+04</totfact>
</mgrwt>
</event>
<event>
 7    0  0.4737014E-002  0.4305859E+03  0.7546771E-02  0.1033675E+00
         21   -1    0    0  502  501  0.00000000000E+00  0.00000000000E+00  0.51811651523E+02  0.51811651523E+02  0.00000000000E+00 0.  1.
         21   -1    0    0  501  502 -0.00000000000E+00 -0.00000000000E+00 -0.89460682323E+03  0.89460682323E+03  0.00000000000E+00 0.  1.
      99926    2    1    2    0    0 -0.35527136788E-14  0.00000000000E+00 -0.84279517171E+03  0.94641847476E+03  0.43058591234E+03 0.  0.
      99925    2    3    3    0    0  0.24836871157E+02  0.41640675536E+02 -0.70540388410E+03  0.75439063813E+03  0.26298246931E+03 0.  0.
         25    1    4    4    0    0  0.46911169429E+02  0.29706945110E+01 -0.38650823413E+03  0.40895672876E+03  0.12509000000E+03 0.  0.
         25    1    4    4    0    0 -0.22074298272E+02  0.38669981025E+02 -0.31889564997E+03  0.34543390938E+03  0.12509000000E+03 0.  0.
         25    1    3    3    0    0 -0.24836871157E+02 -0.41640675536E+02 -0.13739128761E+03  0.19202783662E+03  0.12509000000E+03 0.  0.
<mgrwt>
<rscale>  2 0.43058591E+03</rscale>
<asrwt>0</asrwt>
<pdfrwt beam="1">  1       21 0.76193614E-02 0.43058591E+03</pdfrwt>
<pdfrwt beam="2">  1       21 0.13155981E+00 0.43058591E+03</pdfrwt>
<totfact> 0.50208049E+04</totfact>
</mgrwt>
</event>
<event>
 7    0  0.4737014E-002  0.4541502E+03  0.7546771E-02  0.1026492E+00
         21   -1    0    0  502  501  0.00000000000E+00  0.00000000000E+00  0.11312623362E+03  0.11312623362E+03  0.00000000000E+00 0. -1.
         21   -1    0    0  501  502 -0.00000000000E+00 -0.00000000000E+00 -0.45580152605E+03  0.45580152605E+03  0.00000000000E+00 0. -1.
      99926    2    1    2    0    0  0.00000000000E+00  0.00000000000E+00 -0.34267529243E+03  0.56892775967E+03  0.45415023911E+03 0.  0.
      99925    2    3    3    0    0 -0.50092362185E+01  0.11221261058E+03 -0.21175170012E+03  0.35584266507E+03  0.26299896836E+03 0.  0.
         25    1    4    4    0    0 -0.11134342025E+02  0.22503966261E+02 -0.65471114706E+02  0.14340284875E+03  0.12509000000E+03 0.  0.
         25    1    4    4    0    0  0.61251058064E+01  0.89708644319E+02 -0.14628058542E+03  0.21243981632E+03  0.12509000000E+03 0.  0.
         25    1    3    3    0    0  0.50092362185E+01 -0.11221261058E+03 -0.13092359230E+03  0.21308509460E+03  0.12509000000E+03 0.  0.
<mgrwt>
<rscale>  2 0.45415024E+03</rscale>
<asrwt>0</asrwt>
<pdfrwt beam="1">  1       21 0.16636211E-01 0.45415024E+03</pdfrwt>
<pdfrwt beam="2">  1       21 0.67029635E-01 0.45415024E+03</pdfrwt>
<totfact> 0.61041972E+04</totfact>
</mgrwt>
</event>
<event>
 7    0  0.4737014E-002  0.4416468E+03  0.7546771E-02  0.1030243E+00
         21   -1    0    0  502  501  0.00000000000E+00  0.00000000000E+00  0.53265331371E+02  0.53265331371E+02  0.00000000000E+00 0.  1.
         21   -1    0    0  501  502 -0.00000000000E+00 -0.00000000000E+00 -0.91547299768E+03  0.91547299768E+03  0.00000000000E+00 0.  1.
      99926    2    1    2    0    0  0.00000000000E+00  0.26645352591E-14 -0.86220766631E+03  0.96873832905E+03  0.44164679364E+03 0.  0.
      99925    2    3    3    0    0  0.64567234313E+02 -0.69129311361E+01 -0.71670551520E+03  0.76616710592E+03  0.26292303496E+03 0.  0.
         25    1    4    4    0    0  0.79038132897E+01  0.28646126178E+02 -0.36152433325E+03  0.38370616680E+03  0.12509000000E+03 0.  0.
         25    1    3    3    0    0 -0.64567234313E+02  0.69129311361E+01 -0.14550215110E+03  0.20257122313E+03  0.12509000000E+03 0.  0.
         25    1    4    4    0    0  0.56663421024E+02 -0.35559057314E+02 -0.35518118196E+03  0.38246093912E+03  0.12509000000E+03 0.  0.
<mgrwt>
<rscale>  2 0.44164679E+03</rscale>
<asrwt>0</asrwt>
<pdfrwt beam="1">  1       21 0.78331368E-02 0.44164679E+03</pdfrwt>
<pdfrwt beam="2">  1       21 0.13462838E+00 0.44164679E+03</pdfrwt>
<totfact> 0.44898292E+04</totfact>
</mgrwt>
</event>
<event>
 7    0  0.4737014E-002  0.4516910E+03  0.7546771E-02  0.1027219E+00
         21   -1    0    0  502  501  0.00000000000E+00  0.00000000000E+00  0.67856330963E+03  0.67856330963E+03  0.00000000000E+00 0.  1.
         21   -1    0    0  501  502 -0.00000000000E+00 -0.00000000000E+00 -0.75167911702E+02  0.75167911702E+02  0.00000000000E+00 0.  1.
      99926    2    1    2    0    0  0.14210854715E-13 -0.35527136788E-14  0.60339539793E+03  0.75373122133E+03  0.45169098704E+03 0.  0.
      99925    2    3    3    0    0 -0.10689992719E+03 -0.20654818693E+02  0.39557396870E+03  0.48785254502E+03  0.26394530684E+03 0.  0.
         25    1    4    4    0    0 -0.25673371859E+02 -0.38686212639E+02  0.15850054513E+03  0.20718512490E+03  0.12509000000E+03 0.  0.
         25    1    4    4    0    0 -0.81226555335E+02  0.18031393946E+02  0.23707342356E+03  0.28066742013E+03  0.12509000000E+03 0.  0.
         25    1    3    3    0    0  0.10689992719E+03  0.20654818693E+02  0.20782142924E+03  0.26587867631E+03  0.12509000000E+03 0.  0.
<mgrwt>
<rscale>  2 0.45169099E+03</rscale>
<asrwt>0</asrwt>
<pdfrwt beam="1">  1       21 0.99788719E-01 0.45169099E+03</pdfrwt>
<pdfrwt beam="2">  1       21 0.11054105E-01 0.45169099E+03</pdfrwt>
<totfact> 0.51404686E+04</totfact>
</mgrwt>
</event>
<event>
 7    0  0.4737014E-002  0.4444956E+03  0.7546771E-02  0.1029376E+00
         21   -1    0    0  502  501  0.00000000000E+00  0.00000000000E+00  0.23336116726E+03  0.23336116726E+03  0.00000000000E+00 0.  1.
         21   -1    0    0  501  502 -0.00000000000E+00 -0.00000000000E+00 -0.21166371065E+03  0.21166371065E+03  0.00000000000E+00 0.  1.
      99926    2    1    2    0    0  0.14210854715E-13  0.00000000000E+00  0.21697456607E+02  0.44502487790E+03  0.44449562690E+03 0.  0.
      99925    2    3    3    0    0 -0.69882045933E+02 -0.75113759322E+02  0.22921207126E+02  0.28323927024E+03  0.26300860306E+03 0.  0.
         25    1    4    4    0    0 -0.37556041041E+02 -0.79746845449E+02  0.12369100945E+02  0.15352693033E+03  0.12509000000E+03 0.  0.
         25    1    4    4    0    0 -0.32326004891E+02  0.46330861276E+01  0.10552106181E+02  0.12971233991E+03  0.12509000000E+03 0.  0.
         25    1    3    3    0    0  0.69882045933E+02  0.75113759322E+02 -0.12237505188E+01  0.16178560767E+03  0.12509000000E+03 0.  0.
<mgrwt>
<rscale>  2 0.44449563E+03</rscale>
<asrwt>0</asrwt>
<pdfrwt beam="1">  1       21 0.34317819E-01 0.44449563E+03</pdfrwt>
<pdfrwt beam="2">  1       21 0.31127016E-01 0.44449563E+03</pdfrwt>
<totfact> 0.75407558E+04</totfact>
</mgrwt>
</event>
<event>
 7    0  0.4737014E-002  0.4569603E+03  0.7546771E-02  0.1025667E+00
         21   -1    0    0  502  501  0.00000000000E+00  0.00000000000E+00  0.78255206071E+03  0.78255206071E+03  0.00000000000E+00 0.  1.
         21   -1    0    0  501  502 -0.00000000000E+00 -0.00000000000E+00 -0.66708881072E+02  0.66708881072E+02  0.00000000000E+00 0.  1.
      99926    2    1    2    0    0  0.00000000000E+00  0.00000000000E+00  0.71584317964E+03  0.84926094179E+03  0.45696027114E+03 0.  0.
      99925    2    3    3    0    0  0.10796847196E+03 -0.22490839455E+02  0.38918054082E+03  0.48249260005E+03  0.26301062137E+03 0.  0.
         25    1    3    3    0    0 -0.10796847196E+03  0.22490839455E+02  0.32666263882E+03  0.36676834174E+03  0.12509000000E+03 0.  0.
         25    1    4    4    0    0  0.79613540531E+02 -0.10924150739E+02  0.15212553482E+03  0.21271421990E+03  0.12509000000E+03 0.  0.
         25    1    4    4    0    0  0.28354931432E+02 -0.11566688716E+02  0.23705500600E+03  0.26977838015E+03  0.12509000000E+03 0.  0.
<mgrwt>
<rscale>  2 0.45696027E+03</rscale>
<asrwt>0</asrwt>
<pdfrwt beam="1">  1       21 0.11508118E+00 0.45696027E+03</pdfrwt>
<pdfrwt beam="2">  1       21 0.98101300E-02 0.45696027E+03</pdfrwt>
<totfact> 0.44779867E+04</totfact>
</mgrwt>
</event>
<event>
 7    0  0.4737014E-002  0.4448935E+03  0.7546771E-02  0.1029256E+00
         21   -1    0    0  502  501  0.00000000000E+00  0.00000000000E+00  0.18948033393E+03  0.18948033393E+03  0.00000000000E+00 0. -1.
         21   -1    0    0  501  502 -0.00000000000E+00 -0.00000000000E+00 -0.26114873994E+03  0.26114873994E+03  0.00000000000E+00 0. -1.
      99926    2    1    2    0    0  0.00000000000E+00  0.17763568394E-14 -0.71668406012E+02  0.45062907388E+03  0.44489347242E+03 0.  0.
      99925    2    3    3    0    0  0.10234679549E+03 -0.12267697310E+02 -0.36872306113E+02  0.28484717012E+03  0.26296954277E+03 0.  0.
         25    1    4    4    0    0  0.45033236997E+02  0.21518091602E+02  0.11415679980E+02  0.13516229707E+03  0.12509000000E+03 0.  0.
         25    1    3    3    0    0 -0.10234679549E+03  0.12267697310E+02 -0.34796099899E+02  0.16578190375E+03  0.12509000000E+03 0.  0.
         25    1    4    4    0    0  0.57313558492E+02 -0.33785788912E+02 -0.48287986093E+02  0.14968487305E+03  0.12509000000E+03 0.  0.
<mgrwt>
<rscale>  2 0.44489347E+03</rscale>
<asrwt>0</asrwt>
<pdfrwt beam="1">  1       21 0.27864755E-01 0.44489347E+03</pdfrwt>
<pdfrwt beam="2">  1       21 0.38404226E-01 0.44489347E+03</pdfrwt>
<totfact> 0.74711084E+04</totfact>
</mgrwt>
</event>
<event>
 7    0  0.4737014E-002  0.4531638E+03  0.7546771E-02  0.1026783E+00
         21   -1    0    0  502  501  0.00000000000E+00  0.00000000000E+00  0.46799393818E+03  0.46799393818E+03  0.00000000000E+00 0.  1.
         21   -1    0    0  501  502 -0.00000000000E+00 -0.00000000000E+00 -0.10970088095E+03  0.10970088095E+03  0.00000000000E+00 0.  1.
      99926    2    1    2    0    0  0.00000000000E+00  0.00000000000E+00  0.35829305724E+03  0.57769481913E+03  0.45316375538E+03 0.  0.
      99925    2    3    3    0    0 -0.82459858857E+02  0.23371142052E+02  0.13487715080E+03  0.30767997889E+03  0.26292448535E+03 0.  0.
         25    1    4    4    0    0 -0.36020045943E+02  0.73097370092E+01  0.22104825345E+02  0.13223844890E+03  0.12509000000E+03 0.  0.
         25    1    3    3    0    0  0.82459858857E+02 -0.23371142052E+02  0.22341590644E+03  0.27001484025E+03  0.12509000000E+03 0.  0.
         25    1    4    4    0    0 -0.46439812915E+02  0.16061405043E+02  0.11277232545E+03  0.17544152998E+03  0.12509000000E+03 0.  0.
<mgrwt>
<rscale>  2 0.45316376E+03</rscale>
<asrwt>0</asrwt>
<pdfrwt beam="1">  1       21 0.68822637E-01 0.45316376E+03</pdfrwt>
<pdfrwt beam="2">  1       21 0.16132483E-01 0.45316376E+03</pdfrwt>
<totfact> 0.60952734E+04</totfact>
</mgrwt>
</event>
<event>
 7    0  0.4737014E-002  0.4525568E+03  0.7546771E-02  0.1026962E+00
         21   -1    0    0  502  501  0.00000000000E+00  0.00000000000E+00  0.32718449023E+03  0.32718449023E+03  0.00000000000E+00 0.  1.
         21   -1    0    0  501  502 -0.00000000000E+00 -0.00000000000E+00 -0.15649250467E+03  0.15649250467E+03  0.00000000000E+00 0.  1.
      99926    2    1    2    0    0 -0.35527136788E-14 -0.26645352591E-14  0.17069198556E+03  0.48367699491E+03  0.45255682678E+03 0.  0.
      99925    2    3    3    0    0 -0.96519222665E+01 -0.49789096816E+01 -0.10389160469E+02  0.26332310069E+03  0.26289384085E+03 0.  0.
         25    1    4    4    0    0 -0.34350009338E+02  0.21258704020E+02 -0.19214123040E+02  0.13284783123E+03  0.12509000000E+03 0.  0.
         25    1    3    3    0    0  0.96519222665E+01  0.49789096816E+01  0.18108114603E+03  0.22035389421E+03  0.12509000000E+03 0.  0.
         25    1    4    4    0    0  0.24698087072E+02 -0.26237613701E+02  0.88249625705E+01  0.13047526947E+03  0.12509000000E+03 0.  0.
<mgrwt>
<rscale>  2 0.45255683E+03</rscale>
<asrwt>0</asrwt>
<pdfrwt beam="1">  1       21 0.48115366E-01 0.45255683E+03</pdfrwt>
<pdfrwt beam="2">  1       21 0.23013604E-01 0.45255683E+03</pdfrwt>
<totfact> 0.67737661E+04</totfact>
</mgrwt>
</event>
<event>
 7    0  0.4737014E-002  0.4584266E+03  0.7546771E-02  0.1025239E+00
         21   -1    0    0  502  501  0.00000000000E+00  0.00000000000E+00  0.49167509742E+03  0.49167509742E+03  0.00000000000E+00 0.  1.
         21   -1    0    0  501  502 -0.00000000000E+00 -0.00000000000E+00 -0.10685661507E+03  0.10685661507E+03  0.00000000000E+00 0.  1.
      99926    2    1    2    0    0 -0.35527136788E-14 -0.71054273576E-14  0.38481848236E+03  0.59853171249E+03  0.45842659880E+03 0.  0.
      99925    2    3    3    0    0  0.22742951201E+02  0.51927701301E+02  0.10813945419E+03  0.28964254026E+03  0.26264982693E+03 0.  0.
         25    1    4    4    0    0 -0.20303457328E+02  0.36617920861E+02  0.77492581617E+02  0.15298925065E+03  0.12509000000E+03 0.  0.
         25    1    4    4    0    0  0.43046408529E+02  0.15309780440E+02  0.30646872576E+02  0.13665328962E+03  0.12509000000E+03 0.  0.
         25    1    3    3    0    0 -0.22742951201E+02 -0.51927701301E+02  0.27667902816E+03  0.30888917222E+03  0.12509000000E+03 0.  0.
<mgrwt>
<rscale>  2 0.45842660E+03</rscale>
<asrwt>0</asrwt>
<pdfrwt beam="1">  1       21 0.72305161E-01 0.45842660E+03</pdfrwt>
<pdfrwt beam="2">  1       21 0.15714208E-01 0.45842660E+03</pdfrwt>
<totfact> 0.57204070E+04</totfact>
</mgrwt>
</event>
<event>
 7    0  0.4737014E-002  0.4512536E+03  0.7546771E-02  0.1027349E+00
         21   -1    0    0  502  501  0.00000000000E+00  0.00000000000E+00  0.84256340629E+02  0.84256340629E+02  0.00000000000E+00 0.  1.
         21   -1    0    0  501  502 -0.00000000000E+00 -0.00000000000E+00 -0.60419729094E+03  0.60419729094E+03  0.00000000000E+00 0.  1.
      99926    2    1    2    0    0 -0.35527136788E-14  0.00000000000E+00 -0.51994095031E+03  0.68845363157E+03  0.45125359944E+03 0.  0.
      99925    2    3    3    0    0  0.21830461723E+02  0.10450427067E+03 -0.28882641103E+03  0.40480041016E+03  0.26276408566E+03 0.  0.
         25    1    3    3    0    0 -0.21830461723E+02 -0.10450427067E+03 -0.23111453928E+03  0.28365322141E+03  0.12509000000E+03 0.  0.
         25    1    4    4    0    0 -0.27999007967E+02  0.42601483853E+02 -0.12773119581E+03  0.18590749677E+03  0.12509000000E+03 0.  0.
         25    1    4    4    0    0  0.49829469691E+02  0.61902786815E+02 -0.16109521522E+03  0.21889291339E+03  0.12509000000E+03 0.  0.
<mgrwt>
<rscale>  2 0.45125360E+03</rscale>
<asrwt>0</asrwt>
<pdfrwt beam="1">  1       21 0.12390638E-01 0.45125360E+03</pdfrwt>
<pdfrwt beam="2">  1       21 0.88852544E-01 0.45125360E+03</pdfrwt>
<totfact> 0.55142873E+04</totfact>
</mgrwt>
</event>
<event>
 7    0  0.4737014E-002  0.4536587E+03  0.7546771E-02  0.1026637E+00
         21   -1    0    0  502  501  0.00000000000E+00  0.00000000000E+00  0.62647319472E+02  0.62647319472E+02  0.00000000000E+00 0.  1.
         21   -1    0    0  501  502 -0.00000000000E+00 -0.00000000000E+00 -0.82128901362E+03  0.82128901362E+03  0.00000000000E+00 0.  1.
      99926    2    1    2    0    0 -0.35527136788E-14 -0.14210854715E-13 -0.75864169415E+03  0.88393633309E+03  0.45365870526E+03 0.  0.
      99925    2    3    3    0    0 -0.23590308264E+02 -0.10379561805E+03 -0.41060517435E+03  0.49908966208E+03  0.26299020633E+03 0.  0.
         25    1    3    3    0    0  0.23590308264E+02  0.10379561805E+03 -0.34803651980E+03  0.38484667101E+03  0.12509000000E+03 0.  0.
         25    1    4    4    0    0 -0.27867487896E+02 -0.90890884888E+02 -0.24617137242E+03  0.29203698830E+03  0.12509000000E+03 0.  0.
         25    1    4    4    0    0  0.42771796319E+01 -0.12904733166E+02 -0.16443380193E+03  0.20705267378E+03  0.12509000000E+03 0.  0.
<mgrwt>
<rscale>  2 0.45365871E+03</rscale>
<asrwt>0</asrwt>
<pdfrwt beam="1">  1       21 0.92128407E-02 0.45365871E+03</pdfrwt>
<pdfrwt beam="2">  1       21 0.12077780E+00 0.45365871E+03</pdfrwt>
<totfact> 0.44400084E+04</totfact>
</mgrwt>
</event>
<event>
 7    0  0.4737014E-002  0.4541533E+03  0.7546771E-02  0.1026491E+00
         21   -1    0    0  502  501  0.00000000000E+00  0.00000000000E+00  0.27600757044E+03  0.27600757044E+03  0.00000000000E+00 0.  1.
         21   -1    0    0  501  502 -0.00000000000E+00 -0.00000000000E+00 -0.18682028958E+03  0.18682028958E+03  0.00000000000E+00 0.  1.
      99926    2    1    2    0    0  0.00000000000E+00  0.00000000000E+00  0.89187280857E+02  0.46282786002E+03  0.45415334078E+03 0.  0.
      99925    2    3    3    0    0 -0.39202212427E+02  0.10459051368E+03  0.43588713580E+02  0.28903854376E+03  0.26299679621E+03 0.  0.
         25    1    4    4    0    0  0.20456211392E+02  0.45796831388E+02  0.12789549301E+02  0.13537683340E+03  0.12509000000E+03 0.  0.
         25    1    4    4    0    0 -0.59658423818E+02  0.58793682287E+02  0.30799164279E+02  0.15366171036E+03  0.12509000000E+03 0.  0.
         25    1    3    3    0    0  0.39202212427E+02 -0.10459051368E+03  0.45598567277E+02  0.17378931627E+03  0.12509000000E+03 0.  0.
<mgrwt>
<rscale>  2 0.45415334E+03</rscale>
<asrwt>0</asrwt>
<pdfrwt beam="1">  1       21 0.40589349E-01 0.45415334E+03</pdfrwt>
<pdfrwt beam="2">  1       21 0.27473572E-01 0.45415334E+03</pdfrwt>
<totfact> 0.68431161E+04</totfact>
</mgrwt>
</event>
<event>
 7    0  0.4737014E-002  0.4581674E+03  0.7546771E-02  0.1025314E+00
         21   -1    0    0  502  501  0.00000000000E+00  0.00000000000E+00  0.78269683777E+02  0.78269683777E+02  0.00000000000E+00 0.  1.
         21   -1    0    0  501  502 -0.00000000000E+00 -0.00000000000E+00 -0.67049395140E+03  0.67049395140E+03  0.00000000000E+00 0.  1.
      99926    2    1    2    0    0  0.00000000000E+00  0.00000000000E+00 -0.59222426762E+03  0.74876363517E+03  0.45816743468E+03 0.  0.
      99925    2    3    3    0    0 -0.99693672543E+02 -0.30989306350E+02 -0.45490014823E+03  0.53568011324E+03  0.26290658685E+03 0.  0.
         25    1    4    4    0    0 -0.79455996189E+02 -0.37116563005E+02 -0.28830896099E+03  0.32628279094E+03  0.12509000000E+03 0.  0.
         25    1    4    4    0    0 -0.20237676354E+02  0.61272566550E+01 -0.16659118725E+03  0.20939732230E+03  0.12509000000E+03 0.  0.
         25    1    3    3    0    0  0.99693672543E+02  0.30989306350E+02 -0.13732411939E+03  0.21308352193E+03  0.12509000000E+03 0.  0.
<mgrwt>
<rscale>  2 0.45816743E+03</rscale>
<asrwt>0</asrwt>
<pdfrwt beam="1">  1       21 0.11510247E-01 0.45816743E+03</pdfrwt>
<pdfrwt beam="2">  1       21 0.98602058E-01 0.45816743E+03</pdfrwt>
<totfact> 0.49100248E+04</totfact>
</mgrwt>
</event>
<event>
 7    0  0.4737014E-002  0.4573615E+03  0.7546771E-02  0.1025549E+00
         21   -1    0    0  502  501  0.00000000000E+00  0.00000000000E+00  0.61478306865E+02  0.61478306865E+02  0.00000000000E+00 0.  1.
         21   -1    0    0  501  502 -0.00000000000E+00 -0.00000000000E+00 -0.85062340000E+03  0.85062340000E+03  0.00000000000E+00 0.  1.
      99926    2    1    2    0    0  0.00000000000E+00  0.00000000000E+00 -0.78914509314E+03  0.91210170686E+03  0.45736150433E+03 0.  0.
      99925    2    3    3    0    0  0.15799447260E+02 -0.43827594978E+02 -0.70600240198E+03  0.75484174436E+03  0.26301366277E+03 0.  0.
         25    1    3    3    0    0 -0.15799447260E+02  0.43827594978E+02 -0.83142691150E+02  0.15725996250E+03  0.12509000000E+03 0.  0.
         25    1    4    4    0    0  0.29284258725E+02 -0.51807676841E+02 -0.31768847532E+03  0.34657622342E+03  0.12509000000E+03 0.  0.
         25    1    4    4    0    0 -0.13484811465E+02  0.79800818630E+01 -0.38831392666E+03  0.40826552094E+03  0.12509000000E+03 0.  0.
<mgrwt>
<rscale>  2 0.45736150E+03</rscale>
<asrwt>0</asrwt>
<pdfrwt beam="1">  1       21 0.90409278E-02 0.45736150E+03</pdfrwt>
<pdfrwt beam="2">  1       21 0.12509167E+00 0.45736150E+03</pdfrwt>
<totfact> 0.41934062E+04</totfact>
</mgrwt>
</event>
<event>
 7    0  0.4737014E-002  0.4522290E+03  0.7546771E-02  0.1027059E+00
         21   -1    0    0  502  501  0.00000000000E+00  0.00000000000E+00  0.21335925002E+03  0.21335925002E+03  0.00000000000E+00 0.  1.
         21   -1    0    0  501  502 -0.00000000000E+00 -0.00000000000E+00 -0.23963233006E+03  0.23963233006E+03  0.00000000000E+00 0.  1.
      99926    2    1    2    0    0  0.66613381478E-15  0.14210854715E-13 -0.26273080044E+02  0.45299158008E+03  0.45222903145E+03 0.  0.
      99925    2    3    3    0    0  0.68202051344E+00  0.10781689031E+03  0.77071260777E+01  0.28438817117E+03  0.26304426456E+03 0.  0.
         25    1    4    4    0    0 -0.11755112758E+02  0.78176858951E+02  0.35728333041E+02  0.15222951696E+03  0.12509000000E+03 0.  0.
         25    1    3    3    0    0 -0.68202051344E+00 -0.10781689031E+03 -0.33980206121E+02  0.16860340891E+03  0.12509000000E+03 0.  0.
         25    1    4    4    0    0  0.12437133272E+02  0.29640031357E+02 -0.28021206963E+02  0.13215865421E+03  0.12509000000E+03 0.  0.
<mgrwt>
<rscale>  2 0.45222903E+03</rscale>
<asrwt>0</asrwt>
<pdfrwt beam="1">  1       21 0.31376360E-01 0.45222903E+03</pdfrwt>
<pdfrwt beam="2">  1       21 0.35240049E-01 0.45222903E+03</pdfrwt>
<totfact> 0.70233205E+04</totfact>
</mgrwt>
</event>
<event>
 7    0  0.4737014E-002  0.4566348E+03  0.7546771E-02  0.1025762E+00
         21   -1    0    0  502  501  0.00000000000E+00  0.00000000000E+00  0.12781824365E+03  0.12781824365E+03  0.00000000000E+00 0.  1.
         21   -1    0    0  501  502 -0.00000000000E+00 -0.00000000000E+00 -0.40783561216E+03  0.40783561216E+03  0.00000000000E+00 0.  1.
      99926    2    1    2    0    0  0.00000000000E+00  0.00000000000E+00 -0.28001736851E+03  0.53565385582E+03  0.45663478469E+03 0.  0.
      99925    2    3    3    0    0 -0.65173730343E+02  0.65051153841E+02 -0.95847764728E+02  0.29472810211E+03  0.26305625335E+03 0.  0.
         25    1    4    4    0    0 -0.55250016545E+02  0.28903350549E+02 -0.13669005481E+02  0.14043616989E+03  0.12509000000E+03 0.  0.
         25    1    3    3    0    0  0.65173730343E+02 -0.65051153841E+02 -0.18416960378E+03  0.24092575371E+03  0.12509000000E+03 0.  0.
         25    1    4    4    0    0 -0.99237137977E+01  0.36147803292E+02 -0.82178759248E+02  0.15429193223E+03  0.12509000000E+03 0.  0.
<mgrwt>
<rscale>  2 0.45663478E+03</rscale>
<asrwt>0</asrwt>
<pdfrwt beam="1">  1       21 0.18796801E-01 0.45663478E+03</pdfrwt>
<pdfrwt beam="2">  1       21 0.59975825E-01 0.45663478E+03</pdfrwt>
<totfact> 0.62017933E+04</totfact>
</mgrwt>
</event>
<event>
 7    0  0.4737014E-002  0.4549367E+03  0.7546771E-02  0.1026260E+00
         21   -1    0    0  502  501  0.00000000000E+00  0.00000000000E+00  0.35893396761E+03  0.35893396761E+03  0.00000000000E+00 0.  1.
         21   -1    0    0  501  502 -0.00000000000E+00 -0.00000000000E+00 -0.14415423484E+03  0.14415423484E+03  0.00000000000E+00 0.  1.
      99926    2    1    2    0    0  0.00000000000E+00  0.00000000000E+00  0.21477973277E+03  0.50308820245E+03  0.45493670531E+03 0.  0.
      99925    2    3    3    0    0  0.19621948362E+02 -0.94986302438E+02  0.19951240845E+03  0.34406613543E+03  0.26299978311E+03 0.  0.
         25    1    4    4    0    0  0.13510067174E+02 -0.13618594406E+02  0.12207163062E+03  0.17583224713E+03  0.12509000000E+03 0.  0.
         25    1    3    3    0    0 -0.19621948362E+02  0.94986302438E+02  0.15267324315E+02  0.15902206702E+03  0.12509000000E+03 0.  0.
         25    1    4    4    0    0  0.61118811876E+01 -0.81367708033E+02  0.77440777829E+02  0.16823388830E+03  0.12509000000E+03 0.  0.
<mgrwt>
<rscale>  2 0.45493671E+03</rscale>
<asrwt>0</asrwt>
<pdfrwt beam="1">  1       21 0.52784407E-01 0.45493671E+03</pdfrwt>
<pdfrwt beam="2">  1       21 0.21199152E-01 0.45493671E+03</pdfrwt>
<totfact> 0.65086941E+04</totfact>
</mgrwt>
</event>
<event>
 7    0  0.4737014E-002  0.4547478E+03  0.7546771E-02  0.1026316E+00
         21   -1    0    0  502  501  0.00000000000E+00  0.00000000000E+00  0.16600941187E+03  0.16600941187E+03  0.00000000000E+00 0. -1.
         21   -1    0    0  501  502 -0.00000000000E+00 -0.00000000000E+00 -0.31142148696E+03  0.31142148696E+03  0.00000000000E+00 0. -1.
      99926    2    1    2    0    0  0.17763568394E-14  0.00000000000E+00 -0.14541207510E+03  0.47743089883E+03  0.45474783295E+03 0.  0.
      99925    2    3    3    0    0 -0.10292323472E+02  0.84956140363E+01  0.26196880927E+02  0.26465108478E+03  0.26301295163E+03 0.  0.
         25    1    4    4    0    0 -0.19725009845E+02 -0.14774850830E+02  0.45997734431E+02  0.13553845175E+03  0.12509000000E+03 0.  0.
         25    1    3    3    0    0  0.10292323472E+02 -0.84956140363E+01 -0.17160895602E+03  0.21277981405E+03  0.12509000000E+03 0.  0.
         25    1    4    4    0    0  0.94326863730E+01  0.23270464866E+02 -0.19800853504E+02  0.12911263303E+03  0.12509000000E+03 0.  0.
<mgrwt>
<rscale>  2 0.45474783E+03</rscale>
<asrwt>0</asrwt>
<pdfrwt beam="1">  1       21 0.24413149E-01 0.45474783E+03</pdfrwt>
<pdfrwt beam="2">  1       21 0.45797277E-01 0.45474783E+03</pdfrwt>
<totfact> 0.67021622E+04</totfact>
</mgrwt>
</event>
<event>
 7    0  0.4737014E-002  0.4562835E+03  0.7546771E-02  0.1025865E+00
         21   -1    0    0  502  501  0.00000000000E+00  0.00000000000E+00  0.10124274279E+04  0.10124274279E+04  0.00000000000E+00 0.  1.
         21   -1    0    0  501  502 -0.00000000000E+00 -0.00000000000E+00 -0.51409767009E+02  0.51409767009E+02  0.00000000000E+00 0.  1.
      99926    2    1    2    0    0  0.14210854715E-13 -0.35527136788E-14  0.96101766084E+03  0.10638371949E+04  0.45628350038E+03 0.  0.
      99925    2    3    3    0    0  0.80842638513E+02 -0.18354750050E+02  0.42074087077E+03  0.50310646890E+03  0.26309847901E+03 0.  0.
         25    1    4    4    0    0  0.48742189524E+02 -0.14372114280E+02  0.14236850005E+03  0.19621074541E+03  0.12509000000E+03 0.  0.
         25    1    3    3    0    0 -0.80842638513E+02  0.18354750050E+02  0.54027679007E+03  0.56073072596E+03  0.12509000000E+03 0.  0.
         25    1    4    4    0    0  0.32100448989E+02 -0.39826357700E+01  0.27837237072E+03  0.30689572349E+03  0.12509000000E+03 0.  0.
<mgrwt>
<rscale>  2 0.45628350E+03</rscale>
<asrwt>0</asrwt>
<pdfrwt beam="1">  1       21 0.14888637E+00 0.45628350E+03</pdfrwt>
<pdfrwt beam="2">  1       21 0.75602605E-02 0.45628350E+03</pdfrwt>
<totfact> 0.36407677E+04</totfact>
</mgrwt>
</event>
<event>
 7    0  0.4737014E-002  0.4431648E+03  0.7546771E-02  0.1029780E+00
         21   -1    0    0  502  501  0.00000000000E+00  0.00000000000E+00  0.44671220744E+03  0.44671220744E+03  0.00000000000E+00 0.  1.
         21   -1    0    0  501  502 -0.00000000000E+00 -0.00000000000E+00 -0.10991141294E+03  0.10991141294E+03  0.00000000000E+00 0.  1.
      99926    2    1    2    0    0  0.17763568394E-14  0.00000000000E+00  0.33680079450E+03  0.55662362038E+03  0.44316484471E+03 0.  0.
      99925    2    3    3    0    0  0.13351388637E+02 -0.98798012786E+02  0.19026497244E+03  0.33969146012E+03  0.26315436806E+03 0.  0.
         25    1    4    4    0    0 -0.12116551209E+02 -0.31017797568E+02  0.51463529163E+02  0.13930153450E+03  0.12509000000E+03 0.  0.
         25    1    3    3    0    0 -0.13351388637E+02  0.98798012786E+02  0.14653582206E+03  0.21693216026E+03  0.12509000000E+03 0.  0.
         25    1    4    4    0    0  0.25467939846E+02 -0.67780215218E+02  0.13880144327E+03  0.20038992562E+03  0.12509000000E+03 0.  0.
<mgrwt>
<rscale>  2 0.44316484E+03</rscale>
<asrwt>0</asrwt>
<pdfrwt beam="1">  1       21 0.65692971E-01 0.44316484E+03</pdfrwt>
<pdfrwt beam="2">  1       21 0.16163443E-01 0.44316484E+03</pdfrwt>
<totfact> 0.67535009E+04</totfact>
</mgrwt>
</event>
<event>
 7    0  0.4737014E-002  0.4519283E+03  0.7546771E-02  0.1027149E+00
         21   -1    0    0  502  501  0.00000000000E+00  0.00000000000E+00  0.79369584492E+02  0.79369584492E+02  0.00000000000E+00 0. -1.
         21   -1    0    0  501  502 -0.00000000000E+00 -0.00000000000E+00 -0.64331693485E+03  0.64331693485E+03  0.00000000000E+00 0. -1.
      99926    2    1    2    0    0  0.14210854715E-13  0.00000000000E+00 -0.56394735036E+03  0.72268651934E+03  0.45192830323E+03 0.  0.
      99925    2    3    3    0    0 -0.93021708039E+02  0.32711515099E+02 -0.27164197892E+03  0.38980062349E+03  0.26159525985E+03 0.  0.
         25    1    4    4    0    0 -0.28174782334E+02 -0.14744027108E+02 -0.10422375807E+03  0.16589546269E+03  0.12509000000E+03 0.  0.
         25    1    3    3    0    0  0.93021708039E+02 -0.32711515099E+02 -0.29230537144E+03  0.33288589585E+03  0.12509000000E+03 0.  0.
         25    1    4    4    0    0 -0.64846925705E+02  0.47455542208E+02 -0.16741822085E+03  0.22390516080E+03  0.12509000000E+03 0.  0.
<mgrwt>
<rscale>  2 0.45192830E+03</rscale>
<asrwt>0</asrwt>
<pdfrwt beam="1">  1       21 0.11671997E-01 0.45192830E+03</pdfrwt>
<pdfrwt beam="2">  1       21 0.94605435E-01 0.45192830E+03</pdfrwt>
<totfact> 0.52956331E+04</totfact>
</mgrwt>
</event>
<event>
 7    0  0.4737014E-002  0.4479918E+03  0.7546771E-02  0.1028323E+00
         21   -1    0    0  502  501  0.00000000000E+00  0.00000000000E+00  0.29156559692E+03  0.29156559692E+03  0.00000000000E+00 0. -1.
         21   -1    0    0  501  502 -0.00000000000E+00 -0.00000000000E+00 -0.17208536155E+03  0.17208536155E+03  0.00000000000E+00 0. -1.
      99926    2    1    2    0    0  0.00000000000E+00  0.35527136788E-14  0.11948023538E+03  0.46365095847E+03  0.44799183547E+03 0.  0.
      99925    2    3    3    0    0  0.10487190185E+03 -0.17121712418E+02  0.81187825635E+02  0.29511287501E+03  0.26307580111E+03 0.  0.
         25    1    3    3    0    0 -0.10487190185E+03  0.17121712418E+02  0.38292409741E+02  0.16853808346E+03  0.12509000000E+03 0.  0.
         25    1    4    4    0    0  0.95502146384E+02 -0.14306014691E+02  0.39405014919E+02  0.16286677169E+03  0.12509000000E+03 0.  0.
         25    1    4    4    0    0  0.93697554641E+01 -0.28156977264E+01  0.41782810716E+02  0.13224610332E+03  0.12509000000E+03 0.  0.
<mgrwt>
<rscale>  2 0.44799184E+03</rscale>
<asrwt>0</asrwt>
<pdfrwt beam="1">  1       21 0.42877294E-01 0.44799184E+03</pdfrwt>
<pdfrwt beam="2">  1       21 0.25306671E-01 0.44799184E+03</pdfrwt>
<totfact> 0.71821421E+04</totfact>
</mgrwt>
</event>
<event>
 7    0  0.4737014E-002  0.4545487E+03  0.7546771E-02  0.1026374E+00
         21   -1    0    0  502  501  0.00000000000E+00  0.00000000000E+00  0.75734461924E+03  0.75734461924E+03  0.00000000000E+00 0.  1.
         21   -1    0    0  501  502 -0.00000000000E+00 -0.00000000000E+00 -0.68203610007E+02  0.68203610007E+02  0.00000000000E+00 0.  1.
      99926    2    1    2    0    0  0.00000000000E+00  0.00000000000E+00  0.68914100923E+03  0.82554822925E+03  0.45454873029E+03 0.  0.
      99925    2    3    3    0    0 -0.61174829703E+02 -0.63377248470E+02  0.56171332960E+03  0.62643932174E+03  0.26295498428E+03 0.  0.
         25    1    4    4    0    0 -0.67700434542E+02 -0.51848133929E+02  0.31654847158E+03  0.35088747596E+03  0.12509000000E+03 0.  0.
         25    1    4    4    0    0  0.65256048391E+01 -0.11529114541E+02  0.24516485802E+03  0.27555184577E+03  0.12509000000E+03 0.  0.
         25    1    3    3    0    0  0.61174829703E+02  0.63377248470E+02  0.12742767963E+03  0.19910890751E+03  0.12509000000E+03 0.  0.
<mgrwt>
<rscale>  2 0.45454873E+03</rscale>
<asrwt>0</asrwt>
<pdfrwt beam="1">  1       21 0.11137420E+00 0.45454873E+03</pdfrwt>
<pdfrwt beam="2">  1       21 0.10029943E-01 0.45454873E+03</pdfrwt>
<totfact> 0.46718980E+04</totfact>
</mgrwt>
</event>
<event>
 7    0  0.4737014E-002  0.4534607E+03  0.7546771E-02  0.1026695E+00
         21   -1    0    0  502  501  0.00000000000E+00  0.00000000000E+00  0.19583909359E+03  0.19583909359E+03  0.00000000000E+00 0.  1.
         21   -1    0    0  501  502 -0.00000000000E+00 -0.00000000000E+00 -0.26249434072E+03  0.26249434072E+03  0.00000000000E+00 0.  1.
      99926    2    1    2    0    0  0.00000000000E+00  0.00000000000E+00 -0.66655247139E+02  0.45833343431E+03  0.45346070947E+03 0.  0.
      99925    2    3    3    0    0 -0.72665228673E+02  0.83171212325E+02 -0.24910097057E+02  0.28632223795E+03  0.26298711944E+03 0.  0.
         25    1    4    4    0    0 -0.16703533770E+02  0.62593368304E+01 -0.26796495187E+02  0.12916558207E+03  0.12509000000E+03 0.  0.
         25    1    4    4    0    0 -0.55961694903E+02  0.76911875494E+02  0.18863981303E+01  0.15715665588E+03  0.12509000000E+03 0.  0.
         25    1    3    3    0    0  0.72665228673E+02 -0.83171212325E+02 -0.41745150082E+02  0.17201119636E+03  0.12509000000E+03 0.  0.
<mgrwt>
<rscale>  2 0.45346071E+03</rscale>
<asrwt>0</asrwt>
<pdfrwt beam="1">  1       21 0.28799867E-01 0.45346071E+03</pdfrwt>
<pdfrwt beam="2">  1       21 0.38602109E-01 0.45346071E+03</pdfrwt>
<totfact> 0.69147114E+04</totfact>
</mgrwt>
</event>
<event>
 7    0  0.4737014E-002  0.4593658E+03  0.7546771E-02  0.1024965E+00
         21   -1    0    0  502  501  0.00000000000E+00  0.00000000000E+00  0.18336549872E+02  0.18336549872E+02  0.00000000000E+00 0.  1.
         21   -1    0    0  501  502 -0.00000000000E+00 -0.00000000000E+00 -0.28769992260E+04  0.28769992260E+04  0.00000000000E+00 0.  1.
      99926    2    1    2    0    0  0.00000000000E+00  0.00000000000E+00 -0.28586626761E+04  0.28953357758E+04  0.45936582280E+03 0.  0.
      99925    2    3    3    0    0 -0.65962683082E+02 -0.82707063997E+02 -0.14741175870E+04  0.15011320081E+04  0.26302682678E+03 0.  0.
         25    1    4    4    0    0 -0.11957035998E+02 -0.72524635733E+02 -0.84300569225E+03  0.85539984730E+03  0.12509000000E+03 0.  0.
         25    1    3    3    0    0  0.65962683082E+02  0.82707063997E+02 -0.13845450891E+04  0.13942037677E+04  0.12509000000E+03 0.  0.
         25    1    4    4    0    0 -0.54005647084E+02 -0.10182428264E+02 -0.63111189472E+03  0.64573216083E+03  0.12509000000E+03 0.  0.
<mgrwt>
<rscale>  2 0.45936582E+03</rscale>
<asrwt>0</asrwt>
<pdfrwt beam="1">  1       21 0.26965540E-02 0.45936582E+03</pdfrwt>
<pdfrwt beam="2">  1       21 0.42308772E+00 0.45936582E+03</pdfrwt>
<totfact> 0.37446443E+03</totfact>
</mgrwt>
</event>
<event>
 7    0  0.4737014E-002  0.4507739E+03  0.7546771E-02  0.1027492E+00
         21   -1    0    0  502  501  0.00000000000E+00  0.00000000000E+00  0.85606592677E+02  0.85606592677E+02  0.00000000000E+00 0.  1.
         21   -1    0    0  501  502 -0.00000000000E+00 -0.00000000000E+00 -0.59340385542E+03  0.59340385542E+03  0.00000000000E+00 0.  1.
      99926    2    1    2    0    0 -0.35527136788E-14  0.00000000000E+00 -0.50779726275E+03  0.67901044810E+03  0.45077392180E+03 0.  0.
      99925    2    3    3    0    0 -0.28216036459E+02  0.81509742687E+02 -0.42150752860E+03  0.50427233210E+03  0.26302472390E+03 0.  0.
         25    1    4    4    0    0  0.14096206741E+02  0.14657676685E+02 -0.22531830751E+03  0.25851382619E+03  0.12509000000E+03 0.  0.
         25    1    3    3    0    0  0.28216036459E+02 -0.81509742687E+02 -0.86289734144E+02  0.17473811600E+03  0.12509000000E+03 0.  0.
         25    1    4    4    0    0 -0.42312243200E+02  0.66852066002E+02 -0.19618922109E+03  0.24575850591E+03  0.12509000000E+03 0.  0.
<mgrwt>
<rscale>  2 0.45077392E+03</rscale>
<asrwt>0</asrwt>
<pdfrwt beam="1">  1       21 0.12589205E-01 0.45077392E+03</pdfrwt>
<pdfrwt beam="2">  1       21 0.87265274E-01 0.45077392E+03</pdfrwt>
<totfact> 0.55894844E+04</totfact>
</mgrwt>
</event>
<event>
 7    0  0.4737014E-002  0.4579547E+03  0.7546771E-02  0.1025376E+00
         21   -1    0    0  502  501  0.00000000000E+00  0.00000000000E+00  0.59595753880E+02  0.59595753880E+02  0.00000000000E+00 0.  1.
         21   -1    0    0  501  502 -0.00000000000E+00 -0.00000000000E+00 -0.87977131867E+03  0.87977131867E+03  0.00000000000E+00 0.  1.
      99926    2    1    2    0    0  0.71054273576E-14  0.00000000000E+00 -0.82017556479E+03  0.93936707255E+03  0.45795473566E+03 0.  0.
      99925    2    3    3    0    0  0.50300812949E+02 -0.99384459291E+01 -0.72797150064E+03  0.77572709566E+03  0.26302295852E+03 0.  0.
         25    1    4    4    0    0  0.64541819904E+02 -0.17206457212E+02 -0.39345067464E+03  0.41822559721E+03  0.12509000000E+03 0.  0.
         25    1    3    3    0    0 -0.50300812949E+02  0.99384459291E+01 -0.92204064151E+02  0.16363997689E+03  0.12509000000E+03 0.  0.
         25    1    4    4    0    0 -0.14241006955E+02  0.72680112826E+01 -0.33452082600E+03  0.35750149845E+03  0.12509000000E+03 0.  0.
<mgrwt>
<rscale>  2 0.45795474E+03</rscale>
<asrwt>0</asrwt>
<pdfrwt beam="1">  1       21 0.87640819E-02 0.45795474E+03</pdfrwt>
<pdfrwt beam="2">  1       21 0.12937813E+00 0.45795474E+03</pdfrwt>
<totfact> 0.40627401E+04</totfact>
</mgrwt>
</event>
<event>
 7    0  0.4737014E-002  0.4550228E+03  0.7546771E-02  0.1026235E+00
         21   -1    0    0  502  501  0.00000000000E+00  0.00000000000E+00  0.42612581029E+03  0.42612581029E+03  0.00000000000E+00 0. -1.
         21   -1    0    0  501  502 -0.00000000000E+00 -0.00000000000E+00 -0.12146987300E+03  0.12146987300E+03  0.00000000000E+00 0. -1.
      99926    2    1    2    0    0  0.35527136788E-14 -0.35527136788E-14  0.30465593729E+03  0.54759568329E+03  0.45502284804E+03 0.  0.
      99925    2    3    3    0    0  0.24849820364E+02 -0.21097249947E+02  0.32215654854E+03  0.41714880897E+03  0.26299368724E+03 0.  0.
         25    1    4    4    0    0  0.12227167698E+02 -0.46692600999E+02  0.19381940487E+03  0.23567599034E+03  0.12509000000E+03 0.  0.
         25    1    4    4    0    0  0.12622652666E+02  0.25595351052E+02  0.12833714367E+03  0.18147281863E+03  0.12509000000E+03 0.  0.
         25    1    3    3    0    0 -0.24849820364E+02  0.21097249947E+02 -0.17500611248E+02  0.13044687433E+03  0.12509000000E+03 0.  0.
<mgrwt>
<rscale>  2 0.45502285E+03</rscale>
<asrwt>0</asrwt>
<pdfrwt beam="1">  1       21 0.62665560E-01 0.45502285E+03</pdfrwt>
<pdfrwt beam="2">  1       21 0.17863217E-01 0.45502285E+03</pdfrwt>
<totfact> 0.62014460E+04</totfact>
</mgrwt>
</event>
<event>
 7    0  0.4737014E-002  0.4504125E+03  0.7546771E-02  0.1027599E+00
         21   -1    0    0  502  501  0.00000000000E+00  0.00000000000E+00  0.39447127346E+03  0.39447127346E+03  0.00000000000E+00 0. -1.
         21   -1    0    0  501  502 -0.00000000000E+00 -0.00000000000E+00 -0.12857175881E+03  0.12857175881E+03  0.00000000000E+00 0. -1.
      99926    2    1    2    0    0  0.71054273576E-14  0.35527136788E-14  0.26589951465E+03  0.52304303227E+03  0.45041254613E+03 0.  0.
      99925    2    3    3    0    0  0.35921149035E+02 -0.18216309956E+02  0.28539064946E+03  0.39019132798E+03  0.26301955579E+03 0.  0.
         25    1    4    4    0    0  0.52614317844E+02  0.12068257880E+02  0.15041166765E+03  0.20294109282E+03  0.12509000000E+03 0.  0.
         25    1    3    3    0    0 -0.35921149035E+02  0.18216309956E+02 -0.19491134819E+02  0.13285170429E+03  0.12509000000E+03 0.  0.
         25    1    4    4    0    0 -0.16693168808E+02 -0.30284567836E+02  0.13497898182E+03  0.18725023516E+03  0.12509000000E+03 0.  0.
<mgrwt>
<rscale>  2 0.45041255E+03</rscale>
<asrwt>0</asrwt>
<pdfrwt beam="1">  1       21 0.58010481E-01 0.45041255E+03</pdfrwt>
<pdfrwt beam="2">  1       21 0.18907612E-01 0.45041255E+03</pdfrwt>
<totfact> 0.66049327E+04</totfact>
</mgrwt>
</event>
<event>
 7    0  0.4737014E-002  0.4492225E+03  0.7546771E-02  0.1027954E+00
         21   -1    0    0  502  501  0.00000000000E+00  0.00000000000E+00  0.10901912755E+03  0.10901912755E+03  0.00000000000E+00 0.  1.
         21   -1    0    0  501  502 -0.00000000000E+00 -0.00000000000E+00 -0.46276485036E+03  0.46276485036E+03  0.00000000000E+00 0.  1.
      99926    2    1    2    0    0  0.00000000000E+00  0.00000000000E+00 -0.35374572280E+03  0.57178397791E+03  0.44922252948E+03 0.  0.
      99925    2    3    3    0    0 -0.42382511273E+02 -0.82511117799E+02 -0.15330859836E+03  0.31795941098E+03  0.26266004431E+03 0.  0.
         25    1    4    4    0    0 -0.61002320827E+02 -0.47303395176E+02 -0.73739384716E+02  0.16445029431E+03  0.12509000000E+03 0.  0.
         25    1    4    4    0    0  0.18619809554E+02 -0.35207722624E+02 -0.79569213646E+02  0.15350911667E+03  0.12509000000E+03 0.  0.
         25    1    3    3    0    0  0.42382511273E+02  0.82511117799E+02 -0.20043712444E+03  0.25382456693E+03  0.12509000000E+03 0.  0.
<mgrwt>
<rscale>  2 0.44922253E+03</rscale>
<asrwt>0</asrwt>
<pdfrwt beam="1">  1       21 0.16032225E-01 0.44922253E+03</pdfrwt>
<pdfrwt beam="2">  1       21 0.68053653E-01 0.44922253E+03</pdfrwt>
<totfact> 0.63291812E+04</totfact>
</mgrwt>
</event>
<event>
 7    0  0.4737014E-002  0.4561717E+03  0.7546771E-02  0.1025897E+00
         21   -1    0    0  502  501  0.00000000000E+00  0.00000000000E+00  0.50128268713E+03  0.50128268713E+03  0.00000000000E+00 0. -1.
         21   -1    0    0  501  502 -0.00000000000E+00 -0.00000000000E+00 -0.10378006745E+03  0.10378006745E+03  0.00000000000E+00 0. -1.
      99926    2    1    2    0    0 -0.71054273576E-14  0.00000000000E+00  0.39750261969E+03  0.60506275458E+03  0.45617168294E+03 0.  0.
      99925    2    3    3    0    0 -0.54867053178E+02 -0.82717566997E+02  0.17469766051E+03  0.33094207431E+03  0.26296538660E+03 0.  0.
         25    1    4    4    0    0 -0.37139641941E+02 -0.63413442941E+02  0.52983169843E+02  0.15445174695E+03  0.12509000000E+03 0.  0.
         25    1    3    3    0    0  0.54867053178E+02  0.82717566997E+02  0.22280495918E+03  0.27412068026E+03  0.12509000000E+03 0.  0.
         25    1    4    4    0    0 -0.17727411237E+02 -0.19304124056E+02  0.12171449067E+03  0.17649032736E+03  0.12509000000E+03 0.  0.
<mgrwt>
<rscale>  2 0.45617168E+03</rscale>
<asrwt>0</asrwt>
<pdfrwt beam="1">  1       21 0.73718041E-01 0.45617168E+03</pdfrwt>
<pdfrwt beam="2">  1       21 0.15261775E-01 0.45617168E+03</pdfrwt>
<totfact> 0.57830553E+04</totfact>
</mgrwt>
</event>
<event>
 7    0  0.4737014E-002  0.4499343E+03  0.7546771E-02  0.1027742E+00
         21   -1    0    0  502  501  0.00000000000E+00  0.00000000000E+00  0.38767557462E+03  0.38767557462E+03  0.00000000000E+00 0. -1.
         21   -1    0    0  501  502 -0.00000000000E+00 -0.00000000000E+00 -0.13054784760E+03  0.13054784760E+03  0.00000000000E+00 0. -1.
      99926    2    1    2    0    0  0.00000000000E+00  0.14210854715E-13  0.25712772701E+03  0.51822342222E+03  0.44993427002E+03 0.  0.
      99925    2    3    3    0    0  0.14993616461E+02 -0.10104625480E+03  0.12112192422E+03  0.30708308823E+03  0.26304818648E+03 0.  0.
         25    1    3    3    0    0 -0.14993616461E+02  0.10104625480E+03  0.13600580280E+03  0.21114033399E+03  0.12509000000E+03 0.  0.
         25    1    4    4    0    0  0.92193267013E+01 -0.72842712255E+01  0.58226860812E+02  0.13847718950E+03  0.12509000000E+03 0.  0.
         25    1    4    4    0    0  0.57742897601E+01 -0.93761983573E+02  0.62895063405E+02  0.16860589873E+03  0.12509000000E+03 0.  0.
<mgrwt>
<rscale>  2 0.44993427E+03</rscale>
<asrwt>0</asrwt>
<pdfrwt beam="1">  1       21 0.57011114E-01 0.44993427E+03</pdfrwt>
<pdfrwt beam="2">  1       21 0.19198213E-01 0.44993427E+03</pdfrwt>
<totfact> 0.66646898E+04</totfact>
</mgrwt>
</event>
<event>
 7    0  0.4737014E-002  0.4555509E+03  0.7546771E-02  0.1026080E+00
         21   -1    0    0  502  501  0.00000000000E+00  0.00000000000E+00  0.43193922907E+02  0.43193922907E+02  0.00000000000E+00 0. -1.
         21   -1    0    0  501  502 -0.00000000000E+00 -0.00000000000E+00 -0.12011331366E+04  0.12011331366E+04  0.00000000000E+00 0. -1.
      99926    2    1    2    0    0  0.00000000000E+00 -0.71054273576E-14 -0.11579392137E+04  0.12443270595E+04  0.45555088455E+03 0.  0.
      99925    2    3    3    0    0  0.49542200568E+02  0.39587836660E+02 -0.47140282119E+03  0.54361217257E+03  0.26319564565E+03 0.  0.
         25    1    4    4    0    0  0.64870330872E+02  0.12727086689E+02 -0.26120610016E+03  0.29706274324E+03  0.12509000000E+03 0.  0.
         25    1    4    4    0    0 -0.15328130303E+02  0.26860749970E+02 -0.21019672103E+03  0.24654942932E+03  0.12509000000E+03 0.  0.
         25    1    3    3    0    0 -0.49542200568E+02 -0.39587836660E+02 -0.68653639253E+03  0.70071488696E+03  0.12509000000E+03 0.  0.
<mgrwt>
<rscale>  2 0.45555088E+03</rscale>
<asrwt>0</asrwt>
<pdfrwt beam="1">  1       21 0.63520479E-02 0.45555088E+03</pdfrwt>
<pdfrwt beam="2">  1       21 0.17663721E+00 0.45555088E+03</pdfrwt>
<totfact> 0.30643752E+04</totfact>
</mgrwt>
</event>
<event>
 7    0  0.4737014E-002  0.4562365E+03  0.7546771E-02  0.1025878E+00
         21   -1    0    0  502  501  0.00000000000E+00  0.00000000000E+00  0.16864510150E+03  0.16864510150E+03  0.00000000000E+00 0. -1.
         21   -1    0    0  501  502 -0.00000000000E+00 -0.00000000000E+00 -0.30856476740E+03  0.30856476740E+03  0.00000000000E+00 0. -1.
      99926    2    1    2    0    0  0.00000000000E+00 -0.17763568394E-14 -0.13991966590E+03  0.47720986890E+03  0.45623650234E+03 0.  0.
      99925    2    3    3    0    0  0.95840763109E+02 -0.14570265862E+02 -0.23681484734E+02  0.28085160607E+03  0.26252441295E+03 0.  0.
         25    1    4    4    0    0  0.61705304614E+02  0.20269148774E+02  0.13344985988E+02  0.14157676278E+03  0.12509000000E+03 0.  0.
         25    1    4    4    0    0  0.34135458495E+02 -0.34839414637E+02 -0.37026470722E+02  0.13927484329E+03  0.12509000000E+03 0.  0.
         25    1    3    3    0    0 -0.95840763109E+02  0.14570265862E+02 -0.11623818116E+03  0.19635826283E+03  0.12509000000E+03 0.  0.
<mgrwt>
<rscale>  2 0.45623650E+03</rscale>
<asrwt>0</asrwt>
<pdfrwt beam="1">  1       21 0.24800750E-01 0.45623650E+03</pdfrwt>
<pdfrwt beam="2">  1       21 0.45377172E-01 0.45623650E+03</pdfrwt>
<totfact> 0.66251227E+04</totfact>
</mgrwt>
</event>
<event>
 7    0  0.4737014E-002  0.4556446E+03  0.7546771E-02  0.1026052E+00
         21   -1    0    0  502  501  0.00000000000E+00  0.00000000000E+00  0.44891343558E+03  0.44891343558E+03  0.00000000000E+00 0. -1.
         21   -1    0    0  501  502 -0.00000000000E+00 -0.00000000000E+00 -0.11561918429E+03  0.11561918429E+03  0.00000000000E+00 0. -1.
      99926    2    1    2    0    0 -0.71054273576E-14  0.00000000000E+00  0.33329425129E+03  0.56453261987E+03  0.45564462133E+03 0.  0.
      99925    2    3    3    0    0 -0.58321859522E+02 -0.94835812267E+02  0.18097667216E+03  0.33816251672E+03  0.26307044924E+03 0.  0.
         25    1    4    4    0    0 -0.51448251306E+02 -0.63751100078E+02  0.59559858871E+02  0.16095344113E+03  0.12509000000E+03 0.  0.
         25    1    3    3    0    0  0.58321859522E+02  0.94835812267E+02  0.15231757912E+03  0.22637010314E+03  0.12509000000E+03 0.  0.
         25    1    4    4    0    0 -0.68736082154E+01 -0.31084712189E+02  0.12141681329E+03  0.17720907559E+03  0.12509000000E+03 0.  0.
<mgrwt>
<rscale>  2 0.45564462E+03</rscale>
<asrwt>0</asrwt>
<pdfrwt beam="1">  1       21 0.66016681E-01 0.45564462E+03</pdfrwt>
<pdfrwt beam="2">  1       21 0.17002821E-01 0.45564462E+03</pdfrwt>
<totfact> 0.60606696E+04</totfact>
</mgrwt>
</event>
<event>
 7    0  0.4737014E-002  0.4416563E+03  0.7546771E-02  0.1030240E+00
         21   -1    0    0  502  501  0.00000000000E+00  0.00000000000E+00  0.13317284605E+03  0.13317284605E+03  0.00000000000E+00 0.  1.
         21   -1    0    0  501  502 -0.00000000000E+00 -0.00000000000E+00 -0.36617873682E+03  0.36617873682E+03  0.00000000000E+00 0.  1.
      99926    2    1    2    0    0 -0.28310687128E-14  0.00000000000E+00 -0.23300589077E+03  0.49935158287E+03  0.44165626700E+03 0.  0.
      99925    2    3    3    0    0  0.47696064395E+00  0.93053908820E+02 -0.10667955159E+03  0.29868990365E+03  0.26301306883E+03 0.  0.
         25    1    3    3    0    0 -0.47696064395E+00 -0.93053908820E+02 -0.12632633917E+03  0.20066167922E+03  0.12509000000E+03 0.  0.
         25    1    4    4    0    0  0.35817203511E+02  0.37363884320E+02 -0.70911020190E+02  0.15282281506E+03  0.12509000000E+03 0.  0.
         25    1    4    4    0    0 -0.35340242867E+02  0.55690024499E+02 -0.35768531405E+02  0.14586708859E+03  0.12509000000E+03 0.  0.
<mgrwt>
<rscale>  2 0.44165627E+03</rscale>
<asrwt>0</asrwt>
<pdfrwt beam="1">  1       21 0.19584243E-01 0.44165627E+03</pdfrwt>
<pdfrwt beam="2">  1       21 0.53849813E-01 0.44165627E+03</pdfrwt>
<totfact> 0.72717749E+04</totfact>
</mgrwt>
</event>
<event>
 7    0  0.4737014E-002  0.4560548E+03  0.7546771E-02  0.1025932E+00
         21   -1    0    0  502  501  0.00000000000E+00  0.00000000000E+00  0.82222116883E+03  0.82222116883E+03  0.00000000000E+00 0. -1.
         21   -1    0    0  501  502 -0.00000000000E+00 -0.00000000000E+00 -0.63239069316E+02  0.63239069316E+02  0.00000000000E+00 0. -1.
      99926    2    1    2    0    0 -0.14210854715E-13 -0.71054273576E-14  0.75898209951E+03  0.88546023815E+03  0.45605482780E+03 0.  0.
      99925    2    3    3    0    0  0.75569591790E+02  0.45812009176E+02  0.61747378866E+03  0.67693778485E+03  0.26298551573E+03 0.  0.
         25    1    3    3    0    0 -0.75569591790E+02 -0.45812009176E+02  0.14150831085E+03  0.20852245329E+03  0.12509000000E+03 0.  0.
         25    1    4    4    0    0  0.44536649431E+02  0.16245718156E+02  0.40655073822E+03  0.42799351321E+03  0.12509000000E+03 0.  0.
         25    1    4    4    0    0  0.31032942358E+02  0.29566291020E+02  0.21092305045E+03  0.24894427165E+03  0.12509000000E+03 0.  0.
<mgrwt>
<rscale>  2 0.45605483E+03</rscale>
<asrwt>0</asrwt>
<pdfrwt beam="1">  1       21 0.12091487E+00 0.45605483E+03</pdfrwt>
<pdfrwt beam="2">  1       21 0.92998636E-02 0.45605483E+03</pdfrwt>
<totfact> 0.43507810E+04</totfact>
</mgrwt>
</event>
<event>
 7    0  0.4737014E-002  0.4551439E+03  0.7546771E-02  0.1026199E+00
         21   -1    0    0  502  501  0.00000000000E+00  0.00000000000E+00  0.15578463832E+03  0.15578463832E+03  0.00000000000E+00 0. -1.
         21   -1    0    0  501  502 -0.00000000000E+00 -0.00000000000E+00 -0.33243969178E+03  0.33243969178E+03  0.00000000000E+00 0. -1.
      99926    2    1    2    0    0 -0.35527136788E-14  0.00000000000E+00 -0.17665505347E+03  0.48822433010E+03  0.45514392074E+03 0.  0.
      99925    2    3    3    0    0 -0.12490504009E+02  0.99792003185E+02 -0.16719080113E+03  0.32744019916E+03  0.26296361622E+03 0.  0.
         25    1    4    4    0    0 -0.34711284289E+02  0.19699897264E+02 -0.74922285442E+02  0.15117478680E+03  0.12509000000E+03 0.  0.
         25    1    4    4    0    0  0.22220780280E+02  0.80092105921E+02 -0.92268515684E+02  0.17626541236E+03  0.12509000000E+03 0.  0.
         25    1    3    3    0    0  0.12490504009E+02 -0.99792003185E+02 -0.94642523404E+01  0.16078413094E+03  0.12509000000E+03 0.  0.
<mgrwt>
<rscale>  2 0.45514392E+03</rscale>
<asrwt>0</asrwt>
<pdfrwt beam="1">  1       21 0.22909506E-01 0.45514392E+03</pdfrwt>
<pdfrwt beam="2">  1       21 0.48888189E-01 0.45514392E+03</pdfrwt>
<totfact> 0.66030654E+04</totfact>
</mgrwt>
</event>
<event>
 7    0  0.4737014E-002  0.4497068E+03  0.7546771E-02  0.1027810E+00
         21   -1    0    0  502  501  0.00000000000E+00  0.00000000000E+00  0.63092910709E+03  0.63092910709E+03  0.00000000000E+00 0.  1.
         21   -1    0    0  501  502 -0.00000000000E+00 -0.00000000000E+00 -0.80134296507E+02  0.80134296507E+02  0.00000000000E+00 0.  1.
      99926    2    1    2    0    0  0.00000000000E+00 -0.71054273576E-14  0.55079481059E+03  0.71106340360E+03  0.44970683848E+03 0.  0.
      99925    2    3    3    0    0  0.10549408439E+03  0.22665155730E+02  0.33776428275E+03  0.44148553913E+03  0.26302482664E+03 0.  0.
         25    1    3    3    0    0 -0.10549408439E+03 -0.22665155730E+02  0.21303052783E+03  0.26957786447E+03  0.12509000000E+03 0.  0.
         25    1    4    4    0    0  0.85258921811E+02  0.36624515798E+02  0.20460223568E+03  0.25713813768E+03  0.12509000000E+03 0.  0.
         25    1    4    4    0    0  0.20235162581E+02 -0.13959360068E+02  0.13316204707E+03  0.18434740144E+03  0.12509000000E+03 0.  0.
<mgrwt>
<rscale>  2 0.44970684E+03</rscale>
<asrwt>0</asrwt>
<pdfrwt beam="1">  1       21 0.92783690E-01 0.44970684E+03</pdfrwt>
<pdfrwt beam="2">  1       21 0.11784456E-01 0.44970684E+03</pdfrwt>
<totfact> 0.54542499E+04</totfact>
</mgrwt>
</event>
<event>
 7    0  0.4737014E-002  0.4567972E+03  0.7546771E-02  0.1025714E+00
         21   -1    0    0  502  501  0.00000000000E+00  0.00000000000E+00  0.72955400263E+02  0.72955400263E+02  0.00000000000E+00 0.  1.
         21   -1    0    0  501  502 -0.00000000000E+00 -0.00000000000E+00 -0.71503835539E+03  0.71503835539E+03  0.00000000000E+00 0.  1.
      99926    2    1    2    0    0  0.00000000000E+00  0.00000000000E+00 -0.64208295512E+03  0.78799375565E+03  0.45679715157E+03 0.  0.
      99925    2    3    3    0    0  0.15382187398E+02 -0.92018525992E+02 -0.28818412741E+03  0.40121745186E+03  0.26309947087E+03 0.  0.
         25    1    4    4    0    0  0.25282366135E+02 -0.84053018571E+02 -0.14490058436E+03  0.21058916263E+03  0.12509000000E+03 0.  0.
         25    1    4    4    0    0 -0.99001787373E+01 -0.79655074214E+01 -0.14328354305E+03  0.19062828924E+03  0.12509000000E+03 0.  0.
         25    1    3    3    0    0 -0.15382187398E+02  0.92018525992E+02 -0.35389882771E+03  0.38677630379E+03  0.12509000000E+03 0.  0.
<mgrwt>
<rscale>  2 0.45679715E+03</rscale>
<asrwt>0</asrwt>
<pdfrwt beam="1">  1       21 0.10728735E-01 0.45679715E+03</pdfrwt>
<pdfrwt beam="2">  1       21 0.10515270E+00 0.45679715E+03</pdfrwt>
<totfact> 0.47675022E+04</totfact>
</mgrwt>
</event>
<event>
 7    0  0.4737014E-002  0.4579799E+03  0.7546771E-02  0.1025369E+00
         21   -1    0    0  502  501  0.00000000000E+00  0.00000000000E+00  0.78442484669E+03  0.78442484669E+03  0.00000000000E+00 0.  1.
         21   -1    0    0  501  502 -0.00000000000E+00 -0.00000000000E+00 -0.66846944644E+02  0.66846944644E+02  0.00000000000E+00 0.  1.
      99926    2    1    2    0    0  0.00000000000E+00 -0.17763568394E-14  0.71757790204E+03  0.85127179133E+03  0.45797993102E+03 0.  0.
      99925    2    3    3    0    0 -0.11354950006E+03 -0.14962734155E+02  0.48613379928E+03  0.56433755987E+03  0.26274215175E+03 0.  0.
         25    1    4    4    0    0 -0.15681741645E+02 -0.20086376213E+02  0.22191529663E+03  0.25601423107E+03  0.12509000000E+03 0.  0.
         25    1    3    3    0    0  0.11354950006E+03  0.14962734155E+02  0.23144410277E+03  0.28693423146E+03  0.12509000000E+03 0.  0.
         25    1    4    4    0    0 -0.97867758415E+02  0.51236420576E+01  0.26421850264E+03  0.30832332880E+03  0.12509000000E+03 0.  0.
<mgrwt>
<rscale>  2 0.45797993E+03</rscale>
<asrwt>0</asrwt>
<pdfrwt beam="1">  1       21 0.11535659E+00 0.45797993E+03</pdfrwt>
<pdfrwt beam="2">  1       21 0.98304335E-02 0.45797993E+03</pdfrwt>
<totfact> 0.44336993E+04</totfact>
</mgrwt>
</event>
<event>
 7    0  0.4737014E-002  0.4567596E+03  0.7546771E-02  0.1025725E+00
         21   -1    0    0  502  501  0.00000000000E+00  0.00000000000E+00  0.19491370039E+03  0.19491370039E+03  0.00000000000E+00 0. -1.
         21   -1    0    0  501  502 -0.00000000000E+00 -0.00000000000E+00 -0.26759189773E+03  0.26759189773E+03  0.00000000000E+00 0. -1.
      99926    2    1    2    0    0  0.00000000000E+00  0.00000000000E+00 -0.72678197335E+02  0.46250559812E+03  0.45675957343E+03 0.  0.
      99925    2    3    3    0    0 -0.12191686970E+02 -0.76327295014E+02  0.40346933119E+02  0.27704217475E+03  0.26296387277E+03 0.  0.
         25    1    4    4    0    0  0.81792088510E+01 -0.23309371909E+02  0.55040247661E+02  0.13887823170E+03  0.12509000000E+03 0.  0.
         25    1    3    3    0    0  0.12191686970E+02  0.76327295014E+02 -0.11302513045E+03  0.18546342337E+03  0.12509000000E+03 0.  0.
         25    1    4    4    0    0 -0.20370895821E+02 -0.53017923105E+02 -0.14693314542E+02  0.13816394305E+03  0.12509000000E+03 0.  0.
<mgrwt>
<rscale>  2 0.45675957E+03</rscale>
<asrwt>0</asrwt>
<pdfrwt beam="1">  1       21 0.28663780E-01 0.45675957E+03</pdfrwt>
<pdfrwt beam="2">  1       21 0.39351749E-01 0.45675957E+03</pdfrwt>
<totfact> 0.67052498E+04</totfact>
</mgrwt>
</event>
<event>
 7    0  0.4737014E-002  0.4520918E+03  0.7546771E-02  0.1027100E+00
         21   -1    0    0  502  501  0.00000000000E+00  0.00000000000E+00  0.60907313705E+02  0.60907313705E+02  0.00000000000E+00 0.  1.
         21   -1    0    0  501  502 -0.00000000000E+00 -0.00000000000E+00 -0.83892630710E+03  0.83892630710E+03  0.00000000000E+00 0.  1.
      99926    2    1    2    0    0  0.00000000000E+00  0.14210854715E-13 -0.77801899339E+03  0.89983362080E+03  0.45209179494E+03 0.  0.
      99925    2    3    3    0    0 -0.21731212548E+02  0.88657776331E+02 -0.61437233623E+03  0.67453341352E+03  0.26307700683E+03 0.  0.
         25    1    3    3    0    0  0.21731212548E+02 -0.88657776331E+02 -0.16364665716E+03  0.22530020728E+03  0.12509000000E+03 0.  0.
         25    1    4    4    0    0 -0.20159104499E+02  0.42952668658E+02 -0.40369925410E+03  0.42529039150E+03  0.12509000000E+03 0.  0.
         25    1    4    4    0    0 -0.15721080492E+01  0.45705107673E+02 -0.21067308213E+03  0.24924302202E+03  0.12509000000E+03 0.  0.
<mgrwt>
<rscale>  2 0.45209179E+03</rscale>
<asrwt>0</asrwt>
<pdfrwt beam="1">  1       21 0.89569579E-02 0.45209179E+03</pdfrwt>
<pdfrwt beam="2">  1       21 0.12337152E+00 0.45209179E+03</pdfrwt>
<totfact> 0.44239634E+04</totfact>
</mgrwt>
</event>
<event>
 7    0  0.4737014E-002  0.4549207E+03  0.7546771E-02  0.1026265E+00
         21   -1    0    0  502  501  0.00000000000E+00  0.00000000000E+00  0.28267936883E+03  0.28267936883E+03  0.00000000000E+00 0.  1.
         21   -1    0    0  501  502 -0.00000000000E+00 -0.00000000000E+00 -0.18302787757E+03  0.18302787757E+03  0.00000000000E+00 0.  1.
      99926    2    1    2    0    0 -0.14210854715E-13  0.00000000000E+00  0.99651491259E+02  0.46570724639E+03  0.45492067400E+03 0.  0.
      99925    2    3    3    0    0 -0.88098279149E+02 -0.66541158993E+02  0.37476777073E+02  0.28765602957E+03  0.26296853404E+03 0.  0.
         25    1    3    3    0    0  0.88098279149E+02  0.66541158993E+02  0.62174714186E+02  0.17805121683E+03  0.12509000000E+03 0.  0.
         25    1    4    4    0    0 -0.84614311662E+02 -0.38112909773E+02  0.33220182653E+02  0.15925848255E+03  0.12509000000E+03 0.  0.
         25    1    4    4    0    0 -0.34839674873E+01 -0.28428249220E+02  0.42565944202E+01  0.12839754701E+03  0.12509000000E+03 0.  0.
<mgrwt>
<rscale>  2 0.45492067E+03</rscale>
<asrwt>0</asrwt>
<pdfrwt beam="1">  1       21 0.41570496E-01 0.45492067E+03</pdfrwt>
<pdfrwt beam="2">  1       21 0.26915864E-01 0.45492067E+03</pdfrwt>
<totfact> 0.67799468E+04</totfact>
</mgrwt>
</event>
<event>
 7    0  0.4737014E-002  0.4539629E+03  0.7546771E-02  0.1026547E+00
         21   -1    0    0  502  501  0.00000000000E+00  0.00000000000E+00  0.98675558358E+02  0.98675558358E+02  0.00000000000E+00 0.  1.
         21   -1    0    0  501  502 -0.00000000000E+00 -0.00000000000E+00 -0.52212103724E+03  0.52212103724E+03  0.00000000000E+00 0.  1.
      99926    2    1    2    0    0  0.00000000000E+00 -0.35527136788E-14 -0.42344547888E+03  0.62079659559E+03  0.45396292747E+03 0.  0.
      99925    2    3    3    0    0 -0.19430092006E+02 -0.30417568484E+02 -0.12138459861E+03  0.29187253075E+03  0.26296881275E+03 0.  0.
         25    1    4    4    0    0  0.20554188980E+02 -0.22411023026E+02 -0.88613902703E+02  0.15628390989E+03  0.12509000000E+03 0.  0.
         25    1    3    3    0    0  0.19430092006E+02  0.30417568484E+02 -0.30206088027E+03  0.32892406485E+03  0.12509000000E+03 0.  0.
         25    1    4    4    0    0 -0.39984280986E+02 -0.80065454582E+01 -0.32770695908E+02  0.13558862086E+03  0.12509000000E+03 0.  0.
<mgrwt>
<rscale>  2 0.45396293E+03</rscale>
<asrwt>0</asrwt>
<pdfrwt beam="1">  1       21 0.14511111E-01 0.45396293E+03</pdfrwt>
<pdfrwt beam="2">  1       21 0.76782506E-01 0.45396293E+03</pdfrwt>
<totfact> 0.57888699E+04</totfact>
</mgrwt>
</event>
<event>
 7    0  0.4737014E-002  0.4347287E+03  0.7546771E-02  0.1032377E+00
         21   -1    0    0  502  501  0.00000000000E+00  0.00000000000E+00  0.22347922508E+03  0.22347922508E+03  0.00000000000E+00 0.  1.
         21   -1    0    0  501  502 -0.00000000000E+00 -0.00000000000E+00 -0.21141681320E+03  0.21141681320E+03  0.00000000000E+00 0.  1.
      99926    2    1    2    0    0  0.00000000000E+00  0.00000000000E+00  0.12062411879E+02  0.43489603828E+03  0.43472872269E+03 0.  0.
      99925    2    3    3    0    0 -0.69145000715E+02 -0.49095763692E+02  0.45504548060E+02  0.28011454808E+03  0.26306286514E+03 0.  0.
         25    1    3    3    0    0  0.69145000715E+02  0.49095763692E+02 -0.33442136181E+02  0.15478149020E+03  0.12509000000E+03 0.  0.
         25    1    4    4    0    0 -0.19621680997E+02  0.13295902608E+02  0.10556610080E+02  0.12775265754E+03  0.12509000000E+03 0.  0.
         25    1    4    4    0    0 -0.49523319717E+02 -0.62391666300E+02  0.34947937979E+02  0.15236189054E+03  0.12509000000E+03 0.  0.
<mgrwt>
<rscale>  2 0.43472872E+03</rscale>
<asrwt>0</asrwt>
<pdfrwt beam="1">  1       21 0.32864592E-01 0.43472872E+03</pdfrwt>
<pdfrwt beam="2">  1       21 0.31090708E-01 0.43472872E+03</pdfrwt>
<totfact> 0.82620698E+04</totfact>
</mgrwt>
</event>
<event>
 7    0  0.4737014E-002  0.4553123E+03  0.7546771E-02  0.1026150E+00
         21   -1    0    0  502  501  0.00000000000E+00  0.00000000000E+00  0.56345982444E+02  0.56345982444E+02  0.00000000000E+00 0. -1.
         21   -1    0    0  501  502 -0.00000000000E+00 -0.00000000000E+00 -0.91980509615E+03  0.91980509615E+03  0.00000000000E+00 0. -1.
      99926    2    1    2    0    0 -0.14210854715E-13  0.00000000000E+00 -0.86345911371E+03  0.97615107860E+03  0.45531229634E+03 0.  0.
      99925    2    3    3    0    0 -0.10344573755E+03  0.29750562442E+02 -0.62064289998E+03  0.68256405856E+03  0.26288774821E+03 0.  0.
         25    1    4    4    0    0 -0.87687083674E+02  0.36811252130E+02 -0.36704424549E+03  0.39926567492E+03  0.12509000000E+03 0.  0.
         25    1    3    3    0    0  0.10344573755E+03 -0.29750562442E+02 -0.24281621373E+03  0.29358702003E+03  0.12509000000E+03 0.  0.
         25    1    4    4    0    0 -0.15758653881E+02 -0.70606896885E+01 -0.25359865450E+03  0.28329838364E+03  0.12509000000E+03 0.  0.
<mgrwt>
<rscale>  2 0.45531230E+03</rscale>
<asrwt>0</asrwt>
<pdfrwt beam="1">  1       21 0.82861746E-02 0.45531230E+03</pdfrwt>
<pdfrwt beam="2">  1       21 0.13526544E+00 0.45531230E+03</pdfrwt>
<totfact> 0.40001826E+04</totfact>
</mgrwt>
</event>
<event>
 7    0  0.4737014E-002  0.4573399E+03  0.7546771E-02  0.1025556E+00
         21   -1    0    0  502  501  0.00000000000E+00  0.00000000000E+00  0.36059913103E+02  0.36059913103E+02  0.00000000000E+00 0.  1.
         21   -1    0    0  501  502 -0.00000000000E+00 -0.00000000000E+00 -0.14500849647E+04  0.14500849647E+04  0.00000000000E+00 0.  1.
      99926    2    1    2    0    0  0.71054273576E-14  0.00000000000E+00 -0.14140250516E+04  0.14861448778E+04  0.45733986408E+03 0.  0.
      99925    2    3    3    0    0 -0.39768792608E+02  0.47969601109E+02 -0.57223022411E+03  0.63282859460E+03  0.26294859053E+03 0.  0.
         25    1    4    4    0    0 -0.44913382932E+02  0.31773027311E+01 -0.34242268529E+03  0.36732561947E+03  0.12509000000E+03 0.  0.
         25    1    3    3    0    0  0.39768792608E+02 -0.47969601109E+02 -0.84179482753E+03  0.85331628325E+03  0.12509000000E+03 0.  0.
         25    1    4    4    0    0  0.51445903242E+01  0.44792298377E+02 -0.22980753882E+03  0.26550297513E+03  0.12509000000E+03 0.  0.
<mgrwt>
<rscale>  2 0.45733986E+03</rscale>
<asrwt>0</asrwt>
<pdfrwt beam="1">  1       21 0.53029284E-02 0.45733986E+03</pdfrwt>
<pdfrwt beam="2">  1       21 0.21324779E+00 0.45733986E+03</pdfrwt>
<totfact> 0.23687289E+04</totfact>
</mgrwt>
</event>
<event>
 7    0  0.4737014E-002  0.4525345E+03  0.7546771E-02  0.1026969E+00
         21   -1    0    0  502  501  0.00000000000E+00  0.00000000000E+00  0.14912179625E+03  0.14912179625E+03  0.00000000000E+00 0. -1.
         21   -1    0    0  501  502 -0.00000000000E+00 -0.00000000000E+00 -0.34332254662E+03  0.34332254662E+03  0.00000000000E+00 0. -1.
      99926    2    1    2    0    0  0.00000000000E+00  0.00000000000E+00 -0.19420075037E+03  0.49244434287E+03  0.45253452839E+03 0.  0.
      99925    2    3    3    0    0  0.17699445361E+02  0.30011626367E+02 -0.80250233019E+01  0.26545782889E+03  0.26303895117E+03 0.  0.
         25    1    4    4    0    0  0.35918382101E+02  0.44586342335E+02 -0.12459532867E+02  0.13813334194E+03  0.12509000000E+03 0.  0.
         25    1    4    4    0    0 -0.18218936740E+02 -0.14574715968E+02  0.44345095649E+01  0.12732448695E+03  0.12509000000E+03 0.  0.
         25    1    3    3    0    0 -0.17699445361E+02 -0.30011626367E+02 -0.18617572706E+03  0.22698651398E+03  0.12509000000E+03 0.  0.
<mgrwt>
<rscale>  2 0.45253453E+03</rscale>
<asrwt>0</asrwt>
<pdfrwt beam="1">  1       21 0.21929676E-01 0.45253453E+03</pdfrwt>
<pdfrwt beam="2">  1       21 0.50488609E-01 0.45253453E+03</pdfrwt>
<totfact> 0.67108683E+04</totfact>
</mgrwt>
</event>
<event>
 7    0  0.4737014E-002  0.4531686E+03  0.7546771E-02  0.1026781E+00
         21   -1    0    0  502  501  0.00000000000E+00  0.00000000000E+00  0.46522872652E+03  0.46522872652E+03  0.00000000000E+00 0.  1.
         21   -1    0    0  501  502 -0.00000000000E+00 -0.00000000000E+00 -0.11035529926E+03  0.11035529926E+03  0.00000000000E+00 0.  1.
      99926    2    1    2    0    0  0.00000000000E+00 -0.26645352591E-14  0.35487342727E+03  0.57558402578E+03  0.45316864560E+03 0.  0.
      99925    2    3    3    0    0 -0.76365104480E+02 -0.76422801196E+01  0.12090919400E+03  0.29940146990E+03  0.26292997805E+03 0.  0.
         25    1    4    4    0    0 -0.29160041820E+02  0.34261984976E+02  0.70678940340E+02  0.15055634281E+03  0.12509000000E+03 0.  0.
         25    1    3    3    0    0  0.76365104480E+02  0.76422801196E+01  0.23396423327E+03  0.27618255589E+03  0.12509000000E+03 0.  0.
         25    1    4    4    0    0 -0.47205062660E+02 -0.41904265096E+02  0.50230253658E+02  0.14884512708E+03  0.12509000000E+03 0.  0.
<mgrwt>
<rscale>  2 0.45316865E+03</rscale>
<asrwt>0</asrwt>
<pdfrwt beam="1">  1       21 0.68415989E-01 0.45316865E+03</pdfrwt>
<pdfrwt beam="2">  1       21 0.16228721E-01 0.45316865E+03</pdfrwt>
<totfact> 0.61086608E+04</totfact>
</mgrwt>
</event>
<event>
 7    0  0.4737014E-002  0.4583994E+03  0.7546771E-02  0.1025246E+00
         21   -1    0    0  502  501  0.00000000000E+00  0.00000000000E+00  0.81379511940E+02  0.81379511940E+02  0.00000000000E+00 0.  1.
         21   -1    0    0  501  502 -0.00000000000E+00 -0.00000000000E+00 -0.64552482621E+03  0.64552482621E+03  0.00000000000E+00 0.  1.
      99926    2    1    2    0    0  0.00000000000E+00  0.00000000000E+00 -0.56414531427E+03  0.72690433815E+03  0.45839936868E+03 0.  0.
      99925    2    3    3    0    0 -0.36949469403E+02 -0.10963152752E+03 -0.37382833128E+03  0.47145885037E+03  0.26294769671E+03 0.  0.
         25    1    3    3    0    0  0.36949469403E+02  0.10963152752E+03 -0.19031698299E+03  0.25544548779E+03  0.12509000000E+03 0.  0.
         25    1    4    4    0    0 -0.42650266980E+02 -0.81808461851E+02 -0.24123293487E+03  0.28697126454E+03  0.12509000000E+03 0.  0.
         25    1    4    4    0    0  0.57007975774E+01 -0.27823065667E+02 -0.13259539641E+03  0.18448758583E+03  0.12509000000E+03 0.  0.
<mgrwt>
<rscale>  2 0.45839937E+03</rscale>
<asrwt>0</asrwt>
<pdfrwt beam="1">  1       21 0.11967575E-01 0.45839937E+03</pdfrwt>
<pdfrwt beam="2">  1       21 0.94930123E-01 0.45839937E+03</pdfrwt>
<totfact> 0.50113297E+04</totfact>
</mgrwt>
</event>
<event>
 7    0  0.4737014E-002  0.4532734E+03  0.7546771E-02  0.1026750E+00
         21   -1    0    0  502  501  0.00000000000E+00  0.00000000000E+00  0.44650299014E+02  0.44650299014E+02  0.00000000000E+00 0.  1.
         21   -1    0    0  501  502 -0.00000000000E+00 -0.00000000000E+00 -0.11503663562E+04  0.11503663562E+04  0.00000000000E+00 0.  1.
      99926    2    1    2    0    0  0.00000000000E+00  0.00000000000E+00 -0.11057160572E+04  0.11950166552E+04  0.45327343527E+03 0.  0.
      99925    2    3    3    0    0 -0.43696750684E+02 -0.98632051361E+02 -0.64249829807E+03  0.70322819659E+03  0.26474165875E+03 0.  0.
         25    1    4    4    0    0 -0.52125044647E+02 -0.80656643802E+02 -0.39194003747E+03  0.42247723671E+03  0.12509000000E+03 0.  0.
         25    1    3    3    0    0  0.43696750684E+02  0.98632051361E+02 -0.46321775910E+03  0.49178845861E+03  0.12509000000E+03 0.  0.
         25    1    4    4    0    0  0.84282939630E+01 -0.17975407559E+02 -0.25055826060E+03  0.28075095988E+03  0.12509000000E+03 0.  0.
<mgrwt>
<rscale>  2 0.45327344E+03</rscale>
<asrwt>0</asrwt>
<pdfrwt beam="1">  1       21 0.65662211E-02 0.45327344E+03</pdfrwt>
<pdfrwt beam="2">  1       21 0.16917151E+00 0.45327344E+03</pdfrwt>
<totfact> 0.32752613E+04</totfact>
</mgrwt>
</event>
<event>
 7    0  0.4737014E-002  0.4691695E+03  0.7546771E-02  0.1022155E+00
         21   -1    0    0  502  501  0.00000000000E+00  0.00000000000E+00  0.86605833837E+02  0.86605833837E+02  0.00000000000E+00 0. -1.
         21   -1    0    0  501  502 -0.00000000000E+00 -0.00000000000E+00 -0.63540756052E+03  0.63540756052E+03  0.00000000000E+00 0. -1.
      99926    2    1    2    0    0  0.00000000000E+00 -0.14210854715E-13 -0.54880172668E+03  0.72201339436E+03  0.46916948582E+03 0.  0.
      99925    2    3    3    0    0  0.80379691528E+02  0.94620095956E+02 -0.37304171081E+03  0.47310990172E+03  0.26317105413E+03 0.  0.
         25    1    3    3    0    0 -0.80379691528E+02 -0.94620095956E+02 -0.17576001588E+03  0.24890349264E+03  0.12509000000E+03 0.  0.
         25    1    4    4    0    0  0.13377981119E+02  0.37090440197E+02 -0.12241463562E+03  0.17940881318E+03  0.12509000000E+03 0.  0.
         25    1    4    4    0    0  0.67001710409E+02  0.57529655759E+02 -0.25062707519E+03  0.29370108854E+03  0.12509000000E+03 0.  0.
<mgrwt>
<rscale>  2 0.46916949E+03</rscale>
<asrwt>0</asrwt>
<pdfrwt beam="1">  1       21 0.12736152E-01 0.46916949E+03</pdfrwt>
<pdfrwt beam="2">  1       21 0.93442287E-01 0.46916949E+03</pdfrwt>
<totfact> 0.46339485E+04</totfact>
</mgrwt>
</event>
<event>
 7    0  0.4737014E-002  0.4336818E+03  0.7546771E-02  0.1032703E+00
         21   -1    0    0  502  501  0.00000000000E+00  0.00000000000E+00  0.22817348990E+03  0.22817348990E+03  0.00000000000E+00 0.  1.
         21   -1    0    0  501  502 -0.00000000000E+00 -0.00000000000E+00 -0.20607117056E+03  0.20607117056E+03  0.00000000000E+00 0.  1.
      99926    2    1    2    0    0  0.00000000000E+00  0.00000000000E+00  0.22102319339E+02  0.43424466046E+03  0.43368181033E+03 0.  0.
      99925    2    3    3    0    0  0.45515599080E+02  0.18270654213E+02  0.91885008750E+02  0.28284248608E+03  0.26296678599E+03 0.  0.
         25    1    4    4    0    0  0.27435166069E+02  0.49500586420E+02  0.48567756246E+02  0.14563423856E+03  0.12509000000E+03 0.  0.
         25    1    3    3    0    0 -0.45515599080E+02 -0.18270654213E+02 -0.69782689411E+02  0.15140217438E+03  0.12509000000E+03 0.  0.
         25    1    4    4    0    0  0.18080433011E+02 -0.31229932207E+02  0.43317252504E+02  0.13720824752E+03  0.12509000000E+03 0.  0.
<mgrwt>
<rscale>  2 0.43368181E+03</rscale>
<asrwt>0</asrwt>
<pdfrwt beam="1">  1       21 0.33554925E-01 0.43368181E+03</pdfrwt>
<pdfrwt beam="2">  1       21 0.30304584E-01 0.43368181E+03</pdfrwt>
<totfact> 0.83402818E+04</totfact>
</mgrwt>
</event>
<event>
 7    0  0.4737014E-002  0.4634544E+03  0.7546771E-02  0.1023784E+00
         21   -1    0    0  502  501  0.00000000000E+00  0.00000000000E+00  0.88332853930E+02  0.88332853930E+02  0.00000000000E+00 0. -1.
         21   -1    0    0  501  502 -0.00000000000E+00 -0.00000000000E+00 -0.60789939646E+03  0.60789939646E+03  0.00000000000E+00 0. -1.
      99926    2    1    2    0    0  0.00000000000E+00  0.00000000000E+00 -0.51956654253E+03  0.69623225039E+03  0.46345437140E+03 0.  0.
      99925    2    3    3    0    0 -0.41879303348E+02 -0.19342805553E+02 -0.15688559780E+03  0.30982185205E+03  0.26315103844E+03 0.  0.
         25    1    3    3    0    0  0.41879303348E+02  0.19342805553E+02 -0.36268094473E+03  0.38641039834E+03  0.12509000000E+03 0.  0.
         25    1    4    4    0    0  0.15566193911E+02  0.94700236251E+01 -0.69620284663E+02  0.14431382428E+03  0.12509000000E+03 0.  0.
         25    1    4    4    0    0 -0.57445497259E+02 -0.28812829178E+02 -0.87265313138E+02  0.16550802777E+03  0.12509000000E+03 0.  0.
<mgrwt>
<rscale>  2 0.46345437E+03</rscale>
<asrwt>0</asrwt>
<pdfrwt beam="1">  1       21 0.12990126E-01 0.46345437E+03</pdfrwt>
<pdfrwt beam="2">  1       21 0.89396967E-01 0.46345437E+03</pdfrwt>
<totfact> 0.49715861E+04</totfact>
</mgrwt>
</event>
<event>
 7    0  0.4737014E-002  0.4592437E+03  0.7546771E-02  0.1025001E+00
         21   -1    0    0  502  501  0.00000000000E+00  0.00000000000E+00  0.57857242275E+03  0.57857242275E+03  0.00000000000E+00 0. -1.
         21   -1    0    0  501  502 -0.00000000000E+00 -0.00000000000E+00 -0.91131537834E+02  0.91131537834E+02  0.00000000000E+00 0. -1.
      99926    2    1    2    0    0  0.71054273576E-14  0.00000000000E+00  0.48744088492E+03  0.66970396059E+03  0.45924370277E+03 0.  0.
      99925    2    3    3    0    0  0.51238508742E+02  0.77362121823E+02  0.40971067975E+03  0.49563565340E+03  0.26302390985E+03 0.  0.
         25    1    4    4    0    0 -0.14121431776E+02  0.42989223925E+02  0.17928416000E+03  0.22324382709E+03  0.12509000000E+03 0.  0.
         25    1    4    4    0    0  0.65359940519E+02  0.34372897898E+02  0.23042651975E+03  0.27239182631E+03  0.12509000000E+03 0.  0.
         25    1    3    3    0    0 -0.51238508742E+02 -0.77362121823E+02  0.77730205171E+02  0.17406830719E+03  0.12509000000E+03 0.  0.
<mgrwt>
<rscale>  2 0.45924370E+03</rscale>
<asrwt>0</asrwt>
<pdfrwt beam="1">  1       21 0.85084178E-01 0.45924370E+03</pdfrwt>
<pdfrwt beam="2">  1       21 0.13401697E-01 0.45924370E+03</pdfrwt>
<totfact> 0.52790573E+04</totfact>
</mgrwt>
</event>
<event>
 7    0  0.4737014E-002  0.4726892E+03  0.7546771E-02  0.1021164E+00
         21   -1    0    0  502  501  0.00000000000E+00  0.00000000000E+00  0.27675192318E+02  0.27675192318E+02  0.00000000000E+00 0. -1.
         21   -1    0    0  501  502 -0.00000000000E+00 -0.00000000000E+00 -0.20183695696E+04  0.20183695696E+04  0.00000000000E+00 0. -1.
      99926    2    1    2    0    0  0.00000000000E+00  0.00000000000E+00 -0.19906943773E+04  0.20460447619E+04  0.47268918332E+03 0.  0.
      99925    2    3    3    0    0  0.53033274121E+02  0.10259783026E+03 -0.98401490104E+03  0.10250697774E+04  0.26295223943E+03 0.  0.
         25    1    3    3    0    0 -0.53033274121E+02 -0.10259783026E+03 -0.10066794763E+04  0.10209749845E+04  0.12509000000E+03 0.  0.
         25    1    4    4    0    0 -0.23583279602E+01  0.37010268905E+02 -0.55131737034E+03  0.56654538446E+03  0.12509000000E+03 0.  0.
         25    1    4    4    0    0  0.55391602081E+02  0.65587561353E+02 -0.43269753071E+03  0.45852439299E+03  0.12509000000E+03 0.  0.
<mgrwt>
<rscale>  2 0.47268918E+03</rscale>
<asrwt>0</asrwt>
<pdfrwt beam="1">  1       21 0.40698805E-02 0.47268918E+03</pdfrwt>
<pdfrwt beam="2">  1       21 0.29681911E+00 0.47268918E+03</pdfrwt>
<totfact> 0.11334406E+04</totfact>
</mgrwt>
</event>
<event>
 7    0  0.4737014E-002  0.4642314E+03  0.7546771E-02  0.1023561E+00
         21   -1    0    0  502  501  0.00000000000E+00  0.00000000000E+00  0.92595046088E+02  0.92595046088E+02  0.00000000000E+00 0. -1.
         21   -1    0    0  501  502 -0.00000000000E+00 -0.00000000000E+00 -0.58186361293E+03  0.58186361293E+03  0.00000000000E+00 0. -1.
      99926    2    1    2    0    0  0.00000000000E+00  0.00000000000E+00 -0.48926856684E+03  0.67445865902E+03  0.46423135636E+03 0.  0.
      99925    2    3    3    0    0 -0.40886616720E+02  0.35010494729E+02 -0.46306200422E+03  0.53578010194E+03  0.26407659441E+03 0.  0.
         25    1    3    3    0    0  0.40886616720E+02 -0.35010494729E+02 -0.26206562621E+02  0.13867855707E+03  0.12509000000E+03 0.  0.
         25    1    4    4    0    0 -0.32786833271E+02  0.57417084789E+02 -0.22468285054E+03  0.26552135411E+03  0.12509000000E+03 0.  0.
         25    1    4    4    0    0 -0.80997834488E+01 -0.22406590060E+02 -0.23837915368E+03  0.27025874783E+03  0.12509000000E+03 0.  0.
<mgrwt>
<rscale>  2 0.46423136E+03</rscale>
<asrwt>0</asrwt>
<pdfrwt beam="1">  1       21 0.13616919E-01 0.46423136E+03</pdfrwt>
<pdfrwt beam="2">  1       21 0.85568177E-01 0.46423136E+03</pdfrwt>
<totfact> 0.50533347E+04</totfact>
</mgrwt>
</event>
<event>
 7    0  0.4737014E-002  0.4516079E+03  0.7546771E-02  0.1027244E+00
         21   -1    0    0  502  501  0.00000000000E+00  0.00000000000E+00  0.23166981153E+03  0.23166981153E+03  0.00000000000E+00 0.  1.
         21   -1    0    0  501  502 -0.00000000000E+00 -0.00000000000E+00 -0.22008658033E+03  0.22008658033E+03  0.00000000000E+00 0.  1.
      99926    2    1    2    0    0  0.35527136788E-14  0.00000000000E+00  0.11583231197E+02  0.45175639186E+03  0.45160786789E+03 0.  0.
      99925    2    3    3    0    0  0.16700597046E+02  0.75187056448E+02 -0.69698722276E+02  0.28386872864E+03  0.26418088465E+03 0.  0.
         25    1    4    4    0    0  0.33686192084E+02  0.85426247281E+01 -0.52677731806E+02  0.14010777103E+03  0.12509000000E+03 0.  0.
         25    1    4    4    0    0 -0.16985595038E+02  0.66644431720E+02 -0.17020990470E+02  0.14376095762E+03  0.12509000000E+03 0.  0.
         25    1    3    3    0    0 -0.16700597046E+02 -0.75187056448E+02  0.81281953473E+02  0.16788766321E+03  0.12509000000E+03 0.  0.
<mgrwt>
<rscale>  2 0.45160787E+03</rscale>
<asrwt>0</asrwt>
<pdfrwt beam="1">  1       21 0.34069090E-01 0.45160787E+03</pdfrwt>
<pdfrwt beam="2">  1       21 0.32365673E-01 0.45160787E+03</pdfrwt>
<totfact> 0.70677731E+04</totfact>
</mgrwt>
</event>
<event>
 7    0  0.4737014E-002  0.4023380E+03  0.7546771E-02  0.1042973E+00
         21   -1    0    0  502  501  0.00000000000E+00  0.00000000000E+00  0.15661707307E+03  0.15661707307E+03  0.00000000000E+00 0.  1.
         21   -1    0    0  501  502 -0.00000000000E+00 -0.00000000000E+00 -0.25839429702E+03  0.25839429702E+03  0.00000000000E+00 0.  1.
      99926    2    1    2    0    0  0.71054273576E-14  0.44408920985E-15 -0.10177722395E+03  0.41501137008E+03  0.40233795991E+03 0.  0.
      99925    2    3    3    0    0  0.46671989736E+02  0.34672878876E+01 -0.85677137852E+02  0.28048621413E+03  0.26294799420E+03 0.  0.
         25    1    4    4    0    0  0.59800177851E+02 -0.32893195452E-01 -0.64394751455E+02  0.15287332818E+03  0.12509000000E+03 0.  0.
         25    1    3    3    0    0 -0.46671989736E+02 -0.34672878876E+01 -0.16100086098E+02  0.13452515595E+03  0.12509000000E+03 0.  0.
         25    1    4    4    0    0 -0.13128188115E+02  0.35001810831E+01 -0.21282386397E+02  0.12761288595E+03  0.12509000000E+03 0.  0.
<mgrwt>
<rscale>  2 0.40233796E+03</rscale>
<asrwt>0</asrwt>
<pdfrwt beam="1">  1       21 0.23031923E-01 0.40233796E+03</pdfrwt>
<pdfrwt beam="2">  1       21 0.37999161E-01 0.40233796E+03</pdfrwt>
<totfact> 0.11155881E+05</totfact>
</mgrwt>
</event>
<event>
 7    0  0.4737014E-002  0.4593327E+03  0.7546771E-02  0.1024975E+00
         21   -1    0    0  502  501  0.00000000000E+00  0.00000000000E+00  0.17081520045E+03  0.17081520045E+03  0.00000000000E+00 0. -1.
         21   -1    0    0  501  502 -0.00000000000E+00 -0.00000000000E+00 -0.30879356114E+03  0.30879356114E+03  0.00000000000E+00 0. -1.
      99926    2    1    2    0    0  0.00000000000E+00  0.71054273576E-14 -0.13797836069E+03  0.47960876159E+03  0.45933270749E+03 0.  0.
      99925    2    3    3    0    0 -0.97949353253E+02 -0.52864192011E+02 -0.49407458482E+02  0.29018592395E+03  0.26339718090E+03 0.  0.
         25    1    4    4    0    0 -0.53252330531E+02 -0.67470077802E+02 -0.35145934441E+02  0.15579077930E+03  0.12509000000E+03 0.  0.
         25    1    3    3    0    0  0.97949353253E+02  0.52864192011E+02 -0.88570902207E+02  0.18942283763E+03  0.12509000000E+03 0.  0.
         25    1    4    4    0    0 -0.44697022722E+02  0.14605885792E+02 -0.14261524042E+02  0.13439514466E+03  0.12509000000E+03 0.  0.
<mgrwt>
<rscale>  2 0.45933271E+03</rscale>
<asrwt>0</asrwt>
<pdfrwt beam="1">  1       21 0.25119883E-01 0.45933271E+03</pdfrwt>
<pdfrwt beam="2">  1       21 0.45410817E-01 0.45933271E+03</pdfrwt>
<totfact> 0.64482544E+04</totfact>
</mgrwt>
</event>
<event>
 7    0  0.4737014E-002  0.4586986E+03  0.7546771E-02  0.1025159E+00
         21   -1    0    0  502  501  0.00000000000E+00  0.00000000000E+00  0.13245886589E+03  0.13245886589E+03  0.00000000000E+00 0. -1.
         21   -1    0    0  501  502 -0.00000000000E+00 -0.00000000000E+00 -0.39711266784E+03  0.39711266784E+03  0.00000000000E+00 0. -1.
      99926    2    1    2    0    0 -0.14210854715E-13  0.00000000000E+00 -0.26465380194E+03  0.52957153373E+03  0.45869856600E+03 0.  0.
      99925    2    3    3    0    0  0.67543457417E+02  0.23387566974E+02 -0.27234020428E+03  0.38529511220E+03  0.26300958098E+03 0.  0.
         25    1    3    3    0    0 -0.67543457417E+02 -0.23387566974E+02  0.76864023368E+01  0.14427642153E+03  0.12509000000E+03 0.  0.
         25    1    4    4    0    0  0.51908382008E+02 -0.28865031404E+01 -0.18661586273E+03  0.23059878652E+03  0.12509000000E+03 0.  0.
         25    1    4    4    0    0  0.15635075409E+02  0.26274070114E+02 -0.85724341553E+02  0.15469632568E+03  0.12509000000E+03 0.  0.
<mgrwt>
<rscale>  2 0.45869857E+03</rscale>
<asrwt>0</asrwt>
<pdfrwt beam="1">  1       21 0.19479245E-01 0.45869857E+03</pdfrwt>
<pdfrwt beam="2">  1       21 0.58398922E-01 0.45869857E+03</pdfrwt>
<totfact> 0.61415182E+04</totfact>
</mgrwt>
</event>
<event>
 7    0  0.4737014E-002  0.4573860E+03  0.7546771E-02  0.1025542E+00
         21   -1    0    0  502  501  0.00000000000E+00  0.00000000000E+00  0.30533634890E+03  0.30533634890E+03  0.00000000000E+00 0. -1.
         21   -1    0    0  501  502 -0.00000000000E+00 -0.00000000000E+00 -0.17128811478E+03  0.17128811478E+03  0.00000000000E+00 0. -1.
      99926    2    1    2    0    0  0.00000000000E+00  0.00000000000E+00  0.13404823412E+03  0.47662446368E+03  0.45738599706E+03 0.  0.
      99925    2    3    3    0    0  0.74743708000E+02 -0.84562730425E+02  0.11008211463E+03  0.30644996428E+03  0.26278514301E+03 0.  0.
         25    1    4    4    0    0  0.31202018601E+02 -0.49272925125E+02  0.13306706249E+02  0.13865772119E+03  0.12509000000E+03 0.  0.
         25    1    4    4    0    0  0.43541689399E+02 -0.35289805300E+02  0.96775408377E+02  0.16779224309E+03  0.12509000000E+03 0.  0.
         25    1    3    3    0    0 -0.74743708000E+02  0.84562730425E+02  0.23966119498E+02  0.17017449940E+03  0.12509000000E+03 0.  0.
<mgrwt>
<rscale>  2 0.45738600E+03</rscale>
<asrwt>0</asrwt>
<pdfrwt beam="1">  1       21 0.44902404E-01 0.45738600E+03</pdfrwt>
<pdfrwt beam="2">  1       21 0.25189429E-01 0.45738600E+03</pdfrwt>
<totfact> 0.65693894E+04</totfact>
</mgrwt>
</event>
<event>
 7    0  0.4737014E-002  0.4507086E+03  0.7546771E-02  0.1027511E+00
         21   -1    0    0  502  501  0.00000000000E+00  0.00000000000E+00  0.51273859122E+03  0.51273859122E+03  0.00000000000E+00 0. -1.
         21   -1    0    0  501  502 -0.00000000000E+00 -0.00000000000E+00 -0.99045720938E+02  0.99045720938E+02  0.00000000000E+00 0. -1.
      99926    2    1    2    0    0  0.71054273576E-14  0.00000000000E+00  0.41369287028E+03  0.61178431216E+03  0.45070861283E+03 0.  0.
      99925    2    3    3    0    0 -0.37314313681E+02 -0.86512735787E+02  0.18495836164E+03  0.33457717840E+03  0.26240327992E+03 0.  0.
         25    1    4    4    0    0  0.20765130136E+02 -0.40553505729E+02  0.80614863273E+02  0.15563432056E+03  0.12509000000E+03 0.  0.
         25    1    3    3    0    0  0.37314313681E+02  0.86512735787E+02  0.22873450864E+03  0.27720713375E+03  0.12509000000E+03 0.  0.
         25    1    4    4    0    0 -0.58079443817E+02 -0.45959230059E+02  0.10434349836E+03  0.17894285784E+03  0.12509000000E+03 0.  0.
<mgrwt>
<rscale>  2 0.45070861E+03</rscale>
<asrwt>0</asrwt>
<pdfrwt beam="1">  1       21 0.75402733E-01 0.45070861E+03</pdfrwt>
<pdfrwt beam="2">  1       21 0.14565547E-01 0.45070861E+03</pdfrwt>
<totfact> 0.59965529E+04</totfact>
</mgrwt>
</event>
<event>
 7    0  0.4737014E-002  0.4267822E+03  0.7546771E-02  0.1034881E+00
         21   -1    0    0  502  501  0.00000000000E+00  0.00000000000E+00  0.10392773107E+03  0.10392773107E+03  0.00000000000E+00 0.  1.
         21   -1    0    0  501  502 -0.00000000000E+00 -0.00000000000E+00 -0.43814842400E+03  0.43814842400E+03  0.00000000000E+00 0.  1.
      99926    2    1    2    0    0  0.14210854715E-13  0.00000000000E+00 -0.33422069294E+03  0.54207615507E+03  0.42678224695E+03 0.  0.
      99925    2    3    3    0    0 -0.75345594719E+02  0.21441876448E+02 -0.17818486212E+03  0.32729393675E+03  0.26312499546E+03 0.  0.
         25    1    3    3    0    0  0.75345594719E+02 -0.21441876448E+02 -0.15603583082E+03  0.21478221832E+03  0.12509000000E+03 0.  0.
         25    1    4    4    0    0 -0.64388324660E+02 -0.41059188675E+01 -0.12608907895E+03  0.18896740156E+03  0.12509000000E+03 0.  0.
         25    1    4    4    0    0 -0.10957270059E+02  0.25547795316E+02 -0.52095783172E+02  0.13832653519E+03  0.12509000000E+03 0.  0.
<mgrwt>
<rscale>  2 0.42678225E+03</rscale>
<asrwt>0</asrwt>
<pdfrwt beam="1">  1       21 0.15283490E-01 0.42678225E+03</pdfrwt>
<pdfrwt beam="2">  1       21 0.64433591E-01 0.42678225E+03</pdfrwt>
<totfact> 0.78509773E+04</totfact>
</mgrwt>
</event>
<event>
 7    0  0.4737014E-002  0.4502177E+03  0.7546771E-02  0.1027657E+00
         21   -1    0    0  502  501  0.00000000000E+00  0.00000000000E+00  0.12047829124E+03  0.12047829124E+03  0.00000000000E+00 0.  1.
         21   -1    0    0  501  502 -0.00000000000E+00 -0.00000000000E+00 -0.42060680850E+03  0.42060680850E+03  0.00000000000E+00 0.  1.
      99926    2    1    2    0    0  0.00000000000E+00 -0.17763568394E-14 -0.30012851727E+03  0.54108509974E+03  0.45021767878E+03 0.  0.
      99925    2    3    3    0    0  0.42263845783E+02 -0.97087232945E+01 -0.70050647781E+02  0.27563486694E+03  0.26303420813E+03 0.  0.
         25    1    4    4    0    0  0.45986776084E+00 -0.15163376512E+02 -0.68927848827E+02  0.14362693309E+03  0.12509000000E+03 0.  0.
         25    1    3    3    0    0 -0.42263845783E+02  0.97087232945E+01 -0.23007786948E+03  0.26545023280E+03  0.12509000000E+03 0.  0.
         25    1    4    4    0    0  0.41803978022E+02  0.54546532172E+01 -0.11227989535E+01  0.13200793384E+03  0.12509000000E+03 0.  0.
<mgrwt>
<rscale>  2 0.45021768E+03</rscale>
<asrwt>0</asrwt>
<pdfrwt beam="1">  1       21 0.17717396E-01 0.45021768E+03</pdfrwt>
<pdfrwt beam="2">  1       21 0.61853942E-01 0.45021768E+03</pdfrwt>
<totfact> 0.64880272E+04</totfact>
</mgrwt>
</event>
<event>
 7    0  0.4737014E-002  0.4495267E+03  0.7546771E-02  0.1027863E+00
         21   -1    0    0  502  501  0.00000000000E+00  0.00000000000E+00  0.81090950008E+03  0.81090950008E+03  0.00000000000E+00 0.  1.
         21   -1    0    0  501  502 -0.00000000000E+00 -0.00000000000E+00 -0.62298646795E+02  0.62298646795E+02  0.00000000000E+00 0.  1.
      99926    2    1    2    0    0  0.00000000000E+00  0.00000000000E+00  0.74861085329E+03  0.87320814688E+03  0.44952670456E+03 0.  0.
      99925    2    3    3    0    0  0.18114458074E+02 -0.20241448771E+02  0.67490686930E+03  0.72550020804E+03  0.26478938762E+03 0.  0.
         25    1    3    3    0    0 -0.18114458074E+02  0.20241448771E+02  0.73703983987E+02  0.14770793884E+03  0.12509000000E+03 0.  0.
         25    1    4    4    0    0  0.28289820248E+02 -0.36037519355E+02  0.26630325842E+03  0.29776492452E+03  0.12509000000E+03 0.  0.
         25    1    4    4    0    0 -0.10175362174E+02  0.15796070584E+02  0.40860361089E+03  0.42773528352E+03  0.12509000000E+03 0.  0.
<mgrwt>
<rscale>  2 0.44952670E+03</rscale>
<asrwt>0</asrwt>
<pdfrwt beam="1">  1       21 0.11925139E+00 0.44952670E+03</pdfrwt>
<pdfrwt beam="2">  1       21 0.91615662E-02 0.44952670E+03</pdfrwt>
<totfact> 0.46368516E+04</totfact>
</mgrwt>
</event>
<event>
 7    0  0.4737014E-002  0.4566945E+03  0.7546771E-02  0.1025744E+00
         21   -1    0    0  502  501  0.00000000000E+00  0.00000000000E+00  0.18891286037E+03  0.18891286037E+03  0.00000000000E+00 0.  1.
         21   -1    0    0  501  502 -0.00000000000E+00 -0.00000000000E+00 -0.27601329737E+03  0.27601329737E+03  0.00000000000E+00 0.  1.
      99926    2    1    2    0    0  0.00000000000E+00 -0.35527136788E-14 -0.87100437009E+02  0.46492615774E+03  0.45669447777E+03 0.  0.
      99925    2    3    3    0    0 -0.62363834334E+02  0.21545729930E+02 -0.15030537840E+03  0.31002025395E+03  0.26299692921E+03 0.  0.
         25    1    4    4    0    0 -0.51434278355E+02  0.44916964306E+02 -0.66573980996E+02  0.15729787576E+03  0.12509000000E+03 0.  0.
         25    1    4    4    0    0 -0.10929555979E+02 -0.23371234376E+02 -0.83731397408E+02  0.15272237820E+03  0.12509000000E+03 0.  0.
         25    1    3    3    0    0  0.62363834334E+02 -0.21545729930E+02  0.63204941395E+02  0.15490590379E+03  0.12509000000E+03 0.  0.
<mgrwt>
<rscale>  2 0.45669448E+03</rscale>
<asrwt>0</asrwt>
<pdfrwt beam="1">  1       21 0.27781303E-01 0.45669448E+03</pdfrwt>
<pdfrwt beam="2">  1       21 0.40590191E-01 0.45669448E+03</pdfrwt>
<totfact> 0.66909843E+04</totfact>
</mgrwt>
</event>
<event>
 7    0  0.4737014E-002  0.4559935E+03  0.7546771E-02  0.1025950E+00
         21   -1    0    0  502  501  0.00000000000E+00  0.00000000000E+00  0.28830607271E+03  0.28830607271E+03  0.00000000000E+00 0.  1.
         21   -1    0    0  501  502 -0.00000000000E+00 -0.00000000000E+00 -0.18030321720E+03  0.18030321720E+03  0.00000000000E+00 0.  1.
      99926    2    1    2    0    0  0.00000000000E+00  0.00000000000E+00  0.10800285551E+03  0.46860928991E+03  0.45599347560E+03 0.  0.
      99925    2    3    3    0    0 -0.75087951107E+02  0.56006071288E+02  0.88004752039E+00  0.27914244712E+03  0.26295408511E+03 0.  0.
         25    1    3    3    0    0  0.75087951107E+02 -0.56006071288E+02  0.10712280799E+03  0.18946684279E+03  0.12509000000E+03 0.  0.
         25    1    4    4    0    0 -0.17072918904E+00  0.36615106740E+02 -0.14983997051E+02  0.13119726925E+03  0.12509000000E+03 0.  0.
         25    1    4    4    0    0 -0.74917221918E+02  0.19390964548E+02  0.15864044572E+02  0.14794517787E+03  0.12509000000E+03 0.  0.
<mgrwt>
<rscale>  2 0.45599348E+03</rscale>
<asrwt>0</asrwt>
<pdfrwt beam="1">  1       21 0.42397952E-01 0.45599348E+03</pdfrwt>
<pdfrwt beam="2">  1       21 0.26515179E-01 0.45599348E+03</pdfrwt>
<totfact> 0.67009799E+04</totfact>
</mgrwt>
</event>
<event>
 7    0  0.4737014E-002  0.4089725E+03  0.7546771E-02  0.1040716E+00
         21   -1    0    0  502  501  0.00000000000E+00  0.00000000000E+00  0.10399491197E+03  0.10399491197E+03  0.00000000000E+00 0.  1.
         21   -1    0    0  501  502 -0.00000000000E+00 -0.00000000000E+00 -0.40208343598E+03  0.40208343598E+03  0.00000000000E+00 0.  1.
      99926    2    1    2    0    0  0.00000000000E+00  0.00000000000E+00 -0.29808852401E+03  0.50607834795E+03  0.40897252490E+03 0.  0.
      99925    2    3    3    0    0  0.42118643379E+02  0.43258402138E+02 -0.18719591857E+03  0.32834273668E+03  0.26290943559E+03 0.  0.
         25    1    3    3    0    0 -0.42118643379E+02 -0.43258402138E+02 -0.11089260544E+03  0.17773561128E+03  0.12509000000E+03 0.  0.
         25    1    4    4    0    0  0.12882883824E+02 -0.74178959930E+01 -0.55979645695E+02  0.13784854990E+03  0.12509000000E+03 0.  0.
         25    1    4    4    0    0  0.29235759554E+02  0.50676298131E+02 -0.13121627288E+03  0.19049418678E+03  0.12509000000E+03 0.  0.
<mgrwt>
<rscale>  2 0.40897252E+03</rscale>
<asrwt>0</asrwt>
<pdfrwt beam="1">  1       21 0.15293369E-01 0.40897252E+03</pdfrwt>
<pdfrwt beam="2">  1       21 0.59129917E-01 0.40897252E+03</pdfrwt>
<totfact> 0.95068563E+04</totfact>
</mgrwt>
</event>
<event>
 7    0  0.4737014E-002  0.4479217E+03  0.7546771E-02  0.1028344E+00
         21   -1    0    0  502  501  0.00000000000E+00  0.00000000000E+00  0.20948536289E+03  0.20948536289E+03  0.00000000000E+00 0.  1.
         21   -1    0    0  501  502 -0.00000000000E+00 -0.00000000000E+00 -0.23943659067E+03  0.23943659067E+03  0.00000000000E+00 0.  1.
      99926    2    1    2    0    0  0.00000000000E+00  0.00000000000E+00 -0.29951227780E+02  0.44892195356E+03  0.44792169443E+03 0.  0.
      99925    2    3    3    0    0 -0.13533169370E+02  0.24560960939E+01 -0.12462790938E+03  0.29144064920E+03  0.26309001716E+03 0.  0.
         25    1    4    4    0    0 -0.55568346799E+01  0.35231305425E+01 -0.10722872781E+03  0.16489026360E+03  0.12509000000E+03 0.  0.
         25    1    3    3    0    0  0.13533169370E+02 -0.24560960939E+01  0.94676681604E+02  0.15748130435E+03  0.12509000000E+03 0.  0.
         25    1    4    4    0    0 -0.79763346897E+01 -0.10670344486E+01 -0.17399181571E+02  0.12655038561E+03  0.12509000000E+03 0.  0.
<mgrwt>
<rscale>  2 0.44792169E+03</rscale>
<asrwt>0</asrwt>
<pdfrwt beam="1">  1       21 0.30806671E-01 0.44792169E+03</pdfrwt>
<pdfrwt beam="2">  1       21 0.35211263E-01 0.44792169E+03</pdfrwt>
<totfact> 0.73031632E+04</totfact>
</mgrwt>
</event>
<event>
 7    0  0.4737014E-002  0.4551807E+03  0.7546771E-02  0.1026188E+00
         21   -1    0    0  502  501  0.00000000000E+00  0.00000000000E+00  0.30029480795E+03  0.30029480795E+03  0.00000000000E+00 0.  1.
         21   -1    0    0  501  502 -0.00000000000E+00 -0.00000000000E+00 -0.17248839720E+03  0.17248839720E+03  0.00000000000E+00 0.  1.
      99926    2    1    2    0    0 -0.71054273576E-14 -0.71054273576E-14  0.12780641075E+03  0.47278320515E+03  0.45518071186E+03 0.  0.
      99925    2    3    3    0    0 -0.32985247211E+02 -0.59064758878E+02 -0.14003222244E+02  0.27194956160E+03  0.26302813831E+03 0.  0.
         25    1    4    4    0    0 -0.30720840530E+02 -0.66475431121E+02 -0.20808512964E+02  0.14643515731E+03  0.12509000000E+03 0.  0.
         25    1    4    4    0    0 -0.22644066806E+01  0.74106722430E+01  0.68052907198E+01  0.12551440428E+03  0.12509000000E+03 0.  0.
         25    1    3    3    0    0  0.32985247211E+02  0.59064758878E+02  0.14180963299E+03  0.20083364356E+03  0.12509000000E+03 0.  0.
<mgrwt>
<rscale>  2 0.45518071E+03</rscale>
<asrwt>0</asrwt>
<pdfrwt beam="1">  1       21 0.44161001E-01 0.45518071E+03</pdfrwt>
<pdfrwt beam="2">  1       21 0.25365941E-01 0.45518071E+03</pdfrwt>
<totfact> 0.67133033E+04</totfact>
</mgrwt>
</event>
<event>
 7    0  0.4737014E-002  0.4626365E+03  0.7546771E-02  0.1024019E+00
         21   -1    0    0  502  501  0.00000000000E+00  0.00000000000E+00  0.30759079999E+03  0.30759079999E+03  0.00000000000E+00 0. -1.
         21   -1    0    0  501  502 -0.00000000000E+00 -0.00000000000E+00 -0.17395879320E+03  0.17395879320E+03  0.00000000000E+00 0. -1.
      99926    2    1    2    0    0  0.00000000000E+00  0.00000000000E+00  0.13363200678E+03  0.48154959319E+03  0.46263646361E+03 0.  0.
      99925    2    3    3    0    0  0.60846148595E+01  0.83080959248E+02  0.17371974127E+03  0.32600537798E+03  0.26298572136E+03 0.  0.
         25    1    4    4    0    0  0.64089073863E+01  0.83186599602E+01  0.11018467168E+03  0.16702827357E+03  0.12509000000E+03 0.  0.
         25    1    4    4    0    0 -0.32429252676E+00  0.74762299288E+02  0.63535069589E+02  0.15897710441E+03  0.12509000000E+03 0.  0.
         25    1    3    3    0    0 -0.60846148595E+01 -0.83080959248E+02 -0.40087734486E+02  0.15554421521E+03  0.12509000000E+03 0.  0.
<mgrwt>
<rscale>  2 0.46263646E+03</rscale>
<asrwt>0</asrwt>
<pdfrwt beam="1">  1       21 0.45233941E-01 0.46263646E+03</pdfrwt>
<pdfrwt beam="2">  1       21 0.25582175E-01 0.46263646E+03</pdfrwt>
<totfact> 0.62700342E+04</totfact>
</mgrwt>
</event>
<event>
 7    0  0.4737014E-002  0.4510107E+03  0.7546771E-02  0.1027421E+00
         21   -1    0    0  502  501  0.00000000000E+00  0.00000000000E+00  0.48843042750E+02  0.48843042750E+02  0.00000000000E+00 0.  1.
         21   -1    0    0  501  502 -0.00000000000E+00 -0.00000000000E+00 -0.10411444865E+04  0.10411444865E+04  0.00000000000E+00 0.  1.
      99926    2    1    2    0    0  0.00000000000E+00  0.00000000000E+00 -0.99230144371E+03  0.10899875292E+04  0.45101070790E+03 0.  0.
      99925    2    3    3    0    0  0.74486868162E+02  0.65038397379E+02 -0.51400893773E+03  0.58581541967E+03  0.26305176524E+03 0.  0.
         25    1    3    3    0    0 -0.74486868162E+02 -0.65038397379E+02 -0.47829250598E+03  0.50417210954E+03  0.12509000000E+03 0.  0.
         25    1    4    4    0    0  0.55516418493E+02  0.10998148516E+02 -0.31768956502E+03  0.34608842774E+03  0.12509000000E+03 0.  0.
         25    1    4    4    0    0  0.18970449668E+02  0.54040248863E+02 -0.19631937271E+03  0.23972699193E+03  0.12509000000E+03 0.  0.
<mgrwt>
<rscale>  2 0.45101071E+03</rscale>
<asrwt>0</asrwt>
<pdfrwt beam="1">  1       21 0.71828004E-02 0.45101071E+03</pdfrwt>
<pdfrwt beam="2">  1       21 0.15310948E+00 0.45101071E+03</pdfrwt>
<totfact> 0.36981037E+04</totfact>
</mgrwt>
</event>
<event>
 7    0  0.4737014E-002  0.4570215E+03  0.7546771E-02  0.1025649E+00
         21   -1    0    0  502  501  0.00000000000E+00  0.00000000000E+00  0.42802580398E+03  0.42802580398E+03  0.00000000000E+00 0.  1.
         21   -1    0    0  501  502 -0.00000000000E+00 -0.00000000000E+00 -0.12199535779E+03  0.12199535779E+03  0.00000000000E+00 0.  1.
      99926    2    1    2    0    0  0.00000000000E+00  0.35527136788E-14  0.30603044619E+03  0.55002116177E+03  0.45702149228E+03 0.  0.
      99925    2    3    3    0    0  0.11283403897E+03  0.17070626699E+02  0.20995430014E+03  0.35533921452E+03  0.26298711487E+03 0.  0.
         25    1    4    4    0    0  0.20137820866E+02  0.62573166459E+00  0.12138364179E+03  0.17546344338E+03  0.12509000000E+03 0.  0.
         25    1    3    3    0    0 -0.11283403897E+03 -0.17070626699E+02  0.96076146052E+02  0.19468194725E+03  0.12509000000E+03 0.  0.
         25    1    4    4    0    0  0.92696218099E+02  0.16444895035E+02  0.88570658347E+02  0.17987577114E+03  0.12509000000E+03 0.  0.
<mgrwt>
<rscale>  2 0.45702149E+03</rscale>
<asrwt>0</asrwt>
<pdfrwt beam="1">  1       21 0.62944971E-01 0.45702149E+03</pdfrwt>
<pdfrwt beam="2">  1       21 0.17940494E-01 0.45702149E+03</pdfrwt>
<totfact> 0.60885458E+04</totfact>
</mgrwt>
</event>
<event>
 7    0  0.4737014E-002  0.4521386E+03  0.7546771E-02  0.1027086E+00
         21   -1    0    0  502  501  0.00000000000E+00  0.00000000000E+00  0.17881021446E+03  0.17881021446E+03  0.00000000000E+00 0.  1.
         21   -1    0    0  501  502 -0.00000000000E+00 -0.00000000000E+00 -0.28581888801E+03  0.28581888801E+03  0.00000000000E+00 0.  1.
      99926    2    1    2    0    0  0.00000000000E+00  0.71054273576E-14 -0.10700867355E+03  0.46462910246E+03  0.45213863653E+03 0.  0.
      99925    2    3    3    0    0 -0.90458583068E+02 -0.63247576454E+02 -0.63539076825E+02  0.29223384407E+03  0.26302166100E+03 0.  0.
         25    1    3    3    0    0  0.90458583068E+02  0.63247576454E+02 -0.43469596724E+02  0.17239525840E+03  0.12509000000E+03 0.  0.
         25    1    4    4    0    0 -0.79684859637E+02 -0.57409186660E+02 -0.44203537943E+02  0.16506650913E+03  0.12509000000E+03 0.  0.
         25    1    4    4    0    0 -0.10773723431E+02 -0.58383897945E+01 -0.19335538882E+02  0.12716733494E+03  0.12509000000E+03 0.  0.
<mgrwt>
<rscale>  2 0.45213864E+03</rscale>
<asrwt>0</asrwt>
<pdfrwt beam="1">  1       21 0.26295620E-01 0.45213864E+03</pdfrwt>
<pdfrwt beam="2">  1       21 0.42032189E-01 0.45213864E+03</pdfrwt>
<totfact> 0.69399307E+04</totfact>
</mgrwt>
</event>
<event>
 7    0  0.4737014E-002  0.4552266E+03  0.7546771E-02  0.1026175E+00
         21   -1    0    0  502  501  0.00000000000E+00  0.00000000000E+00  0.13285354988E+03  0.13285354988E+03  0.00000000000E+00 0. -1.
         21   -1    0    0  501  502 -0.00000000000E+00 -0.00000000000E+00 -0.38996175412E+03  0.38996175412E+03  0.00000000000E+00 0. -1.
      99926    2    1    2    0    0  0.00000000000E+00  0.71054273576E-14 -0.25710820424E+03  0.52281530400E+03  0.45522655174E+03 0.  0.
      99925    2    3    3    0    0 -0.40245443117E+02 -0.57903248370E+02 -0.61047413007E+02  0.27979303378E+03  0.26378944872E+03 0.  0.
         25    1    4    4    0    0  0.58268027292E+01 -0.10669973497E+02  0.18844816560E+00  0.12567952728E+03  0.12509000000E+03 0.  0.
         25    1    4    4    0    0 -0.46072245846E+02 -0.47233274873E+02 -0.61235861172E+02  0.15411350650E+03  0.12509000000E+03 0.  0.
         25    1    3    3    0    0  0.40245443117E+02  0.57903248370E+02 -0.19606079123E+03  0.24302227022E+03  0.12509000000E+03 0.  0.
<mgrwt>
<rscale>  2 0.45522655E+03</rscale>
<asrwt>0</asrwt>
<pdfrwt beam="1">  1       21 0.19537287E-01 0.45522655E+03</pdfrwt>
<pdfrwt beam="2">  1       21 0.57347317E-01 0.45522655E+03</pdfrwt>
<totfact> 0.63581181E+04</totfact>
</mgrwt>
</event>
<event>
 7    0  0.4737014E-002  0.4561208E+03  0.7546771E-02  0.1025912E+00
         21   -1    0    0  502  501  0.00000000000E+00  0.00000000000E+00  0.63535097329E+02  0.63535097329E+02  0.00000000000E+00 0.  1.
         21   -1    0    0  501  502 -0.00000000000E+00 -0.00000000000E+00 -0.81862714916E+03  0.81862714916E+03  0.00000000000E+00 0.  1.
      99926    2    1    2    0    0  0.00000000000E+00  0.00000000000E+00 -0.75509205183E+03  0.88216224649E+03  0.45612084187E+03 0.  0.
      99925    2    3    3    0    0  0.31421103645E+02  0.54405457054E+02 -0.65904620773E+03  0.71239902379E+03  0.26310307043E+03 0.  0.
         25    1    3    3    0    0 -0.31421103645E+02 -0.54405457054E+02 -0.96045844108E+02  0.16976322270E+03  0.12509000000E+03 0.  0.
         25    1    4    4    0    0 -0.24512714671E+02  0.28928051966E+02 -0.33871414367E+03  0.36305989119E+03  0.12509000000E+03 0.  0.
         25    1    4    4    0    0  0.55933818316E+02  0.25477405088E+02 -0.32033206406E+03  0.34933913260E+03  0.12509000000E+03 0.  0.
<mgrwt>
<rscale>  2 0.45612084E+03</rscale>
<asrwt>0</asrwt>
<pdfrwt beam="1">  1       21 0.93433961E-02 0.45612084E+03</pdfrwt>
<pdfrwt beam="2">  1       21 0.12038635E+00 0.45612084E+03</pdfrwt>
<totfact> 0.43629695E+04</totfact>
</mgrwt>
</event>
<event>
 7    0  0.4737014E-002  0.4568358E+03  0.7546771E-02  0.1025703E+00
         21   -1    0    0  502  501  0.00000000000E+00  0.00000000000E+00  0.14119131386E+03  0.14119131386E+03  0.00000000000E+00 0.  1.
         21   -1    0    0  501  502 -0.00000000000E+00 -0.00000000000E+00 -0.36953223477E+03  0.36953223477E+03  0.00000000000E+00 0.  1.
      99926    2    1    2    0    0 -0.14210854715E-13 -0.14210854715E-13 -0.22834092091E+03  0.51072354862E+03  0.45683582057E+03 0.  0.
      99925    2    3    3    0    0  0.82757131816E+02  0.78186727801E+02 -0.16085464371E+03  0.32861420515E+03  0.26296610457E+03 0.  0.
         25    1    4    4    0    0  0.44273486121E+02 -0.71919117334E+00 -0.60875803716E+02  0.14599325460E+03  0.12509000000E+03 0.  0.
         25    1    3    3    0    0 -0.82757131816E+02 -0.78186727801E+02 -0.67486277201E+02  0.18210934348E+03  0.12509000000E+03 0.  0.
         25    1    4    4    0    0  0.38483645695E+02  0.78905918974E+02 -0.99978839992E+02  0.18262095055E+03  0.12509000000E+03 0.  0.
<mgrwt>
<rscale>  2 0.45683582E+03</rscale>
<asrwt>0</asrwt>
<pdfrwt beam="1">  1       21 0.20763429E-01 0.45683582E+03</pdfrwt>
<pdfrwt beam="2">  1       21 0.54342975E-01 0.45683582E+03</pdfrwt>
<totfact> 0.63592092E+04</totfact>
</mgrwt>
</event>
<event>
 7    0  0.4737014E-002  0.4508118E+03  0.7546771E-02  0.1027480E+00
         21   -1    0    0  502  501  0.00000000000E+00  0.00000000000E+00  0.13535769118E+03  0.13535769118E+03  0.00000000000E+00 0. -1.
         21   -1    0    0  501  502 -0.00000000000E+00 -0.00000000000E+00 -0.37535974653E+03  0.37535974653E+03  0.00000000000E+00 0. -1.
      99926    2    1    2    0    0  0.00000000000E+00  0.00000000000E+00 -0.24000205535E+03  0.51071743771E+03  0.45081183947E+03 0.  0.
      99925    2    3    3    0    0  0.40626210943E+02 -0.74797074880E+02 -0.74182539920E+02  0.28624313802E+03  0.26303420577E+03 0.  0.
         25    1    4    4    0    0  0.30562121893E+02 -0.12155971906E+02 -0.67328211412E+02  0.14581634716E+03  0.12509000000E+03 0.  0.
         25    1    4    4    0    0  0.10064089050E+02 -0.62641102974E+02 -0.68543285080E+01  0.14042679085E+03  0.12509000000E+03 0.  0.
         25    1    3    3    0    0 -0.40626210943E+02  0.74797074880E+02 -0.16581951543E+03  0.22447429969E+03  0.12509000000E+03 0.  0.
<mgrwt>
<rscale>  2 0.45081184E+03</rscale>
<asrwt>0</asrwt>
<pdfrwt beam="1">  1       21 0.19905543E-01 0.45081184E+03</pdfrwt>
<pdfrwt beam="2">  1       21 0.55199961E-01 0.45081184E+03</pdfrwt>
<totfact> 0.66713940E+04</totfact>
</mgrwt>
</event>
<event>
 7    0  0.4737014E-002  0.4480591E+03  0.7546771E-02  0.1028302E+00
         21   -1    0    0  502  501  0.00000000000E+00  0.00000000000E+00  0.32523586882E+02  0.32523586882E+02  0.00000000000E+00 0.  1.
         21   -1    0    0  501  502 -0.00000000000E+00 -0.00000000000E+00 -0.15431643927E+04  0.15431643927E+04  0.00000000000E+00 0.  1.
      99926    2    1    2    0    0  0.35527136788E-14  0.00000000000E+00 -0.15106408058E+04  0.15756879796E+04  0.44805910859E+03 0.  0.
      99925    2    3    3    0    0  0.14591525477E+02  0.90910220689E+01 -0.13263910571E+04  0.13523249627E+04  0.26300952290E+03 0.  0.
         25    1    4    4    0    0 -0.25633586111E+02  0.28854379015E+01 -0.77541318354E+03  0.78586164164E+03  0.12509000000E+03 0.  0.
         25    1    3    3    0    0 -0.14591525477E+02 -0.90910220689E+01 -0.18424974869E+03  0.22336301684E+03  0.12509000000E+03 0.  0.
         25    1    4    4    0    0  0.40225111588E+02  0.62055841674E+01 -0.55097787358E+03  0.56646332110E+03  0.12509000000E+03 0.  0.
<mgrwt>
<rscale>  2 0.44805911E+03</rscale>
<asrwt>0</asrwt>
<pdfrwt beam="1">  1       21 0.47828802E-02 0.44805911E+03</pdfrwt>
<pdfrwt beam="2">  1       21 0.22693595E+00 0.44805911E+03</pdfrwt>
<totfact> 0.23209685E+04</totfact>
</mgrwt>
</event>
<event>
 7    0  0.4737014E-002  0.4493949E+03  0.7546771E-02  0.1027903E+00
         21   -1    0    0  502  501  0.00000000000E+00  0.00000000000E+00  0.76230318112E+03  0.76230318112E+03  0.00000000000E+00 0. -1.
         21   -1    0    0  501  502 -0.00000000000E+00 -0.00000000000E+00 -0.66232102404E+02  0.66232102404E+02  0.00000000000E+00 0. -1.
      99926    2    1    2    0    0  0.00000000000E+00 -0.71054273576E-14  0.69607107872E+03  0.82853528352E+03  0.44939489252E+03 0.  0.
      99925    2    3    3    0    0 -0.85964596819E+02  0.53241921109E+02  0.37009570179E+03  0.46503553314E+03  0.26279764939E+03 0.  0.
         25    1    4    4    0    0 -0.30015217486E+02  0.49594918925E+02  0.23571107820E+03  0.27307103426E+03  0.12509000000E+03 0.  0.
         25    1    3    3    0    0  0.85964596819E+02 -0.53241921109E+02  0.32597537693E+03  0.36349975039E+03  0.12509000000E+03 0.  0.
         25    1    4    4    0    0 -0.55949379334E+02  0.36470021839E+01  0.13438462359E+03  0.19196449888E+03  0.12509000000E+03 0.  0.
<mgrwt>
<rscale>  2 0.44939489E+03</rscale>
<asrwt>0</asrwt>
<pdfrwt beam="1">  1       21 0.11210340E+00 0.44939489E+03</pdfrwt>
<pdfrwt beam="2">  1       21 0.97400155E-02 0.44939489E+03</pdfrwt>
<totfact> 0.48513998E+04</totfact>
</mgrwt>
</event>
<event>
 7    0  0.4737014E-002  0.4579548E+03  0.7546771E-02  0.1025376E+00
         21   -1    0    0  502  501  0.00000000000E+00  0.00000000000E+00  0.22774767501E+02  0.22774767501E+02  0.00000000000E+00 0.  1.
         21   -1    0    0  501  502 -0.00000000000E+00 -0.00000000000E+00 -0.23021372768E+04  0.23021372768E+04  0.00000000000E+00 0.  1.
      99926    2    1    2    0    0  0.00000000000E+00  0.00000000000E+00 -0.22793625093E+04  0.23249120443E+04  0.45795476299E+03 0.  0.
      99925    2    3    3    0    0 -0.11361002963E+03 -0.19052029500E+02 -0.15007346278E+04  0.15279307995E+04  0.26286476797E+03 0.  0.
         25    1    4    4    0    0 -0.53384193946E+02  0.28681822205E+02 -0.66049520652E+03  0.67496218044E+03  0.12509000000E+03 0.  0.
         25    1    4    4    0    0 -0.60225835686E+02 -0.47733851705E+02 -0.84023942130E+03  0.85296861905E+03  0.12509000000E+03 0.  0.
         25    1    3    3    0    0  0.11361002963E+03  0.19052029500E+02 -0.77862788150E+03  0.79698124482E+03  0.12509000000E+03 0.  0.
<mgrwt>
<rscale>  2 0.45795476E+03</rscale>
<asrwt>0</asrwt>
<pdfrwt beam="1">  1       21 0.33492302E-02 0.45795476E+03</pdfrwt>
<pdfrwt beam="2">  1       21 0.33854963E+00 0.45795476E+03</pdfrwt>
<totfact> 0.88877145E+03</totfact>
</mgrwt>
</event>
<event>
 7    0  0.4737014E-002  0.4482716E+03  0.7546771E-02  0.1028239E+00
         21   -1    0    0  502  501  0.00000000000E+00  0.00000000000E+00  0.38609065854E+03  0.38609065854E+03  0.00000000000E+00 0.  1.
         21   -1    0    0  501  502 -0.00000000000E+00 -0.00000000000E+00 -0.13011673582E+03  0.13011673582E+03  0.00000000000E+00 0.  1.
      99926    2    1    2    0    0 -0.14210854715E-13  0.71054273576E-14  0.25597392272E+03  0.51620739435E+03  0.44827159722E+03 0.  0.
      99925    2    3    3    0    0  0.89997170589E+02  0.50803305256E+02  0.19297151356E+03  0.34214626085E+03  0.26295549476E+03 0.  0.
         25    1    4    4    0    0  0.37281419038E+02 -0.14303698656E+02  0.10172980246E+03  0.16610527026E+03  0.12509000000E+03 0.  0.
         25    1    4    4    0    0  0.52715751550E+02  0.65107003912E+02  0.91241711106E+02  0.17604099058E+03  0.12509000000E+03 0.  0.
         25    1    3    3    0    0 -0.89997170589E+02 -0.50803305256E+02  0.63002409158E+02  0.17406113351E+03  0.12509000000E+03 0.  0.
<mgrwt>
<rscale>  2 0.44827160E+03</rscale>
<asrwt>0</asrwt>
<pdfrwt beam="1">  1       21 0.56778038E-01 0.44827160E+03</pdfrwt>
<pdfrwt beam="2">  1       21 0.19134814E-01 0.44827160E+03</pdfrwt>
<totfact> 0.67688133E+04</totfact>
</mgrwt>
</event>
<event>
 7    0  0.4737014E-002  0.4564339E+03  0.7546771E-02  0.1025821E+00
         21   -1    0    0  502  501  0.00000000000E+00  0.00000000000E+00  0.14773124874E+03  0.14773124874E+03  0.00000000000E+00 0. -1.
         21   -1    0    0  501  502 -0.00000000000E+00 -0.00000000000E+00 -0.35255212131E+03  0.35255212131E+03  0.00000000000E+00 0. -1.
      99926    2    1    2    0    0  0.00000000000E+00  0.31086244690E-14 -0.20482087258E+03  0.50028337005E+03  0.45643385119E+03 0.  0.
      99925    2    3    3    0    0 -0.10314760771E+03 -0.11929576087E+01 -0.74216411485E+02  0.29208662301E+03  0.26299366434E+03 0.  0.
         25    1    4    4    0    0 -0.32191266496E+02  0.31464578805E+02 -0.52891359337E+02  0.14307795550E+03  0.12509000000E+03 0.  0.
         25    1    3    3    0    0  0.10314760771E+03  0.11929576087E+01 -0.13060446109E+03  0.20819674705E+03  0.12509000000E+03 0.  0.
         25    1    4    4    0    0 -0.70956341211E+02 -0.32657536414E+02 -0.21325052148E+02  0.14900866751E+03  0.12509000000E+03 0.  0.
<mgrwt>
<rscale>  2 0.45643385E+03</rscale>
<asrwt>0</asrwt>
<pdfrwt beam="1">  1       21 0.21725183E-01 0.45643385E+03</pdfrwt>
<pdfrwt beam="2">  1       21 0.51845901E-01 0.45643385E+03</pdfrwt>
<totfact> 0.64513329E+04</totfact>
</mgrwt>
</event>
<event>
 7    0  0.4737014E-002  0.4562858E+03  0.7546771E-02  0.1025864E+00
         21   -1    0    0  502  501  0.00000000000E+00  0.00000000000E+00  0.59822982193E+03  0.59822982193E+03  0.00000000000E+00 0.  1.
         21   -1    0    0  501  502 -0.00000000000E+00 -0.00000000000E+00 -0.87005330141E+02  0.87005330141E+02  0.00000000000E+00 0.  1.
      99926    2    1    2    0    0  0.00000000000E+00  0.00000000000E+00  0.51122449179E+03  0.68523515207E+03  0.45628580148E+03 0.  0.
      99925    2    3    3    0    0 -0.80292568441E+02  0.81328289616E+02  0.32441085904E+03  0.43302883034E+03  0.26307864833E+03 0.  0.
         25    1    4    4    0    0 -0.55651127236E+02  0.79035584470E+01  0.18548749938E+03  0.23067863951E+03  0.12509000000E+03 0.  0.
         25    1    4    4    0    0 -0.24641441205E+02  0.73424731169E+02  0.13892335966E+03  0.20235019083E+03  0.12509000000E+03 0.  0.
         25    1    3    3    0    0  0.80292568441E+02 -0.81328289616E+02  0.18681363275E+03  0.25220632173E+03  0.12509000000E+03 0.  0.
<mgrwt>
<rscale>  2 0.45628580E+03</rscale>
<asrwt>0</asrwt>
<pdfrwt beam="1">  1       21 0.87974972E-01 0.45628580E+03</pdfrwt>
<pdfrwt beam="2">  1       21 0.12794902E-01 0.45628580E+03</pdfrwt>
<totfact> 0.53171855E+04</totfact>
</mgrwt>
</event>
<event>
 7    0  0.4737014E-002  0.4526909E+03  0.7546771E-02  0.1026923E+00
         21   -1    0    0  502  501  0.00000000000E+00  0.00000000000E+00  0.12117115547E+03  0.12117115547E+03  0.00000000000E+00 0. -1.
         21   -1    0    0  501  502 -0.00000000000E+00 -0.00000000000E+00 -0.42280900696E+03  0.42280900696E+03  0.00000000000E+00 0. -1.
      99926    2    1    2    0    0 -0.22204460493E-14  0.00000000000E+00 -0.30163785149E+03  0.54398016243E+03  0.45269086987E+03 0.  0.
      99925    2    3    3    0    0 -0.32077920571E+01 -0.11071307311E+03 -0.20061993167E+03  0.34873722988E+03  0.26287187760E+03 0.  0.
         25    1    3    3    0    0  0.32077920571E+01  0.11071307311E+03 -0.10101791983E+03  0.19524293256E+03  0.12509000000E+03 0.  0.
         25    1    4    4    0    0 -0.19722409350E+02 -0.70311209221E+02 -0.14530481699E+03  0.20516734027E+03  0.12509000000E+03 0.  0.
         25    1    4    4    0    0  0.16514617293E+02 -0.40401863891E+02 -0.55315114679E+02  0.14356988961E+03  0.12509000000E+03 0.  0.
<mgrwt>
<rscale>  2 0.45269087E+03</rscale>
<asrwt>0</asrwt>
<pdfrwt beam="1">  1       21 0.17819288E-01 0.45269087E+03</pdfrwt>
<pdfrwt beam="2">  1       21 0.62177793E-01 0.45269087E+03</pdfrwt>
<totfact> 0.63416925E+04</totfact>
</mgrwt>
</event>
<event>
 7    0  0.4737014E-002  0.4487341E+03  0.7546771E-02  0.1028100E+00
         21   -1    0    0  502  501  0.00000000000E+00  0.00000000000E+00  0.82761521630E+02  0.82761521630E+02  0.00000000000E+00 0.  1.
         21   -1    0    0  501  502 -0.00000000000E+00 -0.00000000000E+00 -0.60826054808E+03  0.60826054808E+03  0.00000000000E+00 0.  1.
      99926    2    1    2    0    0  0.00000000000E+00  0.00000000000E+00 -0.52549902645E+03  0.69102206971E+03  0.44873407941E+03 0.  0.
      99925    2    3    3    0    0  0.40147801411E+02 -0.94083387830E+02 -0.37685761562E+03  0.47146499982E+03  0.26418564266E+03 0.  0.
         25    1    4    4    0    0  0.26662604289E+02 -0.20992503761E+02 -0.23431814455E+03  0.26777617640E+03  0.12509000000E+03 0.  0.
         25    1    3    3    0    0 -0.40147801411E+02  0.94083387830E+02 -0.14864141083E+03  0.21955706989E+03  0.12509000000E+03 0.  0.
         25    1    4    4    0    0  0.13485197122E+02 -0.73090884068E+02 -0.14253947107E+03  0.20368882342E+03  0.12509000000E+03 0.  0.
<mgrwt>
<rscale>  2 0.44873408E+03</rscale>
<asrwt>0</asrwt>
<pdfrwt beam="1">  1       21 0.12170812E-01 0.44873408E+03</pdfrwt>
<pdfrwt beam="2">  1       21 0.89450082E-01 0.44873408E+03</pdfrwt>
<totfact> 0.56109908E+04</totfact>
</mgrwt>
</event>
<event>
 7    0  0.4737014E-002  0.4264325E+03  0.7546771E-02  0.1034993E+00
         21   -1    0    0  502  501  0.00000000000E+00  0.00000000000E+00  0.48598985353E+02  0.48598985353E+02  0.00000000000E+00 0. -1.
         21   -1    0    0  501  502 -0.00000000000E+00 -0.00000000000E+00 -0.93543468826E+03  0.93543468826E+03  0.00000000000E+00 0. -1.
      99926    2    1    2    0    0 -0.71054273576E-14 -0.71054273576E-14 -0.88683570291E+03  0.98403367362E+03  0.42643253494E+03 0.  0.
      99925    2    3    3    0    0 -0.25665720149E+02 -0.55008852263E+02 -0.70688119682E+03  0.75662251430E+03  0.26289142191E+03 0.  0.
         25    1    3    3    0    0  0.25665720149E+02  0.55008852263E+02 -0.17995450609E+03  0.22741115931E+03  0.12509000000E+03 0.  0.
         25    1    4    4    0    0 -0.37849731053E+02 -0.59347540990E+02 -0.40003791092E+03  0.42500890700E+03  0.12509000000E+03 0.  0.
         25    1    4    4    0    0  0.12184010904E+02  0.43386887265E+01 -0.30684328590E+03  0.33161360730E+03  0.12509000000E+03 0.  0.
<mgrwt>
<rscale>  2 0.42643253E+03</rscale>
<asrwt>0</asrwt>
<pdfrwt beam="1">  1       21 0.71469102E-02 0.42643253E+03</pdfrwt>
<pdfrwt beam="2">  1       21 0.13756391E+00 0.42643253E+03</pdfrwt>
<totfact> 0.50067292E+04</totfact>
</mgrwt>
</event>
<event>
 6    0  0.4737014E-002  0.4477443E+03  0.7546771E-02  0.1028397E+00
         21   -1    0    0  502  501  0.00000000000E+00  0.00000000000E+00  0.45953956581E+03  0.45953956581E+03  0.00000000000E+00 0. -1.
         21   -1    0    0  501  502 -0.00000000000E+00 -0.00000000000E+00 -0.10906296530E+03  0.10906296530E+03  0.00000000000E+00 0. -1.
      99926    2    1    2    0    0  0.00000000000E+00  0.00000000000E+00  0.35047660052E+03  0.56860253111E+03  0.44774433650E+03 0.  0.
         25    1    3    3    0    0  0.13901946703E+02  0.68501950891E+02  0.29218787242E+02  0.14624304095E+03  0.12509000000E+03 0.  0.
         25    1    3    3    0    0 -0.42019803259E+02 -0.74585735066E+01  0.15229531537E+03  0.20164985834E+03  0.12509000000E+03 0.  0.
         25    1    3    3    0    0  0.28117856557E+02 -0.61043377384E+02  0.16896249790E+03  0.22070963182E+03  0.12509000000E+03 0.  0.
<mgrwt>
<rscale>  2 0.44774434E+03</rscale>
<asrwt>0</asrwt>
<pdfrwt beam="1">  1       21 0.67579347E-01 0.44774434E+03</pdfrwt>
<pdfrwt beam="2">  1       21 0.16038671E-01 0.44774434E+03</pdfrwt>
<totfact> 0.64262328E+04</totfact>
</mgrwt>
</event>
<event>
 7    0  0.4737014E-002  0.4407278E+03  0.7546771E-02  0.1030524E+00
         21   -1    0    0  502  501  0.00000000000E+00  0.00000000000E+00  0.56336391000E+02  0.56336391000E+02  0.00000000000E+00 0. -1.
         21   -1    0    0  501  502 -0.00000000000E+00 -0.00000000000E+00 -0.86196962956E+03  0.86196962956E+03  0.00000000000E+00 0. -1.
      99926    2    1    2    0    0 -0.88817841970E-15  0.71054273576E-14 -0.80563323856E+03  0.91830602056E+03  0.44072784383E+03 0.  0.
      99925    2    3    3    0    0 -0.48703747321E+01  0.59649284498E+02 -0.67831390417E+03  0.73005225911E+03  0.26322004246E+03 0.  0.
         25    1    3    3    0    0  0.48703747321E+01 -0.59649284498E+02 -0.12731933439E+03  0.18825376145E+03  0.12509000000E+03 0.  0.
         25    1    4    4    0    0  0.56156432087E+01  0.70913028147E+02 -0.35981675878E+03  0.38752522628E+03  0.12509000000E+03 0.  0.
         25    1    4    4    0    0 -0.10486017941E+02 -0.11263743649E+02 -0.31849714539E+03  0.34252703283E+03  0.12509000000E+03 0.  0.
<mgrwt>
<rscale>  2 0.44072784E+03</rscale>
<asrwt>0</asrwt>
<pdfrwt beam="1">  1       21 0.82847635E-02 0.44072784E+03</pdfrwt>
<pdfrwt beam="2">  1       21 0.12676024E+00 0.44072784E+03</pdfrwt>
<totfact> 0.47541476E+04</totfact>
</mgrwt>
</event>
<event>
 7    0  0.4737014E-002  0.4517082E+03  0.7546771E-02  0.1027214E+00
         21   -1    0    0  502  501  0.00000000000E+00  0.00000000000E+00  0.78948168213E+03  0.78948168213E+03  0.00000000000E+00 0. -1.
         21   -1    0    0  501  502 -0.00000000000E+00 -0.00000000000E+00 -0.64612116702E+02  0.64612116702E+02  0.00000000000E+00 0. -1.
      99926    2    1    2    0    0  0.14210854715E-13  0.00000000000E+00  0.72486956543E+03  0.85409379883E+03  0.45170823583E+03 0.  0.
      99925    2    3    3    0    0  0.10936801435E+03 -0.10724653730E+02  0.44899383561E+03  0.53186514218E+03  0.26307543461E+03 0.  0.
         25    1    3    3    0    0 -0.10936801435E+03  0.10724653730E+02  0.27587572982E+03  0.32222865665E+03  0.12509000000E+03 0.  0.
         25    1    4    4    0    0  0.86885992641E+02 -0.50524571159E+01  0.29569469752E+03  0.33265231892E+03  0.12509000000E+03 0.  0.
         25    1    4    4    0    0  0.22482021714E+02 -0.56721966139E+01  0.15329913809E+03  0.19921282327E+03  0.12509000000E+03 0.  0.
<mgrwt>
<rscale>  2 0.45170824E+03</rscale>
<asrwt>0</asrwt>
<pdfrwt beam="1">  1       21 0.11610024E+00 0.45170824E+03</pdfrwt>
<pdfrwt beam="2">  1       21 0.95017823E-02 0.45170824E+03</pdfrwt>
<totfact> 0.46444467E+04</totfact>
</mgrwt>
</event>
<event>
 7    0  0.4737014E-002  0.4554018E+03  0.7546771E-02  0.1026123E+00
         21   -1    0    0  502  501  0.00000000000E+00  0.00000000000E+00  0.85784852387E+02  0.85784852387E+02  0.00000000000E+00 0. -1.
         21   -1    0    0  501  502 -0.00000000000E+00 -0.00000000000E+00 -0.60439213617E+03  0.60439213617E+03  0.00000000000E+00 0. -1.
      99926    2    1    2    0    0  0.14210854715E-13  0.00000000000E+00 -0.51860728378E+03  0.69017698855E+03  0.45540175750E+03 0.  0.
      99925    2    3    3    0    0  0.10234521035E+03 -0.44923117817E+02 -0.29580927877E+03  0.41128796451E+03  0.26298675204E+03 0.  0.
         25    1    4    4    0    0  0.80302938854E+02 -0.81952706264E+01 -0.11946336192E+03  0.19087882908E+03  0.12509000000E+03 0.  0.
         25    1    4    4    0    0  0.22042271492E+02 -0.36727847191E+02 -0.17634591686E+03  0.22040913544E+03  0.12509000000E+03 0.  0.
         25    1    3    3    0    0 -0.10234521035E+03  0.44923117817E+02 -0.22279800501E+03  0.27888902404E+03  0.12509000000E+03 0.  0.
<mgrwt>
<rscale>  2 0.45540176E+03</rscale>
<asrwt>0</asrwt>
<pdfrwt beam="1">  1       21 0.12615420E-01 0.45540176E+03</pdfrwt>
<pdfrwt beam="2">  1       21 0.88881193E-01 0.45540176E+03</pdfrwt>
<totfact> 0.53270962E+04</totfact>
</mgrwt>
</event>
<event>
 7    0  0.4737014E-002  0.4614005E+03  0.7546771E-02  0.1024376E+00
         21   -1    0    0  502  501  0.00000000000E+00  0.00000000000E+00  0.56130788927E+02  0.56130788927E+02  0.00000000000E+00 0.  1.
         21   -1    0    0  501  502 -0.00000000000E+00 -0.00000000000E+00 -0.94818901942E+03  0.94818901942E+03  0.00000000000E+00 0.  1.
      99926    2    1    2    0    0  0.00000000000E+00  0.71054273576E-14 -0.89205823049E+03  0.10043198083E+04  0.46140046689E+03 0.  0.
      99925    2    3    3    0    0 -0.85624059128E+02  0.56901213641E+02 -0.42752001519E+03  0.51237215952E+03  0.26302592808E+03 0.  0.
         25    1    4    4    0    0 -0.74782741587E+02  0.32399648015E+02 -0.18094035543E+03  0.23458285520E+03  0.12509000000E+03 0.  0.
         25    1    4    4    0    0 -0.10841317541E+02  0.24501565626E+02 -0.24657965976E+03  0.27778930432E+03  0.12509000000E+03 0.  0.
         25    1    3    3    0    0  0.85624059128E+02 -0.56901213641E+02 -0.46453821530E+03  0.49194764883E+03  0.12509000000E+03 0.  0.
<mgrwt>
<rscale>  2 0.46140047E+03</rscale>
<asrwt>0</asrwt>
<pdfrwt beam="1">  1       21 0.82545285E-02 0.46140047E+03</pdfrwt>
<pdfrwt beam="2">  1       21 0.13943955E+00 0.46140047E+03</pdfrwt>
<totfact> 0.37109334E+04</totfact>
</mgrwt>
</event>
<event>
 7    0  0.4737014E-002  0.4542505E+03  0.7546771E-02  0.1026462E+00
         21   -1    0    0  502  501  0.00000000000E+00  0.00000000000E+00  0.17369721670E+03  0.17369721670E+03  0.00000000000E+00 0.  1.
         21   -1    0    0  501  502 -0.00000000000E+00 -0.00000000000E+00 -0.29698740372E+03  0.29698740372E+03  0.00000000000E+00 0.  1.
      99926    2    1    2    0    0  0.00000000000E+00  0.00000000000E+00 -0.12329018703E+03  0.47068462042E+03  0.45425052744E+03 0.  0.
      99925    2    3    3    0    0 -0.91668514457E+02  0.60631458801E+02 -0.52838540177E+02  0.28988021510E+03  0.26298162947E+03 0.  0.
         25    1    3    3    0    0  0.91668514457E+02 -0.60631458801E+02 -0.70451646849E+02  0.18080440532E+03  0.12509000000E+03 0.  0.
         25    1    4    4    0    0 -0.72253830674E+02  0.32610955462E+02  0.43934140963E+01  0.14815836342E+03  0.12509000000E+03 0.  0.
         25    1    4    4    0    0 -0.19414683783E+02  0.28020503339E+02 -0.57231954274E+02  0.14172185168E+03  0.12509000000E+03 0.  0.
<mgrwt>
<rscale>  2 0.45425053E+03</rscale>
<asrwt>0</asrwt>
<pdfrwt beam="1">  1       21 0.25543709E-01 0.45425053E+03</pdfrwt>
<pdfrwt beam="2">  1       21 0.43674618E-01 0.45425053E+03</pdfrwt>
<totfact> 0.67786990E+04</totfact>
</mgrwt>
</event>
<event>
 7    0  0.4737014E-002  0.4490405E+03  0.7546771E-02  0.1028009E+00
         21   -1    0    0  502  501  0.00000000000E+00  0.00000000000E+00  0.32761709076E+03  0.32761709076E+03  0.00000000000E+00 0.  1.
         21   -1    0    0  501  502 -0.00000000000E+00 -0.00000000000E+00 -0.15386661208E+03  0.15386661208E+03  0.00000000000E+00 0.  1.
      99926    2    1    2    0    0  0.14210854715E-13 -0.14210854715E-13  0.17375047868E+03  0.48148370283E+03  0.44904045169E+03 0.  0.
      99925    2    3    3    0    0  0.70246018180E+02 -0.76192091926E+02  0.14030954623E+03  0.31563575438E+03  0.26305783155E+03 0.  0.
         25    1    3    3    0    0 -0.70246018180E+02  0.76192091926E+02  0.33440932453E+02  0.16584794845E+03  0.12509000000E+03 0.  0.
         25    1    4    4    0    0  0.63235585889E+02 -0.68121260600E+02  0.92934951911E+02  0.18144877750E+03  0.12509000000E+03 0.  0.
         25    1    4    4    0    0  0.70104322912E+01 -0.80708313260E+01  0.47374594315E+02  0.13418697689E+03  0.12509000000E+03 0.  0.
<mgrwt>
<rscale>  2 0.44904045E+03</rscale>
<asrwt>0</asrwt>
<pdfrwt beam="1">  1       21 0.48178984E-01 0.44904045E+03</pdfrwt>
<pdfrwt beam="2">  1       21 0.22627443E-01 0.44904045E+03</pdfrwt>
<totfact> 0.69838202E+04</totfact>
</mgrwt>
</event>
<event>
 7    0  0.4737014E-002  0.4584336E+03  0.7546771E-02  0.1025236E+00
         21   -1    0    0  502  501  0.00000000000E+00  0.00000000000E+00  0.69690756728E+02  0.69690756728E+02  0.00000000000E+00 0.  1.
         21   -1    0    0  501  502 -0.00000000000E+00 -0.00000000000E+00 -0.75390696222E+03  0.75390696222E+03  0.00000000000E+00 0.  1.
      99926    2    1    2    0    0 -0.35527136788E-14  0.14210854715E-13 -0.68421620549E+03  0.82359771895E+03  0.45843362311E+03 0.  0.
      99925    2    3    3    0    0  0.10617037422E+02 -0.89260749334E+02 -0.56175634745E+03  0.62681324856E+03  0.26314340541E+03 0.  0.
         25    1    4    4    0    0 -0.30331042744E+02 -0.44637725117E+02 -0.32294937064E+03  0.35050863435E+03  0.12509000000E+03 0.  0.
         25    1    3    3    0    0 -0.10617037422E+02  0.89260749334E+02 -0.12245985804E+03  0.19678447039E+03  0.12509000000E+03 0.  0.
         25    1    4    4    0    0  0.40948080166E+02 -0.44623024217E+02 -0.23880697681E+03  0.27630461421E+03  0.12509000000E+03 0.  0.
<mgrwt>
<rscale>  2 0.45843362E+03</rscale>
<asrwt>0</asrwt>
<pdfrwt beam="1">  1       21 0.10248641E-01 0.45843362E+03</pdfrwt>
<pdfrwt beam="2">  1       21 0.11086867E+00 0.45843362E+03</pdfrwt>
<totfact> 0.45408698E+04</totfact>
</mgrwt>
</event>
<event>
 7    0  0.4737014E-002  0.4522480E+03  0.7546771E-02  0.1027054E+00
         21   -1    0    0  502  501  0.00000000000E+00  0.00000000000E+00  0.67155191575E+03  0.67155191575E+03  0.00000000000E+00 0.  1.
         21   -1    0    0  501  502 -0.00000000000E+00 -0.00000000000E+00 -0.76140157921E+02  0.76140157921E+02  0.00000000000E+00 0.  1.
      99926    2    1    2    0    0  0.00000000000E+00  0.00000000000E+00  0.59541175783E+03  0.74769207367E+03  0.45224802451E+03 0.  0.
      99925    2    3    3    0    0  0.82034956648E+02  0.33124035294E+02  0.26758830701E+03  0.38583207473E+03  0.26350702460E+03 0.  0.
         25    1    3    3    0    0 -0.82034956648E+02 -0.33124035294E+02  0.32782345082E+03  0.36185999894E+03  0.12509000000E+03 0.  0.
         25    1    4    4    0    0  0.67362209404E+02  0.45918953485E+02  0.12130838492E+03  0.19237840288E+03  0.12509000000E+03 0.  0.
         25    1    4    4    0    0  0.14672747244E+02 -0.12794918191E+02  0.14627992209E+03  0.19345367184E+03  0.12509000000E+03 0.  0.
<mgrwt>
<rscale>  2 0.45224802E+03</rscale>
<asrwt>0</asrwt>
<pdfrwt beam="1">  1       21 0.98757631E-01 0.45224802E+03</pdfrwt>
<pdfrwt beam="2">  1       21 0.11197082E-01 0.45224802E+03</pdfrwt>
<totfact> 0.51493707E+04</totfact>
</mgrwt>
</event>
<event>
 7    0  0.4737014E-002  0.4585951E+03  0.7546771E-02  0.1025189E+00
         21   -1    0    0  502  501  0.00000000000E+00  0.00000000000E+00  0.63104859176E+02  0.63104859176E+02  0.00000000000E+00 0. -1.
         21   -1    0    0  501  502 -0.00000000000E+00 -0.00000000000E+00 -0.83317471275E+03  0.83317471275E+03  0.00000000000E+00 0. -1.
      99926    2    1    2    0    0 -0.88817841970E-15 -0.35527136788E-14 -0.77006985357E+03  0.89627957193E+03  0.45859512826E+03 0.  0.
      99925    2    3    3    0    0 -0.48408753092E+01 -0.10959703560E+02 -0.25652734817E+03  0.36758593461E+03  0.26300112127E+03 0.  0.
         25    1    4    4    0    0  0.52591542573E+01 -0.33244143161E+02 -0.16913814210E+03  0.21304471590E+03  0.12509000000E+03 0.  0.
         25    1    4    4    0    0 -0.10100029566E+02  0.22284439601E+02 -0.87389206068E+02  0.15454121872E+03  0.12509000000E+03 0.  0.
         25    1    3    3    0    0  0.48408753092E+01  0.10959703560E+02 -0.51354250540E+03  0.52869363731E+03  0.12509000000E+03 0.  0.
<mgrwt>
<rscale>  2 0.45859513E+03</rscale>
<asrwt>0</asrwt>
<pdfrwt beam="1">  1       21 0.92801264E-02 0.45859513E+03</pdfrwt>
<pdfrwt beam="2">  1       21 0.12252569E+00 0.45859513E+03</pdfrwt>
<totfact> 0.42194571E+04</totfact>
</mgrwt>
</event>
<event>
 7    0  0.4737014E-002  0.4554846E+03  0.7546771E-02  0.1026099E+00
         21   -1    0    0  502  501  0.00000000000E+00  0.00000000000E+00  0.34798315608E+03  0.34798315608E+03  0.00000000000E+00 0.  1.
         21   -1    0    0  501  502 -0.00000000000E+00 -0.00000000000E+00 -0.14904904945E+03  0.14904904945E+03  0.00000000000E+00 0.  1.
      99926    2    1    2    0    0  0.00000000000E+00  0.00000000000E+00  0.19893410663E+03  0.49703220553E+03  0.45548461505E+03 0.  0.
      99925    2    3    3    0    0  0.90887368161E+02 -0.21717835751E+02  0.19575711977E+03  0.34085993069E+03  0.26293053138E+03 0.  0.
         25    1    4    4    0    0  0.50633900743E+02  0.29147877883E+02  0.92988158775E+02  0.16645628994E+03  0.12509000000E+03 0.  0.
         25    1    4    4    0    0  0.40253467418E+02 -0.50865713634E+02  0.10276896100E+03  0.17440364075E+03  0.12509000000E+03 0.  0.
         25    1    3    3    0    0 -0.90887368161E+02  0.21717835751E+02  0.31769868548E+01  0.15617227483E+03  0.12509000000E+03 0.  0.
<mgrwt>
<rscale>  2 0.45548462E+03</rscale>
<asrwt>0</asrwt>
<pdfrwt beam="1">  1       21 0.51173993E-01 0.45548462E+03</pdfrwt>
<pdfrwt beam="2">  1       21 0.21918978E-01 0.45548462E+03</pdfrwt>
<totfact> 0.65228362E+04</totfact>
</mgrwt>
</event>
<event>
 7    0  0.4737014E-002  0.4325154E+03  0.7546771E-02  0.1033068E+00
         21   -1    0    0  502  501  0.00000000000E+00  0.00000000000E+00  0.65945774349E+02  0.65945774349E+02  0.00000000000E+00 0. -1.
         21   -1    0    0  501  502 -0.00000000000E+00 -0.00000000000E+00 -0.70917953042E+03  0.70917953042E+03  0.00000000000E+00 0. -1.
      99926    2    1    2    0    0  0.00000000000E+00  0.00000000000E+00 -0.64323375607E+03  0.77512530477E+03  0.43251540221E+03 0.  0.
      99925    2    3    3    0    0  0.69850155392E+02  0.88690872802E+01 -0.31151958460E+03  0.41368443191E+03  0.26293088959E+03 0.  0.
         25    1    3    3    0    0 -0.69850155392E+02 -0.88690872802E+01 -0.33171417147E+03  0.36144087286E+03  0.12509000000E+03 0.  0.
         25    1    4    4    0    0  0.17352904509E+02  0.30375409466E+02 -0.19082831215E+03  0.23083921160E+03  0.12509000000E+03 0.  0.
         25    1    4    4    0    0  0.52497250883E+02 -0.21506322186E+02 -0.12069127245E+03  0.18284522031E+03  0.12509000000E+03 0.  0.
<mgrwt>
<rscale>  2 0.43251540E+03</rscale>
<asrwt>0</asrwt>
<pdfrwt beam="1">  1       21 0.96979084E-02 0.43251540E+03</pdfrwt>
<pdfrwt beam="2">  1       21 0.10429110E+00 0.43251540E+03</pdfrwt>
<totfact> 0.58683975E+04</totfact>
</mgrwt>
</event>
<event>
 7    0  0.4737014E-002  0.4653557E+03  0.7546771E-02  0.1023239E+00
         21   -1    0    0  502  501  0.00000000000E+00  0.00000000000E+00  0.71837186616E+02  0.71837186616E+02  0.00000000000E+00 0.  1.
         21   -1    0    0  501  502 -0.00000000000E+00 -0.00000000000E+00 -0.75363439407E+03  0.75363439407E+03  0.00000000000E+00 0.  1.
      99926    2    1    2    0    0 -0.71054273576E-14 -0.71054273576E-14 -0.68179720745E+03  0.82547158068E+03  0.46535566874E+03 0.  0.
      99925    2    3    3    0    0 -0.23508617629E+02 -0.63403742951E+02 -0.60661065498E+03  0.66462004822E+03  0.26300310271E+03 0.  0.
         25    1    3    3    0    0  0.23508617629E+02  0.63403742951E+02 -0.75186552469E+02  0.16085153246E+03  0.12509000000E+03 0.  0.
         25    1    4    4    0    0 -0.38754712108E+02 -0.18581835186E+02 -0.23490326719E+03  0.26958164875E+03  0.12509000000E+03 0.  0.
         25    1    4    4    0    0  0.15246094480E+02 -0.44821907765E+02 -0.37170738780E+03  0.39503839947E+03  0.12509000000E+03 0.  0.
<mgrwt>
<rscale>  2 0.46535567E+03</rscale>
<asrwt>0</asrwt>
<pdfrwt beam="1">  1       21 0.10564291E-01 0.46535567E+03</pdfrwt>
<pdfrwt beam="2">  1       21 0.11082859E+00 0.46535567E+03</pdfrwt>
<totfact> 0.42958886E+04</totfact>
</mgrwt>
</event>
<event>
 7    0  0.4737014E-002  0.4555677E+03  0.7546771E-02  0.1026075E+00
         21   -1    0    0  502  501  0.00000000000E+00  0.00000000000E+00  0.53549017672E+02  0.53549017672E+02  0.00000000000E+00 0.  1.
         21   -1    0    0  501  502 -0.00000000000E+00 -0.00000000000E+00 -0.96893419520E+03  0.96893419520E+03  0.00000000000E+00 0.  1.
      99926    2    1    2    0    0  0.00000000000E+00  0.00000000000E+00 -0.91538517753E+03  0.10224832129E+04  0.45556766497E+03 0.  0.
      99925    2    3    3    0    0  0.69615512708E+02 -0.89698808351E+02 -0.55931987828E+03  0.62837383560E+03  0.26291206742E+03 0.  0.
         25    1    4    4    0    0  0.34545131214E+02 -0.87183251292E+02 -0.29691025888E+03  0.33555550260E+03  0.12509000000E+03 0.  0.
         25    1    4    4    0    0  0.35070381493E+02 -0.25155570594E+01 -0.26240961940E+03  0.29281833300E+03  0.12509000000E+03 0.  0.
         25    1    3    3    0    0 -0.69615512708E+02  0.89698808351E+02 -0.35606529925E+03  0.39410937728E+03  0.12509000000E+03 0.  0.
<mgrwt>
<rscale>  2 0.45556766E+03</rscale>
<asrwt>0</asrwt>
<pdfrwt beam="1">  1       21 0.78748556E-02 0.45556766E+03</pdfrwt>
<pdfrwt beam="2">  1       21 0.14249032E+00 0.45556766E+03</pdfrwt>
<totfact> 0.38134239E+04</totfact>
</mgrwt>
</event>
<event>
 7    0  0.4737014E-002  0.4466793E+03  0.7546771E-02  0.1028717E+00
         21   -1    0    0  502  501  0.00000000000E+00  0.00000000000E+00  0.72507714507E+02  0.72507714507E+02  0.00000000000E+00 0. -1.
         21   -1    0    0  501  502 -0.00000000000E+00 -0.00000000000E+00 -0.68793516155E+03  0.68793516155E+03  0.00000000000E+00 0. -1.
      99926    2    1    2    0    0  0.00000000000E+00  0.00000000000E+00 -0.61542744705E+03  0.76044287606E+03  0.44667933148E+03 0.  0.
      99925    2    3    3    0    0  0.77940664851E+01 -0.10419450751E+03 -0.41467397153E+03  0.50185689636E+03  0.26265680819E+03 0.  0.
         25    1    4    4    0    0 -0.11963720940E+02 -0.13708251178E+02 -0.20251238236E+03  0.23872540685E+03  0.12509000000E+03 0.  0.
         25    1    4    4    0    0  0.19757787425E+02 -0.90486256329E+02 -0.21216158917E+03  0.26313148951E+03  0.12509000000E+03 0.  0.
         25    1    3    3    0    0 -0.77940664851E+01  0.10419450751E+03 -0.20075347552E+03  0.25858597970E+03  0.12509000000E+03 0.  0.
<mgrwt>
<rscale>  2 0.44667933E+03</rscale>
<asrwt>0</asrwt>
<pdfrwt beam="1">  1       21 0.10662900E-01 0.44667933E+03</pdfrwt>
<pdfrwt beam="2">  1       21 0.10116693E+00 0.44667933E+03</pdfrwt>
<totfact> 0.53123632E+04</totfact>
</mgrwt>
</event>
<event>
 7    0  0.4737014E-002  0.4563685E+03  0.7546771E-02  0.1025840E+00
         21   -1    0    0  502  501  0.00000000000E+00  0.00000000000E+00  0.78258376995E+02  0.78258376995E+02  0.00000000000E+00 0. -1.
         21   -1    0    0  501  502 -0.00000000000E+00 -0.00000000000E+00 -0.66533513539E+03  0.66533513539E+03  0.00000000000E+00 0. -1.
      99926    2    1    2    0    0 -0.71054273576E-14  0.00000000000E+00 -0.58707675839E+03  0.74359351238E+03  0.45636848205E+03 0.  0.
      99925    2    3    3    0    0 -0.56668163953E+02  0.95945057623E+02 -0.41174215710E+03  0.50109306826E+03  0.26295612607E+03 0.  0.
         25    1    4    4    0    0 -0.33037021470E+02  0.53889357785E+02 -0.14011046658E+03  0.19817658443E+03  0.12509000000E+03 0.  0.
         25    1    4    4    0    0 -0.23631142483E+02  0.42055699838E+02 -0.27163169052E+03  0.30291648384E+03  0.12509000000E+03 0.  0.
         25    1    3    3    0    0  0.56668163953E+02 -0.95945057623E+02 -0.17533460129E+03  0.24250044412E+03  0.12509000000E+03 0.  0.
<mgrwt>
<rscale>  2 0.45636848E+03</rscale>
<asrwt>0</asrwt>
<pdfrwt beam="1">  1       21 0.11508584E-01 0.45636848E+03</pdfrwt>
<pdfrwt beam="2">  1       21 0.97843406E-01 0.45636848E+03</pdfrwt>
<totfact> 0.50058516E+04</totfact>
</mgrwt>
</event>
<event>
 7    0  0.4737014E-002  0.4551017E+03  0.7546771E-02  0.1026211E+00
         21   -1    0    0  502  501  0.00000000000E+00  0.00000000000E+00  0.59230444112E+03  0.59230444112E+03  0.00000000000E+00 0.  1.
         21   -1    0    0  501  502 -0.00000000000E+00 -0.00000000000E+00 -0.87420239364E+02  0.87420239364E+02  0.00000000000E+00 0.  1.
      99926    2    1    2    0    0  0.00000000000E+00  0.00000000000E+00  0.50488420175E+03  0.67972468048E+03  0.45510172937E+03 0.  0.
      99925    2    3    3    0    0 -0.32074518741E+02 -0.10835790135E+03  0.33220067711E+03  0.43840058860E+03  0.26280710926E+03 0.  0.
         25    1    4    4    0    0 -0.27479454097E+02 -0.22192243893E+02  0.19051231325E+03  0.23062971553E+03  0.12509000000E+03 0.  0.
         25    1    3    3    0    0  0.32074518741E+02  0.10835790135E+03  0.17268352465E+03  0.24132409188E+03  0.12509000000E+03 0.  0.
         25    1    4    4    0    0 -0.45950646444E+01 -0.86165657455E+02  0.14168836386E+03  0.20777087307E+03  0.12509000000E+03 0.  0.
<mgrwt>
<rscale>  2 0.45510173E+03</rscale>
<asrwt>0</asrwt>
<pdfrwt beam="1">  1       21 0.87103593E-01 0.45510173E+03</pdfrwt>
<pdfrwt beam="2">  1       21 0.12855918E-01 0.45510173E+03</pdfrwt>
<totfact> 0.53974848E+04</totfact>
</mgrwt>
</event>
<event>
 7    0  0.4737014E-002  0.4588173E+03  0.7546771E-02  0.1025125E+00
         21   -1    0    0  502  501  0.00000000000E+00  0.00000000000E+00  0.17289621927E+03  0.17289621927E+03  0.00000000000E+00 0. -1.
         21   -1    0    0  501  502 -0.00000000000E+00 -0.00000000000E+00 -0.30439263229E+03  0.30439263229E+03  0.00000000000E+00 0. -1.
      99926    2    1    2    0    0  0.35527136788E-14  0.00000000000E+00 -0.13149641302E+03  0.47728885156E+03  0.45881732878E+03 0.  0.
      99925    2    3    3    0    0 -0.29626683946E+02  0.10905747284E+03 -0.52090530148E+02  0.29094488166E+03  0.26299092770E+03 0.  0.
         25    1    3    3    0    0  0.29626683946E+02 -0.10905747284E+03 -0.79405882870E+02  0.18634396990E+03  0.12509000000E+03 0.  0.
         25    1    4    4    0    0 -0.39371818088E+02  0.73138980543E+02  0.71374812113E+00  0.15015814354E+03  0.12509000000E+03 0.  0.
         25    1    4    4    0    0  0.97451341419E+01  0.35918492294E+02 -0.52804278269E+02  0.14078673812E+03  0.12509000000E+03 0.  0.
<mgrwt>
<rscale>  2 0.45881733E+03</rscale>
<asrwt>0</asrwt>
<pdfrwt beam="1">  1       21 0.25425915E-01 0.45881733E+03</pdfrwt>
<pdfrwt beam="2">  1       21 0.44763622E-01 0.45881733E+03</pdfrwt>
<totfact> 0.64909256E+04</totfact>
</mgrwt>
</event>
<event>
 7    0  0.4737014E-002  0.4503398E+03  0.7546771E-02  0.1027621E+00
         21   -1    0    0  502  501  0.00000000000E+00  0.00000000000E+00  0.65598510327E+02  0.65598510327E+02  0.00000000000E+00 0.  1.
         21   -1    0    0  501  502 -0.00000000000E+00 -0.00000000000E+00 -0.77290616897E+03  0.77290616897E+03  0.00000000000E+00 0.  1.
      99926    2    1    2    0    0  0.00000000000E+00  0.00000000000E+00 -0.70730765864E+03  0.83850467929E+03  0.45033984193E+03 0.  0.
      99925    2    3    3    0    0 -0.89639376342E+02 -0.29019845403E+02 -0.54802690940E+03  0.61513226740E+03  0.26301491165E+03 0.  0.
         25    1    4    4    0    0 -0.78194510976E+02  0.99743764618E+01 -0.29026315868E+03  0.32575156043E+03  0.12509000000E+03 0.  0.
         25    1    4    4    0    0 -0.11444865366E+02 -0.38994221865E+02 -0.25776375072E+03  0.28938070697E+03  0.12509000000E+03 0.  0.
         25    1    3    3    0    0  0.89639376342E+02  0.29019845403E+02 -0.15928074924E+03  0.22337241190E+03  0.12509000000E+03 0.  0.
<mgrwt>
<rscale>  2 0.45033984E+03</rscale>
<asrwt>0</asrwt>
<pdfrwt beam="1">  1       21 0.96468392E-02 0.45033984E+03</pdfrwt>
<pdfrwt beam="2">  1       21 0.11366268E+00 0.45033984E+03</pdfrwt>
<totfact> 0.47677435E+04</totfact>
</mgrwt>
</event>
<event>
 7    0  0.4737014E-002  0.4652514E+03  0.7546771E-02  0.1023269E+00
         21   -1    0    0  502  501  0.00000000000E+00  0.00000000000E+00  0.17627711498E+03  0.17627711498E+03  0.00000000000E+00 0. -1.
         21   -1    0    0  501  502 -0.00000000000E+00 -0.00000000000E+00 -0.30698656628E+03  0.30698656628E+03  0.00000000000E+00 0. -1.
      99926    2    1    2    0    0  0.00000000000E+00  0.00000000000E+00 -0.13070945130E+03  0.48326368126E+03  0.46525135676E+03 0.  0.
      99925    2    3    3    0    0  0.65012334539E+01 -0.23771339200E+02  0.43178935569E+02  0.26764359455E+03  0.26298541903E+03 0.  0.
         25    1    4    4    0    0 -0.38175204708E+01  0.19363662270E+01  0.59322693512E+02  0.13850997452E+03  0.12509000000E+03 0.  0.
         25    1    4    4    0    0  0.10318753925E+02 -0.25707705427E+02 -0.16143757944E+02  0.12913362003E+03  0.12509000000E+03 0.  0.
         25    1    3    3    0    0 -0.65012334539E+01  0.23771339200E+02 -0.17388838687E+03  0.21562008671E+03  0.12509000000E+03 0.  0.
<mgrwt>
<rscale>  2 0.46525136E+03</rscale>
<asrwt>0</asrwt>
<pdfrwt beam="1">  1       21 0.25923106E-01 0.46525136E+03</pdfrwt>
<pdfrwt beam="2">  1       21 0.45145082E-01 0.46525136E+03</pdfrwt>
<totfact> 0.61320293E+04</totfact>
</mgrwt>
</event>
<event>
 7    0  0.4737014E-002  0.4590830E+03  0.7546771E-02  0.1025048E+00
         21   -1    0    0  502  501  0.00000000000E+00  0.00000000000E+00  0.17398098631E+03  0.17398098631E+03  0.00000000000E+00 0. -1.
         21   -1    0    0  501  502 -0.00000000000E+00 -0.00000000000E+00 -0.30284513263E+03  0.30284513263E+03  0.00000000000E+00 0. -1.
      99926    2    1    2    0    0  0.00000000000E+00  0.00000000000E+00 -0.12886414632E+03  0.47682611894E+03  0.45908297670E+03 0.  0.
      99925    2    3    3    0    0  0.31793870058E+02  0.17139428122E+02  0.34648685705E+02  0.26780802282E+03  0.26308932987E+03 0.  0.
         25    1    4    4    0    0 -0.16632399589E+02  0.29783972634E+02  0.29536730665E+02  0.13297987931E+03  0.12509000000E+03 0.  0.
         25    1    3    3    0    0 -0.31793870058E+02 -0.17139428122E+02 -0.16351283202E+03  0.20901809612E+03  0.12509000000E+03 0.  0.
         25    1    4    4    0    0  0.48426269648E+02 -0.12644544512E+02  0.51119550402E+01  0.13482814351E+03  0.12509000000E+03 0.  0.
<mgrwt>
<rscale>  2 0.45908298E+03</rscale>
<asrwt>0</asrwt>
<pdfrwt beam="1">  1       21 0.25585439E-01 0.45908298E+03</pdfrwt>
<pdfrwt beam="2">  1       21 0.44536049E-01 0.45908298E+03</pdfrwt>
<totfact> 0.64806515E+04</totfact>
</mgrwt>
</event>
<event>
 7    0  0.4737014E-002  0.4508446E+03  0.7546771E-02  0.1027470E+00
         21   -1    0    0  502  501  0.00000000000E+00  0.00000000000E+00  0.14590514592E+04  0.14590514592E+04  0.00000000000E+00 0. -1.
         21   -1    0    0  501  502 -0.00000000000E+00 -0.00000000000E+00 -0.34827564038E+02  0.34827564038E+02  0.00000000000E+00 0. -1.
      99926    2    1    2    0    0 -0.14210854715E-13 -0.71054273576E-14  0.14242238951E+04  0.14938790232E+04  0.45084457689E+03 0.  0.
      99925    2    3    3    0    0 -0.99206991723E+02 -0.37856010404E+02  0.98495798192E+03  0.10249684184E+04  0.26295042832E+03 0.  0.
         25    1    4    4    0    0 -0.17095790292E+02 -0.41687553272E+02  0.42185933408E+03  0.44231541234E+03  0.12509000000E+03 0.  0.
         25    1    4    4    0    0 -0.82111201431E+02  0.38315428677E+01  0.56309864784E+03  0.58265300602E+03  0.12509000000E+03 0.  0.
         25    1    3    3    0    0  0.99206991723E+02  0.37856010404E+02  0.43926591320E+03  0.46891060484E+03  0.12509000000E+03 0.  0.
<mgrwt>
<rscale>  2 0.45084458E+03</rscale>
<asrwt>0</asrwt>
<pdfrwt beam="1">  1       21 0.21456635E+00 0.45084458E+03</pdfrwt>
<pdfrwt beam="2">  1       21 0.51217016E-02 0.45084458E+03</pdfrwt>
<totfact> 0.24717796E+04</totfact>
</mgrwt>
</event>
<event>
 7    0  0.4737014E-002  0.4600131E+03  0.7546771E-02  0.1024777E+00
         21   -1    0    0  502  501  0.00000000000E+00  0.00000000000E+00  0.46949436568E+03  0.46949436568E+03  0.00000000000E+00 0. -1.
         21   -1    0    0  501  502 -0.00000000000E+00 -0.00000000000E+00 -0.11268083060E+03  0.11268083060E+03  0.00000000000E+00 0. -1.
      99926    2    1    2    0    0 -0.88817841970E-15  0.00000000000E+00  0.35681353508E+03  0.58217519629E+03  0.46001310889E+03 0.  0.
      99925    2    3    3    0    0  0.57633662616E+01 -0.90280760542E+01  0.75047779942E+02  0.27370449846E+03  0.26299669324E+03 0.  0.
         25    1    3    3    0    0 -0.57633662616E+01  0.90280760542E+01  0.28176575514E+03  0.30847069782E+03  0.12509000000E+03 0.  0.
         25    1    4    4    0    0 -0.27050256712E+02  0.70193791769E+01  0.11405909508E+02  0.12868018862E+03  0.12509000000E+03 0.  0.
         25    1    4    4    0    0  0.32813622974E+02 -0.16047455231E+02  0.63641870434E+02  0.14502430984E+03  0.12509000000E+03 0.  0.
<mgrwt>
<rscale>  2 0.46001311E+03</rscale>
<asrwt>0</asrwt>
<pdfrwt beam="1">  1       21 0.69043288E-01 0.46001311E+03</pdfrwt>
<pdfrwt beam="2">  1       21 0.16570711E-01 0.46001311E+03</pdfrwt>
<totfact> 0.57477124E+04</totfact>
</mgrwt>
</event>
<event>
 6    0  0.4737014E-002  0.4533822E+03  0.7546771E-02  0.1026718E+00
         21   -1    0    0  502  501  0.00000000000E+00  0.00000000000E+00  0.79595878791E+02  0.79595878791E+02  0.00000000000E+00 0. -1.
         21   -1    0    0  501  502 -0.00000000000E+00 -0.00000000000E+00 -0.64562198096E+03  0.64562198096E+03  0.00000000000E+00 0. -1.
      99926    2    1    2    0    0  0.00000000000E+00  0.00000000000E+00 -0.56602610217E+03  0.72521785976E+03  0.45338217407E+03 0.  0.
         25    1    3    3    0    0 -0.83176827285E+02 -0.15934000169E+02 -0.14871981772E+03  0.21198436084E+03  0.12509000000E+03 0.  0.
         25    1    3    3    0    0 -0.13293702052E+02  0.34826441751E+02 -0.25204737153E+03  0.28383972441E+03  0.12509000000E+03 0.  0.
         25    1    3    3    0    0  0.96470529337E+02 -0.18892441581E+02 -0.16525891292E+03  0.22939377450E+03  0.12509000000E+03 0.  0.
<mgrwt>
<rscale>  2 0.45338217E+03</rscale>
<asrwt>0</asrwt>
<pdfrwt beam="1">  1       21 0.11705276E-01 0.45338217E+03</pdfrwt>
<pdfrwt beam="2">  1       21 0.94944408E-01 0.45338217E+03</pdfrwt>
<totfact> 0.52216332E+04</totfact>
</mgrwt>
</event>
<event>
 7    0  0.4737014E-002  0.4549304E+03  0.7546771E-02  0.1026262E+00
         21   -1    0    0  502  501  0.00000000000E+00  0.00000000000E+00  0.42994977940E+03  0.42994977940E+03  0.00000000000E+00 0.  1.
         21   -1    0    0  501  502 -0.00000000000E+00 -0.00000000000E+00 -0.12034059068E+03  0.12034059068E+03  0.00000000000E+00 0.  1.
      99926    2    1    2    0    0  0.31086244690E-14 -0.23314683517E-14  0.30960918871E+03  0.55029037008E+03  0.45493037013E+03 0.  0.
      99925    2    3    3    0    0  0.14416826056E+01  0.82424092265E+00  0.33162192654E+03  0.42326743298E+03  0.26301988487E+03 0.  0.
         25    1    4    4    0    0 -0.35340837626E+02  0.17787264518E+02  0.17642987608E+03  0.21986443746E+03  0.12509000000E+03 0.  0.
         25    1    4    4    0    0  0.36782520232E+02 -0.16963023595E+02  0.15519205046E+03  0.20340299553E+03  0.12509000000E+03 0.  0.
         25    1    3    3    0    0 -0.14416826056E+01 -0.82424092265E+00 -0.22012737830E+02  0.12702293710E+03  0.12509000000E+03 0.  0.
<mgrwt>
<rscale>  2 0.45493037E+03</rscale>
<asrwt>0</asrwt>
<pdfrwt beam="1">  1       21 0.63227908E-01 0.45493037E+03</pdfrwt>
<pdfrwt beam="2">  1       21 0.17697146E-01 0.45493037E+03</pdfrwt>
<totfact> 0.61881412E+04</totfact>
</mgrwt>
</event>
<event>
 7    0  0.4737014E-002  0.4521766E+03  0.7546771E-02  0.1027075E+00
         21   -1    0    0  502  501  0.00000000000E+00  0.00000000000E+00  0.12931872961E+04  0.12931872961E+04  0.00000000000E+00 0.  1.
         21   -1    0    0  501  502 -0.00000000000E+00 -0.00000000000E+00 -0.39527086923E+02  0.39527086923E+02  0.00000000000E+00 0.  1.
      99926    2    1    2    0    0 -0.14210854715E-13  0.00000000000E+00  0.12536602092E+04  0.13327143830E+04  0.45217663213E+03 0.  0.
      99925    2    3    3    0    0 -0.72008946683E+02 -0.74163189534E+02  0.67589512117E+03  0.73259316852E+03  0.26300773496E+03 0.  0.
         25    1    4    4    0    0 -0.31799415259E+02 -0.16252022974E+02  0.23113464497E+03  0.26522832290E+03  0.12509000000E+03 0.  0.
         25    1    4    4    0    0 -0.40209531424E+02 -0.57911166559E+02  0.44476047620E+03  0.46736484562E+03  0.12509000000E+03 0.  0.
         25    1    3    3    0    0  0.72008946683E+02  0.74163189534E+02  0.57776508801E+03  0.60012121451E+03  0.12509000000E+03 0.  0.
<mgrwt>
<rscale>  2 0.45217663E+03</rscale>
<asrwt>0</asrwt>
<pdfrwt beam="1">  1       21 0.19017458E+00 0.45217663E+03</pdfrwt>
<pdfrwt beam="2">  1       21 0.58128077E-02 0.45217663E+03</pdfrwt>
<totfact> 0.28806469E+04</totfact>
</mgrwt>
</event>
<event>
 7    0  0.4737014E-002  0.4815726E+03  0.7546771E-02  0.1018704E+00
         21   -1    0    0  502  501  0.00000000000E+00  0.00000000000E+00  0.30146717188E+03  0.30146717188E+03  0.00000000000E+00 0.  1.
         21   -1    0    0  501  502 -0.00000000000E+00 -0.00000000000E+00 -0.19231955807E+03  0.19231955807E+03  0.00000000000E+00 0.  1.
      99926    2    1    2    0    0  0.00000000000E+00  0.00000000000E+00  0.10914761382E+03  0.49378672995E+03  0.48157256262E+03 0.  0.
      99925    2    3    3    0    0 -0.47034605424E+02 -0.36555152014E+02 -0.58758973596E+02  0.27609735620E+03  0.26311328335E+03 0.  0.
         25    1    4    4    0    0 -0.63054864501E+02 -0.72109779530E+01 -0.28768006954E+02  0.14318875816E+03  0.12509000000E+03 0.  0.
         25    1    3    3    0    0  0.47034605424E+02  0.36555152014E+02  0.16790658741E+03  0.21768937375E+03  0.12509000000E+03 0.  0.
         25    1    4    4    0    0  0.16020259078E+02 -0.29344174061E+02 -0.29990966642E+02  0.13290859804E+03  0.12509000000E+03 0.  0.
<mgrwt>
<rscale>  2 0.48157256E+03</rscale>
<asrwt>0</asrwt>
<pdfrwt beam="1">  1       21 0.44333408E-01 0.48157256E+03</pdfrwt>
<pdfrwt beam="2">  1       21 0.28282288E-01 0.48157256E+03</pdfrwt>
<totfact> 0.53500029E+04</totfact>
</mgrwt>
</event>
<event>
 7    0  0.4737014E-002  0.4495064E+03  0.7546771E-02  0.1027869E+00
         21   -1    0    0  502  501  0.00000000000E+00  0.00000000000E+00  0.44368515037E+02  0.44368515037E+02  0.00000000000E+00 0. -1.
         21   -1    0    0  501  502 -0.00000000000E+00 -0.00000000000E+00 -0.11385098989E+04  0.11385098989E+04  0.00000000000E+00 0. -1.
      99926    2    1    2    0    0  0.35527136788E-14  0.00000000000E+00 -0.10941413839E+04  0.11828784140E+04  0.44950636735E+03 0.  0.
      99925    2    3    3    0    0  0.18063981723E+02  0.79144710802E+02 -0.50531418925E+03  0.57546161643E+03  0.26310349568E+03 0.  0.
         25    1    4    4    0    0  0.31607594295E+01  0.66520580919E+02 -0.33064637986E+03  0.35973533980E+03  0.12509000000E+03 0.  0.
         25    1    3    3    0    0 -0.18063981723E+02 -0.79144710802E+02 -0.58882719466E+03  0.60741679756E+03  0.12509000000E+03 0.  0.
         25    1    4    4    0    0  0.14903222293E+02  0.12624129883E+02 -0.17466780939E+03  0.21572627662E+03  0.12509000000E+03 0.  0.
<mgrwt>
<rscale>  2 0.44950637E+03</rscale>
<asrwt>0</asrwt>
<pdfrwt beam="1">  1       21 0.65247818E-02 0.44950637E+03</pdfrwt>
<pdfrwt beam="2">  1       21 0.16742792E+00 0.44950637E+03</pdfrwt>
<totfact> 0.34141449E+04</totfact>
</mgrwt>
</event>
<event>
 7    0  0.4737014E-002  0.4638228E+03  0.7546771E-02  0.1023678E+00
         21   -1    0    0  502  501  0.00000000000E+00  0.00000000000E+00  0.56129718848E+03  0.56129718848E+03  0.00000000000E+00 0.  1.
         21   -1    0    0  501  502 -0.00000000000E+00 -0.00000000000E+00 -0.95818947876E+02  0.95818947876E+02  0.00000000000E+00 0.  1.
      99926    2    1    2    0    0 -0.14210854715E-13 -0.71054273576E-14  0.46547824060E+03  0.65711613636E+03  0.46382283707E+03 0.  0.
      99925    2    3    3    0    0 -0.73460551250E+02 -0.59412423656E+02  0.18326547707E+03  0.33428825547E+03  0.26312756219E+03 0.  0.
         25    1    4    4    0    0 -0.27537958612E+02  0.61875954589E+00  0.11826167215E+03  0.17433316732E+03  0.12509000000E+03 0.  0.
         25    1    3    3    0    0  0.73460551250E+02  0.59412423656E+02  0.28221276354E+03  0.32282788089E+03  0.12509000000E+03 0.  0.
         25    1    4    4    0    0 -0.45922592638E+02 -0.60031183202E+02  0.65003804918E+02  0.15995508815E+03  0.12509000000E+03 0.  0.
<mgrwt>
<rscale>  2 0.46382284E+03</rscale>
<asrwt>0</asrwt>
<pdfrwt beam="1">  1       21 0.82543702E-01 0.46382284E+03</pdfrwt>
<pdfrwt beam="2">  1       21 0.14091022E-01 0.46382284E+03</pdfrwt>
<totfact> 0.51607072E+04</totfact>
</mgrwt>
</event>
<event>
 7    0  0.4737014E-002  0.4133259E+03  0.7546771E-02  0.1039261E+00
         21   -1    0    0  502  501  0.00000000000E+00  0.00000000000E+00  0.45497429719E+03  0.45497429719E+03  0.00000000000E+00 0.  1.
         21   -1    0    0  501  502 -0.00000000000E+00 -0.00000000000E+00 -0.93872504764E+02  0.93872504764E+02  0.00000000000E+00 0.  1.
      99926    2    1    2    0    0 -0.15543122345E-14 -0.13322676296E-14  0.36110179242E+03  0.54884680195E+03  0.41332590957E+03 0.  0.
      99925    2    3    3    0    0  0.14033472585E+00 -0.25681238203E+01  0.32655547050E+03  0.41904860700E+03  0.26259597248E+03 0.  0.
         25    1    4    4    0    0  0.36058859980E+02 -0.13911203795E+02  0.18213549086E+03  0.22430917971E+03  0.12509000000E+03 0.  0.
         25    1    3    3    0    0 -0.14033472585E+00  0.25681238203E+01  0.34546321919E+02  0.12979819495E+03  0.12509000000E+03 0.  0.
         25    1    4    4    0    0 -0.35918525254E+02  0.11343079975E+02  0.14441997965E+03  0.19473942729E+03  0.12509000000E+03 0.  0.
<mgrwt>
<rscale>  2 0.41332591E+03</rscale>
<asrwt>0</asrwt>
<pdfrwt beam="1">  1       21 0.66907984E-01 0.41332591E+03</pdfrwt>
<pdfrwt beam="2">  1       21 0.13804780E-01 0.41332591E+03</pdfrwt>
<totfact> 0.87383875E+04</totfact>
</mgrwt>
</event>
<event>
 7    0  0.4737014E-002  0.4530347E+03  0.7546771E-02  0.1026821E+00
         21   -1    0    0  502  501  0.00000000000E+00  0.00000000000E+00  0.11107903452E+03  0.11107903452E+03  0.00000000000E+00 0.  1.
         21   -1    0    0  501  502 -0.00000000000E+00 -0.00000000000E+00 -0.46192424053E+03  0.46192424053E+03  0.00000000000E+00 0.  1.
      99926    2    1    2    0    0  0.35527136788E-14  0.17763568394E-14 -0.35084520601E+03  0.57300327505E+03  0.45303465059E+03 0.  0.
      99925    2    3    3    0    0  0.31077676711E+02 -0.13483347650E+02 -0.87129983415E+02  0.27916514039E+03  0.26304737015E+03 0.  0.
         25    1    3    3    0    0 -0.31077676711E+02  0.13483347650E+02 -0.26371522259E+03  0.29383813466E+03  0.12509000000E+03 0.  0.
         25    1    4    4    0    0  0.18927039085E+02 -0.46073573626E+02 -0.54784926572E+02  0.14536128534E+03  0.12509000000E+03 0.  0.
         25    1    4    4    0    0  0.12150637626E+02  0.32590225976E+02 -0.32345056843E+02  0.13380385505E+03  0.12509000000E+03 0.  0.
<mgrwt>
<rscale>  2 0.45303465E+03</rscale>
<asrwt>0</asrwt>
<pdfrwt beam="1">  1       21 0.16335152E-01 0.45303465E+03</pdfrwt>
<pdfrwt beam="2">  1       21 0.67930034E-01 0.45303465E+03</pdfrwt>
<totfact> 0.61318914E+04</totfact>
</mgrwt>
</event>
<event>
 7    0  0.4737014E-002  0.4593002E+03  0.7546771E-02  0.1024984E+00
         21   -1    0    0  502  501  0.00000000000E+00  0.00000000000E+00  0.49102066159E+03  0.49102066159E+03  0.00000000000E+00 0.  1.
         21   -1    0    0  501  502 -0.00000000000E+00 -0.00000000000E+00 -0.10740721865E+03  0.10740721865E+03  0.00000000000E+00 0.  1.
      99926    2    1    2    0    0 -0.14210854715E-13 -0.71054273576E-14  0.38361344294E+03  0.59842788024E+03  0.45930017881E+03 0.  0.
      99925    2    3    3    0    0  0.94664121282E+02  0.41839825110E+02  0.16890863406E+03  0.32924851647E+03  0.26298781743E+03 0.  0.
         25    1    4    4    0    0  0.33570907439E+02  0.11807619733E+02  0.37206611984E+02  0.13527108259E+03  0.12509000000E+03 0.  0.
         25    1    3    3    0    0 -0.94664121282E+02 -0.41839825110E+02  0.21470480888E+03  0.26917936377E+03  0.12509000000E+03 0.  0.
         25    1    4    4    0    0  0.61093213843E+02  0.30032205377E+02  0.13170202207E+03  0.19397743388E+03  0.12509000000E+03 0.  0.
<mgrwt>
<rscale>  2 0.45930018E+03</rscale>
<asrwt>0</asrwt>
<pdfrwt beam="1">  1       21 0.72208920E-01 0.45930018E+03</pdfrwt>
<pdfrwt beam="2">  1       21 0.15795179E-01 0.45930018E+03</pdfrwt>
<totfact> 0.56819706E+04</totfact>
</mgrwt>
</event>
<event>
 7    0  0.4737014E-002  0.4584519E+03  0.7546771E-02  0.1025231E+00
         21   -1    0    0  502  501  0.00000000000E+00  0.00000000000E+00  0.72291959464E+02  0.72291959464E+02  0.00000000000E+00 0. -1.
         21   -1    0    0  501  502 -0.00000000000E+00 -0.00000000000E+00 -0.72683781618E+03  0.72683781618E+03  0.00000000000E+00 0. -1.
      99926    2    1    2    0    0  0.71054273576E-14  0.14210854715E-13 -0.65454585671E+03  0.79912977564E+03  0.45845187291E+03 0.  0.
      99925    2    3    3    0    0  0.34974204302E+02  0.10766798694E+03 -0.36355675992E+03  0.46277021664E+03  0.26299651205E+03 0.  0.
         25    1    3    3    0    0 -0.34974204302E+02 -0.10766798694E+03 -0.29098909680E+03  0.33635955900E+03  0.12509000000E+03 0.  0.
         25    1    4    4    0    0  0.54440588453E+02  0.49323983624E+02 -0.21173232337E+03  0.25666070578E+03  0.12509000000E+03 0.  0.
         25    1    4    4    0    0 -0.19466384150E+02  0.58344003312E+02 -0.15182443654E+03  0.20610951086E+03  0.12509000000E+03 0.  0.
<mgrwt>
<rscale>  2 0.45845187E+03</rscale>
<asrwt>0</asrwt>
<pdfrwt beam="1">  1       21 0.10631170E-01 0.45845187E+03</pdfrwt>
<pdfrwt beam="2">  1       21 0.10688792E+00 0.45845187E+03</pdfrwt>
<totfact> 0.46533485E+04</totfact>
</mgrwt>
</event>
<event>
 7    0  0.4737014E-002  0.4525113E+03  0.7546771E-02  0.1026976E+00
         21   -1    0    0  502  501  0.00000000000E+00  0.00000000000E+00  0.10602479320E+04  0.10602479320E+04  0.00000000000E+00 0. -1.
         21   -1    0    0  501  502 -0.00000000000E+00 -0.00000000000E+00 -0.48282682496E+02  0.48282682496E+02  0.00000000000E+00 0. -1.
      99926    2    1    2    0    0  0.00000000000E+00  0.00000000000E+00  0.10119652495E+04  0.11085306145E+04  0.45251127839E+03 0.  0.
      99925    2    3    3    0    0  0.47716738551E+02 -0.61993717437E+02  0.44598681615E+03  0.52363814296E+03  0.26300676121E+03 0.  0.
         25    1    4    4    0    0  0.63862395916E+02 -0.28750259789E+02  0.25074044080E+03  0.28883084981E+03  0.12509000000E+03 0.  0.
         25    1    3    3    0    0 -0.47716738551E+02  0.61993717437E+02  0.56597843337E+03  0.58489247155E+03  0.12509000000E+03 0.  0.
         25    1    4    4    0    0 -0.16145657364E+02 -0.33243457648E+02  0.19524637535E+03  0.23480729315E+03  0.12509000000E+03 0.  0.
<mgrwt>
<rscale>  2 0.45251128E+03</rscale>
<asrwt>0</asrwt>
<pdfrwt beam="1">  1       21 0.15591880E+00 0.45251128E+03</pdfrwt>
<pdfrwt beam="2">  1       21 0.71003952E-02 0.45251128E+03</pdfrwt>
<totfact> 0.35888771E+04</totfact>
</mgrwt>
</event>
<event>
 7    0  0.4737014E-002  0.4465567E+03  0.7546771E-02  0.1028754E+00
         21   -1    0    0  502  501  0.00000000000E+00  0.00000000000E+00  0.84926867931E+03  0.84926867931E+03  0.00000000000E+00 0.  1.
         21   -1    0    0  501  502 -0.00000000000E+00 -0.00000000000E+00 -0.58701364122E+02  0.58701364122E+02  0.00000000000E+00 0.  1.
      99926    2    1    2    0    0  0.00000000000E+00  0.00000000000E+00  0.79056731519E+03  0.90797004344E+03  0.44655673764E+03 0.  0.
      99925    2    3    3    0    0  0.82892242497E+02  0.52162542486E+02  0.42290483874E+03  0.50745130556E+03  0.26280462358E+03 0.  0.
         25    1    4    4    0    0  0.65887011317E+02  0.78012111515E+00  0.25088438173E+03  0.28797949223E+03  0.12509000000E+03 0.  0.
         25    1    4    4    0    0  0.17005231180E+02  0.51382421371E+02  0.17202045701E+03  0.21947181333E+03  0.12509000000E+03 0.  0.
         25    1    3    3    0    0 -0.82892242497E+02 -0.52162542486E+02  0.36766247645E+03  0.40051873788E+03  0.12509000000E+03 0.  0.
<mgrwt>
<rscale>  2 0.44655674E+03</rscale>
<asrwt>0</asrwt>
<pdfrwt beam="1">  1       21 0.12489244E+00 0.44655674E+03</pdfrwt>
<pdfrwt beam="2">  1       21 0.86325541E-02 0.44655674E+03</pdfrwt>
<totfact> 0.45845589E+04</totfact>
</mgrwt>
</event>
<event>
 7    0  0.4737014E-002  0.4634018E+03  0.7546771E-02  0.1023799E+00
         21   -1    0    0  502  501  0.00000000000E+00  0.00000000000E+00  0.32460259204E+03  0.32460259204E+03  0.00000000000E+00 0. -1.
         21   -1    0    0  501  502 -0.00000000000E+00 -0.00000000000E+00 -0.16538780691E+03  0.16538780691E+03  0.00000000000E+00 0. -1.
      99926    2    1    2    0    0  0.00000000000E+00 -0.14210854715E-13  0.15921478512E+03  0.48999039895E+03  0.46340181621E+03 0.  0.
      99925    2    3    3    0    0 -0.16958748932E+02 -0.11496254890E+03  0.13502582544E+03  0.31754736290E+03  0.26286948726E+03 0.  0.
         25    1    3    3    0    0  0.16958748932E+02  0.11496254890E+03  0.24188959681E+02  0.17244303606E+03  0.12509000000E+03 0.  0.
         25    1    4    4    0    0 -0.44249478302E+02 -0.76338394984E+02  0.61821112748E+02  0.16509065679E+03  0.12509000000E+03 0.  0.
         25    1    4    4    0    0  0.27290729370E+02 -0.38624153913E+02  0.73204712696E+02  0.15245670610E+03  0.12509000000E+03 0.  0.
<mgrwt>
<rscale>  2 0.46340182E+03</rscale>
<asrwt>0</asrwt>
<pdfrwt beam="1">  1       21 0.47735675E-01 0.46340182E+03</pdfrwt>
<pdfrwt beam="2">  1       21 0.24321736E-01 0.46340182E+03</pdfrwt>
<totfact> 0.61756870E+04</totfact>
</mgrwt>
</event>
<event>
 7    0  0.4737014E-002  0.4547520E+03  0.7546771E-02  0.1026314E+00
         21   -1    0    0  502  501  0.00000000000E+00  0.00000000000E+00  0.29831615079E+03  0.29831615079E+03  0.00000000000E+00 0. -1.
         21   -1    0    0  501  502 -0.00000000000E+00 -0.00000000000E+00 -0.17330552312E+03  0.17330552312E+03  0.00000000000E+00 0. -1.
      99926    2    1    2    0    0  0.00000000000E+00  0.00000000000E+00  0.12501062767E+03  0.47162167391E+03  0.45475196126E+03 0.  0.
      99925    2    3    3    0    0  0.72814635301E+02  0.19973258699E+02 -0.84400423598E+01  0.27373915419E+03  0.26298476771E+03 0.  0.
         25    1    3    3    0    0 -0.72814635301E+02 -0.19973258699E+02  0.13345067003E+03  0.19788251971E+03  0.12509000000E+03 0.  0.
         25    1    4    4    0    0  0.65111155413E+02  0.32163840953E+02 -0.24830433671E+02  0.14675841973E+03  0.12509000000E+03 0.  0.
         25    1    4    4    0    0  0.77034798886E+01 -0.12190582254E+02  0.16390391311E+02  0.12698073447E+03  0.12509000000E+03 0.  0.
<mgrwt>
<rscale>  2 0.45475196E+03</rscale>
<asrwt>0</asrwt>
<pdfrwt beam="1">  1       21 0.43870022E-01 0.45475196E+03</pdfrwt>
<pdfrwt beam="2">  1       21 0.25486106E-01 0.45475196E+03</pdfrwt>
<totfact> 0.67447942E+04</totfact>
</mgrwt>
</event>
<event>
 7    0  0.4737014E-002  0.4583418E+03  0.7546771E-02  0.1025263E+00
         21   -1    0    0  502  501  0.00000000000E+00  0.00000000000E+00  0.18838164072E+03  0.18838164072E+03  0.00000000000E+00 0. -1.
         21   -1    0    0  501  502 -0.00000000000E+00 -0.00000000000E+00 -0.27879204538E+03  0.27879204538E+03  0.00000000000E+00 0. -1.
      99926    2    1    2    0    0  0.35527136788E-14  0.00000000000E+00 -0.90410404661E+02  0.46717368611E+03  0.45834180665E+03 0.  0.
      99925    2    3    3    0    0 -0.29973009140E+02 -0.10786316690E+03 -0.88947293033E+02  0.29929726476E+03  0.26293418892E+03 0.  0.
         25    1    3    3    0    0  0.29973009140E+02  0.10786316690E+03 -0.14631116272E+01  0.16787642135E+03  0.12509000000E+03 0.  0.
         25    1    4    4    0    0  0.16467423466E+02 -0.74920694469E+02 -0.30113355987E+02  0.14979522290E+03  0.12509000000E+03 0.  0.
         25    1    4    4    0    0 -0.46440432606E+02 -0.32942472430E+02 -0.58833937046E+02  0.14950204185E+03  0.12509000000E+03 0.  0.
<mgrwt>
<rscale>  2 0.45834181E+03</rscale>
<asrwt>0</asrwt>
<pdfrwt beam="1">  1       21 0.27703183E-01 0.45834181E+03</pdfrwt>
<pdfrwt beam="2">  1       21 0.40998830E-01 0.45834181E+03</pdfrwt>
<totfact> 0.65881571E+04</totfact>
</mgrwt>
</event>
<event>
 7    0  0.4737014E-002  0.4345069E+03  0.7546771E-02  0.1032446E+00
         21   -1    0    0  502  501  0.00000000000E+00  0.00000000000E+00  0.81647116806E+02  0.81647116806E+02  0.00000000000E+00 0. -1.
         21   -1    0    0  501  502 -0.00000000000E+00 -0.00000000000E+00 -0.57808604022E+03  0.57808604022E+03  0.00000000000E+00 0. -1.
      99926    2    1    2    0    0  0.17763568394E-14  0.00000000000E+00 -0.49643892341E+03  0.65973315702E+03  0.43450688579E+03 0.  0.
      99925    2    3    3    0    0 -0.15522178848E+02  0.56286470311E+02 -0.20947993741E+03  0.34129623623E+03  0.26304404938E+03 0.  0.
         25    1    4    4    0    0  0.29291560116E+02  0.10816522670E+02 -0.96156282061E+02  0.16083697130E+03  0.12509000000E+03 0.  0.
         25    1    4    4    0    0 -0.44813738964E+02  0.45469947641E+02 -0.11332365535E+03  0.18045926493E+03  0.12509000000E+03 0.  0.
         25    1    3    3    0    0  0.15522178848E+02 -0.56286470311E+02 -0.28695898600E+03  0.31843692079E+03  0.12509000000E+03 0.  0.
<mgrwt>
<rscale>  2 0.43450689E+03</rscale>
<asrwt>0</asrwt>
<pdfrwt beam="1">  1       21 0.12006929E-01 0.43450689E+03</pdfrwt>
<pdfrwt beam="2">  1       21 0.85012656E-01 0.43450689E+03</pdfrwt>
<totfact> 0.65025905E+04</totfact>
</mgrwt>
</event>
<event>
 7    0  0.4737014E-002  0.4527227E+03  0.7546771E-02  0.1026913E+00
         21   -1    0    0  502  501  0.00000000000E+00  0.00000000000E+00  0.79512231060E+03  0.79512231060E+03  0.00000000000E+00 0. -1.
         21   -1    0    0  501  502 -0.00000000000E+00 -0.00000000000E+00 -0.64442235401E+02  0.64442235401E+02  0.00000000000E+00 0. -1.
      99926    2    1    2    0    0 -0.14210854715E-13 -0.35527136788E-14  0.73068007520E+03  0.85956454600E+03  0.45272269266E+03 0.  0.
      99925    2    3    3    0    0 -0.99605004683E+02 -0.31753295128E+02  0.38795282848E+03  0.48003997176E+03  0.26268145852E+03 0.  0.
         25    1    4    4    0    0 -0.35469345583E+02  0.20813079017E+02  0.16163519680E+03  0.20848190252E+03  0.12509000000E+03 0.  0.
         25    1    3    3    0    0  0.99605004683E+02  0.31753295128E+02  0.34272724672E+03  0.37952457424E+03  0.12509000000E+03 0.  0.
         25    1    4    4    0    0 -0.64135659099E+02 -0.52566374144E+02  0.22631763168E+03  0.27155806924E+03  0.12509000000E+03 0.  0.
<mgrwt>
<rscale>  2 0.45272269E+03</rscale>
<asrwt>0</asrwt>
<pdfrwt beam="1">  1       21 0.11692975E+00 0.45272269E+03</pdfrwt>
<pdfrwt beam="2">  1       21 0.94767998E-02 0.45272269E+03</pdfrwt>
<totfact> 0.45827591E+04</totfact>
</mgrwt>
</event>
<event>
 7    0  0.4737014E-002  0.4381253E+03  0.7546771E-02  0.1031324E+00
         21   -1    0    0  502  501  0.00000000000E+00  0.00000000000E+00  0.19929770990E+03  0.19929770990E+03  0.00000000000E+00 0. -1.
         21   -1    0    0  501  502 -0.00000000000E+00 -0.00000000000E+00 -0.24078772660E+03  0.24078772660E+03  0.00000000000E+00 0. -1.
      99926    2    1    2    0    0  0.14210854715E-13 -0.35527136788E-14 -0.41490016699E+02  0.44008543649E+03  0.43812529022E+03 0.  0.
      99925    2    3    3    0    0  0.92493692201E+02 -0.25757665732E+02 -0.36101641100E+02  0.28230367857E+03  0.26300855120E+03 0.  0.
         25    1    3    3    0    0 -0.92493692201E+02  0.25757665732E+02 -0.53883755984E+01  0.15778175792E+03  0.12509000000E+03 0.  0.
         25    1    4    4    0    0  0.76923997350E+02 -0.79887216103E+01  0.87634641593E+01  0.14732761942E+03  0.12509000000E+03 0.  0.
         25    1    4    4    0    0  0.15569694851E+02 -0.17768944121E+02 -0.44865105260E+02  0.13497605915E+03  0.12509000000E+03 0.  0.
<mgrwt>
<rscale>  2 0.43812529E+03</rscale>
<asrwt>0</asrwt>
<pdfrwt beam="1">  1       21 0.29308487E-01 0.43812529E+03</pdfrwt>
<pdfrwt beam="2">  1       21 0.35409960E-01 0.43812529E+03</pdfrwt>
<totfact> 0.79877249E+04</totfact>
</mgrwt>
</event>
<event>
 7    0  0.4737014E-002  0.4558885E+03  0.7546771E-02  0.1025980E+00
         21   -1    0    0  502  501  0.00000000000E+00  0.00000000000E+00  0.63907137779E+02  0.63907137779E+02  0.00000000000E+00 0. -1.
         21   -1    0    0  501  502 -0.00000000000E+00 -0.00000000000E+00 -0.81303259456E+03  0.81303259456E+03  0.00000000000E+00 0. -1.
      99926    2    1    2    0    0 -0.13322676296E-14 -0.14210854715E-13 -0.74912545678E+03  0.87693973234E+03  0.45588852163E+03 0.  0.
      99925    2    3    3    0    0  0.14376848884E+01  0.10739568054E+03 -0.39787240829E+03  0.48891639373E+03  0.26306061590E+03 0.  0.
         25    1    4    4    0    0  0.19176949800E+02  0.65981128995E+02 -0.14637158477E+03  0.20443437509E+03  0.12509000000E+03 0.  0.
         25    1    3    3    0    0 -0.14376848884E+01 -0.10739568054E+03 -0.35125304848E+03  0.38802333861E+03  0.12509000000E+03 0.  0.
         25    1    4    4    0    0 -0.17739264912E+02  0.41414551543E+02 -0.25150082352E+03  0.28448201864E+03  0.12509000000E+03 0.  0.
<mgrwt>
<rscale>  2 0.45588852E+03</rscale>
<asrwt>0</asrwt>
<pdfrwt beam="1">  1       21 0.93981088E-02 0.45588852E+03</pdfrwt>
<pdfrwt beam="2">  1       21 0.11956361E+00 0.45588852E+03</pdfrwt>
<totfact> 0.43939207E+04</totfact>
</mgrwt>
</event>
<event>
 7    0  0.4737014E-002  0.4536309E+03  0.7546771E-02  0.1026645E+00
         21   -1    0    0  502  501  0.00000000000E+00  0.00000000000E+00  0.10437761128E+03  0.10437761128E+03  0.00000000000E+00 0. -1.
         21   -1    0    0  501  502 -0.00000000000E+00 -0.00000000000E+00 -0.49287632259E+03  0.49287632259E+03  0.00000000000E+00 0. -1.
      99926    2    1    2    0    0  0.00000000000E+00  0.00000000000E+00 -0.38849871131E+03  0.59725393387E+03  0.45363092138E+03 0.  0.
      99925    2    3    3    0    0  0.65949089610E+02  0.37172979845E+02 -0.13613401217E+03  0.30559220803E+03  0.26291256243E+03 0.  0.
         25    1    4    4    0    0  0.55263621738E+02  0.69847856839E+01 -0.10556304441E+03  0.17289858173E+03  0.12509000000E+03 0.  0.
         25    1    3    3    0    0 -0.65949089610E+02 -0.37172979845E+02 -0.25236469914E+03  0.29166172585E+03  0.12509000000E+03 0.  0.
         25    1    4    4    0    0  0.10685467872E+02  0.30188194161E+02 -0.30570967765E+02  0.13269362630E+03  0.12509000000E+03 0.  0.
<mgrwt>
<rscale>  2 0.45363092E+03</rscale>
<asrwt>0</asrwt>
<pdfrwt beam="1">  1       21 0.15349649E-01 0.45363092E+03</pdfrwt>
<pdfrwt beam="2">  1       21 0.72481812E-01 0.45363092E+03</pdfrwt>
<totfact> 0.59488567E+04</totfact>
</mgrwt>
</event>
<event>
 7    0  0.4737014E-002  0.4594249E+03  0.7546771E-02  0.1024948E+00
         21   -1    0    0  502  501  0.00000000000E+00  0.00000000000E+00  0.20902274655E+03  0.20902274655E+03  0.00000000000E+00 0. -1.
         21   -1    0    0  501  502 -0.00000000000E+00 -0.00000000000E+00 -0.25245012667E+03  0.25245012667E+03  0.00000000000E+00 0. -1.
      99926    2    1    2    0    0 -0.71054273576E-14  0.00000000000E+00 -0.43427380116E+02  0.46147287322E+03  0.45942493987E+03 0.  0.
      99925    2    3    3    0    0  0.60724261680E+02  0.89148883470E+02  0.19295609063E+02  0.28479055703E+03  0.26286570994E+03 0.  0.
         25    1    4    4    0    0  0.23486245900E+02  0.32379749653E+02  0.47574884456E+02  0.13968152943E+03  0.12509000000E+03 0.  0.
         25    1    4    4    0    0  0.37238015780E+02  0.56769133818E+02 -0.28279275393E+02  0.14510902760E+03  0.12509000000E+03 0.  0.
         25    1    3    3    0    0 -0.60724261680E+02 -0.89148883470E+02 -0.62722989179E+02  0.17668231618E+03  0.12509000000E+03 0.  0.
<mgrwt>
<rscale>  2 0.45942494E+03</rscale>
<asrwt>0</asrwt>
<pdfrwt beam="1">  1       21 0.30738639E-01 0.45942494E+03</pdfrwt>
<pdfrwt beam="2">  1       21 0.37125018E-01 0.45942494E+03</pdfrwt>
<totfact> 0.65723009E+04</totfact>
</mgrwt>
</event>
<event>
 7    0  0.4737014E-002  0.4563461E+03  0.7546771E-02  0.1025846E+00
         21   -1    0    0  502  501  0.00000000000E+00  0.00000000000E+00  0.18437011819E+02  0.18437011819E+02  0.00000000000E+00 0.  1.
         21   -1    0    0  501  502 -0.00000000000E+00 -0.00000000000E+00 -0.28238273691E+04  0.28238273691E+04  0.00000000000E+00 0.  1.
      99926    2    1    2    0    0  0.00000000000E+00 -0.71054273576E-14 -0.28053903573E+04  0.28422643809E+04  0.45634609051E+03 0.  0.
      99925    2    3    3    0    0  0.71363214899E+02 -0.38286567309E+02 -0.22665672658E+04  0.22832148289E+04  0.26302892335E+03 0.  0.
         25    1    4    4    0    0  0.52887575917E+02 -0.27879267875E+02 -0.87994852536E+03  0.89080371836E+03  0.12509000000E+03 0.  0.
         25    1    4    4    0    0  0.18475638982E+02 -0.10407299434E+02 -0.13866187405E+04  0.13924111105E+04  0.12509000000E+03 0.  0.
         25    1    3    3    0    0 -0.71363214899E+02  0.38286567309E+02 -0.53882309145E+03  0.55904955206E+03  0.12509000000E+03 0.  0.
<mgrwt>
<rscale>  2 0.45634609E+03</rscale>
<asrwt>0</asrwt>
<pdfrwt beam="1">  1       21 0.27113263E-02 0.45634609E+03</pdfrwt>
<pdfrwt beam="2">  1       21 0.41526857E+00 0.45634609E+03</pdfrwt>
<totfact> 0.41817134E+03</totfact>
</mgrwt>
</event>
<event>
 7    0  0.4737014E-002  0.4603316E+03  0.7546771E-02  0.1024685E+00
         21   -1    0    0  502  501  0.00000000000E+00  0.00000000000E+00  0.21859567566E+03  0.21859567566E+03  0.00000000000E+00 0.  1.
         21   -1    0    0  501  502 -0.00000000000E+00 -0.00000000000E+00 -0.24234830911E+03  0.24234830911E+03  0.00000000000E+00 0.  1.
      99926    2    1    2    0    0  0.00000000000E+00  0.00000000000E+00 -0.23752633456E+02  0.46094398477E+03  0.46033158647E+03 0.  0.
      99925    2    3    3    0    0  0.19280075253E+02  0.37847467792E+02 -0.12457210725E+03  0.29476267861E+03  0.26374736904E+03 0.  0.
         25    1    4    4    0    0 -0.56229115443E+01 -0.17588885461E+02 -0.75591526198E+02  0.14731793156E+03  0.12509000000E+03 0.  0.
         25    1    4    4    0    0  0.24902986798E+02  0.55436353253E+02 -0.48980581053E+02  0.14744474705E+03  0.12509000000E+03 0.  0.
         25    1    3    3    0    0 -0.19280075253E+02 -0.37847467792E+02  0.10081947379E+03  0.16618130616E+03  0.12509000000E+03 0.  0.
<mgrwt>
<rscale>  2 0.46033159E+03</rscale>
<asrwt>0</asrwt>
<pdfrwt beam="1">  1       21 0.32146423E-01 0.46033159E+03</pdfrwt>
<pdfrwt beam="2">  1       21 0.35639457E-01 0.46033159E+03</pdfrwt>
<totfact> 0.65290569E+04</totfact>
</mgrwt>
</event>
<event>
 7    0  0.4737014E-002  0.4540676E+03  0.7546771E-02  0.1026516E+00
         21   -1    0    0  502  501  0.00000000000E+00  0.00000000000E+00  0.11467827233E+03  0.11467827233E+03  0.00000000000E+00 0.  1.
         21   -1    0    0  501  502 -0.00000000000E+00 -0.00000000000E+00 -0.44946909985E+03  0.44946909985E+03  0.00000000000E+00 0.  1.
      99926    2    1    2    0    0  0.00000000000E+00  0.00000000000E+00 -0.33479082752E+03  0.56414737218E+03  0.45406757134E+03 0.  0.
      99925    2    3    3    0    0 -0.10879586206E+03  0.13345027353E+02 -0.24150938916E+03  0.37345504355E+03  0.26292062517E+03 0.  0.
         25    1    4    4    0    0 -0.90971817070E+02 -0.14678088557E+02 -0.13568158388E+03  0.20627243657E+03  0.12509000000E+03 0.  0.
         25    1    3    3    0    0  0.10879586206E+03 -0.13345027353E+02 -0.93281438359E+02  0.19069232863E+03  0.12509000000E+03 0.  0.
         25    1    4    4    0    0 -0.17824044992E+02  0.28023115910E+02 -0.10582780528E+03  0.16718260698E+03  0.12509000000E+03 0.  0.
<mgrwt>
<rscale>  2 0.45406757E+03</rscale>
<asrwt>0</asrwt>
<pdfrwt beam="1">  1       21 0.16864452E-01 0.45406757E+03</pdfrwt>
<pdfrwt beam="2">  1       21 0.66098397E-01 0.45406757E+03</pdfrwt>
<totfact> 0.61392705E+04</totfact>
</mgrwt>
</event>
<event>
 7    0  0.4737014E-002  0.4565364E+03  0.7546771E-02  0.1025791E+00
         21   -1    0    0  502  501  0.00000000000E+00  0.00000000000E+00  0.72882893144E+03  0.72882893144E+03  0.00000000000E+00 0.  1.
         21   -1    0    0  501  502 -0.00000000000E+00 -0.00000000000E+00 -0.71493281929E+02  0.71493281929E+02  0.00000000000E+00 0.  1.
      99926    2    1    2    0    0  0.35527136788E-14  0.00000000000E+00  0.65733564951E+03  0.80032221337E+03  0.45653640501E+03 0.  0.
      99925    2    3    3    0    0  0.23479243939E+02 -0.88244199210E+02  0.29187110568E+03  0.40339633302E+03  0.26306186644E+03 0.  0.
         25    1    4    4    0    0 -0.19018362645E+02 -0.20255336463E+02  0.11282979528E+03  0.17073385012E+03  0.12509000000E+03 0.  0.
         25    1    4    4    0    0  0.42497606583E+02 -0.67988862747E+02  0.17904131040E+03  0.23266248291E+03  0.12509000000E+03 0.  0.
         25    1    3    3    0    0 -0.23479243939E+02  0.88244199210E+02  0.36546454383E+03  0.39692588035E+03  0.12509000000E+03 0.  0.
<mgrwt>
<rscale>  2 0.45653641E+03</rscale>
<asrwt>0</asrwt>
<pdfrwt beam="1">  1       21 0.10718072E+00 0.45653641E+03</pdfrwt>
<pdfrwt beam="2">  1       21 0.10513718E-01 0.45653641E+03</pdfrwt>
<totfact> 0.47177810E+04</totfact>
</mgrwt>
</event>
<event>
 7    0  0.4737014E-002  0.4580052E+03  0.7546771E-02  0.1025361E+00
         21   -1    0    0  502  501  0.00000000000E+00  0.00000000000E+00  0.52757267520E+03  0.52757267520E+03  0.00000000000E+00 0. -1.
         21   -1    0    0  501  502 -0.00000000000E+00 -0.00000000000E+00 -0.99402793809E+02  0.99402793809E+02  0.00000000000E+00 0. -1.
      99926    2    1    2    0    0  0.00000000000E+00  0.00000000000E+00  0.42816988140E+03  0.62697546901E+03  0.45800523077E+03 0.  0.
      99925    2    3    3    0    0 -0.48466981658E+02  0.95644068385E+02  0.32986424883E+03  0.43512046746E+03  0.26272145404E+03 0.  0.
         25    1    3    3    0    0  0.48466981658E+02 -0.95644068385E+02  0.98305632566E+02  0.19185500156E+03  0.12509000000E+03 0.  0.
         25    1    4    4    0    0 -0.49822575110E+02  0.59509222763E+02  0.12895433637E+03  0.19570479185E+03  0.12509000000E+03 0.  0.
         25    1    4    4    0    0  0.13555934525E+01  0.36134845621E+02  0.20090991246E+03  0.23941567561E+03  0.12509000000E+03 0.  0.
<mgrwt>
<rscale>  2 0.45800523E+03</rscale>
<asrwt>0</asrwt>
<pdfrwt beam="1">  1       21 0.77584216E-01 0.45800523E+03</pdfrwt>
<pdfrwt beam="2">  1       21 0.14618058E-01 0.45800523E+03</pdfrwt>
<totfact> 0.55714134E+04</totfact>
</mgrwt>
</event>
<event>
 7    0  0.4737014E-002  0.4451427E+03  0.7546771E-02  0.1029181E+00
         21   -1    0    0  502  501  0.00000000000E+00  0.00000000000E+00  0.48180592914E+02  0.48180592914E+02  0.00000000000E+00 0. -1.
         21   -1    0    0  501  502 -0.00000000000E+00 -0.00000000000E+00 -0.10281732322E+04  0.10281732322E+04  0.00000000000E+00 0. -1.
      99926    2    1    2    0    0  0.00000000000E+00  0.00000000000E+00 -0.97999263926E+03  0.10763538251E+04  0.44514265553E+03 0.  0.
      99925    2    3    3    0    0  0.66342319638E+02 -0.63539342424E+02 -0.50809886661E+03  0.57959453511E+03  0.26329985847E+03 0.  0.
         25    1    4    4    0    0  0.31655681877E+02 -0.65785326140E+02 -0.31754492222E+03  0.34901586935E+03  0.12509000000E+03 0.  0.
         25    1    3    3    0    0 -0.66342319638E+02  0.63539342424E+02 -0.47189377265E+03  0.49675928997E+03  0.12509000000E+03 0.  0.
         25    1    4    4    0    0  0.34686637762E+02  0.22459837152E+01 -0.19055394439E+03  0.23057866576E+03  0.12509000000E+03 0.  0.
<mgrwt>
<rscale>  2 0.44514266E+03</rscale>
<asrwt>0</asrwt>
<pdfrwt beam="1">  1       21 0.70853815E-02 0.44514266E+03</pdfrwt>
<pdfrwt beam="2">  1       21 0.15120194E+00 0.44514266E+03</pdfrwt>
<totfact> 0.39258851E+04</totfact>
</mgrwt>
</event>
<event>
 7    0  0.4737014E-002  0.4718319E+03  0.7546771E-02  0.1021404E+00
         21   -1    0    0  502  501  0.00000000000E+00  0.00000000000E+00  0.12901653087E+03  0.12901653087E+03  0.00000000000E+00 0. -1.
         21   -1    0    0  501  502 -0.00000000000E+00 -0.00000000000E+00 -0.43138925560E+03  0.43138925560E+03  0.00000000000E+00 0. -1.
      99926    2    1    2    0    0 -0.14210854715E-13  0.14210854715E-13 -0.30237272472E+03  0.56040578647E+03  0.47183194132E+03 0.  0.
      99925    2    3    3    0    0  0.79954919377E+02 -0.95971279480E+02 -0.15248521948E+03  0.32863640121E+03  0.26295791759E+03 0.  0.
         25    1    4    4    0    0  0.69491575730E+02 -0.81417495495E+02 -0.81705382314E+02  0.18379653226E+03  0.12509000000E+03 0.  0.
         25    1    4    4    0    0  0.10463343648E+02 -0.14553783984E+02 -0.70779837171E+02  0.14483986895E+03  0.12509000000E+03 0.  0.
         25    1    3    3    0    0 -0.79954919377E+02  0.95971279480E+02 -0.14988750524E+03  0.23176938526E+03  0.12509000000E+03 0.  0.
<mgrwt>
<rscale>  2 0.47183194E+03</rscale>
<asrwt>0</asrwt>
<pdfrwt beam="1">  1       21 0.18973019E-01 0.47183194E+03</pdfrwt>
<pdfrwt beam="2">  1       21 0.63439596E-01 0.47183194E+03</pdfrwt>
<totfact> 0.53671779E+04</totfact>
</mgrwt>
</event>
<event>
 7    0  0.4737014E-002  0.4566588E+03  0.7546771E-02  0.1025755E+00
         21   -1    0    0  502  501  0.00000000000E+00  0.00000000000E+00  0.17602894693E+03  0.17602894693E+03  0.00000000000E+00 0.  1.
         21   -1    0    0  501  502 -0.00000000000E+00 -0.00000000000E+00 -0.29616893017E+03  0.29616893017E+03  0.00000000000E+00 0.  1.
      99926    2    1    2    0    0  0.00000000000E+00 -0.88817841970E-15 -0.12013998324E+03  0.47219787710E+03  0.45665875615E+03 0.  0.
      99925    2    3    3    0    0  0.29352608665E+02  0.36714909875E+01 -0.19010910579E+03  0.32584815318E+03  0.26298382336E+03 0.  0.
         25    1    4    4    0    0  0.20453419466E+01 -0.26042252510E+02 -0.60983023138E+02  0.14159385421E+03  0.12509000000E+03 0.  0.
         25    1    3    3    0    0 -0.29352608665E+02 -0.36714909875E+01  0.69969122551E+02  0.14634972392E+03  0.12509000000E+03 0.  0.
         25    1    4    4    0    0  0.27307266719E+02  0.29713743498E+02 -0.12912608265E+03  0.18425429897E+03  0.12509000000E+03 0.  0.
<mgrwt>
<rscale>  2 0.45665876E+03</rscale>
<asrwt>0</asrwt>
<pdfrwt beam="1">  1       21 0.25886610E-01 0.45665876E+03</pdfrwt>
<pdfrwt beam="2">  1       21 0.43554254E-01 0.45665876E+03</pdfrwt>
<totfact> 0.66394568E+04</totfact>
</mgrwt>
</event>
<event>
 7    0  0.4737014E-002  0.4513237E+03  0.7546771E-02  0.1027328E+00
         21   -1    0    0  502  501  0.00000000000E+00  0.00000000000E+00  0.13404980738E+03  0.13404980738E+03  0.00000000000E+00 0. -1.
         21   -1    0    0  501  502 -0.00000000000E+00 -0.00000000000E+00 -0.37988327659E+03  0.37988327659E+03  0.00000000000E+00 0. -1.
      99926    2    1    2    0    0  0.00000000000E+00  0.00000000000E+00 -0.24583346921E+03  0.51393308397E+03  0.45132374214E+03 0.  0.
      99925    2    3    3    0    0  0.10716813925E+03 -0.15326061438E+02 -0.17169451110E+03  0.33264880049E+03  0.26354567174E+03 0.  0.
         25    1    3    3    0    0 -0.10716813925E+03  0.15326061438E+02 -0.74138958107E+02  0.18128428348E+03  0.12509000000E+03 0.  0.
         25    1    4    4    0    0  0.48753184204E+02  0.32899326805E+02 -0.74102751362E+02  0.15683738245E+03  0.12509000000E+03 0.  0.
         25    1    4    4    0    0  0.58414955042E+02 -0.48225388243E+02 -0.97591759737E+02  0.17581141804E+03  0.12509000000E+03 0.  0.
<mgrwt>
<rscale>  2 0.45132374E+03</rscale>
<asrwt>0</asrwt>
<pdfrwt beam="1">  1       21 0.19713207E-01 0.45132374E+03</pdfrwt>
<pdfrwt beam="2">  1       21 0.55865186E-01 0.45132374E+03</pdfrwt>
<totfact> 0.66212975E+04</totfact>
</mgrwt>
</event>
<event>
 7    0  0.4737014E-002  0.4622517E+03  0.7546771E-02  0.1024130E+00
         21   -1    0    0  502  501  0.00000000000E+00  0.00000000000E+00  0.32518352522E+03  0.32518352522E+03  0.00000000000E+00 0. -1.
         21   -1    0    0  501  502 -0.00000000000E+00 -0.00000000000E+00 -0.16427388663E+03  0.16427388663E+03  0.00000000000E+00 0. -1.
      99926    2    1    2    0    0 -0.17763568394E-14  0.14210854715E-13  0.16090963860E+03  0.48945741185E+03  0.46225171306E+03 0.  0.
      99925    2    3    3    0    0  0.10436725952E+02 -0.51024017779E+02 -0.13818448315E+02  0.26834705910E+03  0.26288175854E+03 0.  0.
         25    1    4    4    0    0 -0.22020937816E+02 -0.42819499496E+02  0.17352524823E+02  0.13515564900E+03  0.12509000000E+03 0.  0.
         25    1    4    4    0    0  0.32457663768E+02 -0.82045182830E+01 -0.31170973138E+02  0.13319141010E+03  0.12509000000E+03 0.  0.
         25    1    3    3    0    0 -0.10436725952E+02  0.51024017779E+02  0.17472808691E+03  0.22111035275E+03  0.12509000000E+03 0.  0.
<mgrwt>
<rscale>  2 0.46225171E+03</rscale>
<asrwt>0</asrwt>
<pdfrwt beam="1">  1       21 0.47821107E-01 0.46225171E+03</pdfrwt>
<pdfrwt beam="2">  1       21 0.24157924E-01 0.46225171E+03</pdfrwt>
<totfact> 0.62350495E+04</totfact>
</mgrwt>
</event>
<event>
 7    0  0.4737014E-002  0.4518779E+03  0.7546771E-02  0.1027164E+00
         21   -1    0    0  502  501  0.00000000000E+00  0.00000000000E+00  0.57026797254E+03  0.57026797254E+03  0.00000000000E+00 0.  1.
         21   -1    0    0  501  502 -0.00000000000E+00 -0.00000000000E+00 -0.89516511336E+02  0.89516511336E+02  0.00000000000E+00 0.  1.
      99926    2    1    2    0    0  0.00000000000E+00  0.00000000000E+00  0.48075146120E+03  0.65978448387E+03  0.45187785707E+03 0.  0.
      99925    2    3    3    0    0  0.78441599435E+02  0.74263764124E+02  0.33526949837E+03  0.43960114937E+03  0.26301205829E+03 0.  0.
         25    1    3    3    0    0 -0.78441599435E+02 -0.74263764124E+02  0.14548196283E+03  0.22018333451E+03  0.12509000000E+03 0.  0.
         25    1    4    4    0    0  0.70116499600E+02  0.63830607891E+02  0.20879437966E+03  0.26121499018E+03  0.12509000000E+03 0.  0.
         25    1    4    4    0    0  0.83250998356E+01  0.10433156234E+02  0.12647511871E+03  0.17838615919E+03  0.12509000000E+03 0.  0.
<mgrwt>
<rscale>  2 0.45187786E+03</rscale>
<asrwt>0</asrwt>
<pdfrwt beam="1">  1       21 0.83862935E-01 0.45187786E+03</pdfrwt>
<pdfrwt beam="2">  1       21 0.13164193E-01 0.45187786E+03</pdfrwt>
<totfact> 0.56519572E+04</totfact>
</mgrwt>
</event>
<event>
 7    0  0.4737014E-002  0.4506337E+03  0.7546771E-02  0.1027533E+00
         21   -1    0    0  502  501  0.00000000000E+00  0.00000000000E+00  0.82922815831E+02  0.82922815831E+02  0.00000000000E+00 0. -1.
         21   -1    0    0  501  502 -0.00000000000E+00 -0.00000000000E+00 -0.61222828346E+03  0.61222828346E+03  0.00000000000E+00 0. -1.
      99926    2    1    2    0    0  0.00000000000E+00  0.00000000000E+00 -0.52930546762E+03  0.69515109929E+03  0.45063374572E+03 0.  0.
      99925    2    3    3    0    0  0.40249525597E+02  0.69365078602E+02 -0.22030817874E+03  0.35228323687E+03  0.26293772441E+03 0.  0.
         25    1    4    4    0    0  0.16085929152E+02  0.17802776944E+02 -0.59026812284E+02  0.14038293576E+03  0.12509000000E+03 0.  0.
         25    1    3    3    0    0 -0.40249525597E+02 -0.69365078602E+02 -0.30899728888E+03  0.34286786242E+03  0.12509000000E+03 0.  0.
         25    1    4    4    0    0  0.24163596445E+02  0.51562301658E+02 -0.16128136646E+03  0.21190030111E+03  0.12509000000E+03 0.  0.
<mgrwt>
<rscale>  2 0.45063375E+03</rscale>
<asrwt>0</asrwt>
<pdfrwt beam="1">  1       21 0.12194532E-01 0.45063375E+03</pdfrwt>
<pdfrwt beam="2">  1       21 0.90033572E-01 0.45063375E+03</pdfrwt>
<totfact> 0.55034079E+04</totfact>
</mgrwt>
</event>
<event>
 7    0  0.4737014E-002  0.4568564E+03  0.7546771E-02  0.1025697E+00
         21   -1    0    0  502  501  0.00000000000E+00  0.00000000000E+00  0.18716482954E+03  0.18716482954E+03  0.00000000000E+00 0.  1.
         21   -1    0    0  501  502 -0.00000000000E+00 -0.00000000000E+00 -0.27878871321E+03  0.27878871321E+03  0.00000000000E+00 0.  1.
      99926    2    1    2    0    0  0.00000000000E+00  0.13322676296E-14 -0.91623883664E+02  0.46595354275E+03  0.45685639751E+03 0.  0.
      99925    2    3    3    0    0  0.82517606845E+02  0.16141795426E+01  0.24222896436E+02  0.27653404646E+03  0.26281660740E+03 0.  0.
         25    1    4    4    0    0  0.19465211017E+02  0.31413506585E+02  0.27401100681E+02  0.13328177390E+03  0.12509000000E+03 0.  0.
         25    1    3    3    0    0 -0.82517606845E+02 -0.16141795426E+01 -0.11584678010E+03  0.18941949629E+03  0.12509000000E+03 0.  0.
         25    1    4    4    0    0  0.63052395828E+02 -0.29799327043E+02 -0.31782042451E+01  0.14325227256E+03  0.12509000000E+03 0.  0.
<mgrwt>
<rscale>  2 0.45685640E+03</rscale>
<asrwt>0</asrwt>
<pdfrwt beam="1">  1       21 0.27524240E-01 0.45685640E+03</pdfrwt>
<pdfrwt beam="2">  1       21 0.40998340E-01 0.45685640E+03</pdfrwt>
<totfact> 0.66749058E+04</totfact>
</mgrwt>
</event>
<event>
 7    0  0.4737014E-002  0.4530958E+03  0.7546771E-02  0.1026803E+00
         21   -1    0    0  502  501  0.00000000000E+00  0.00000000000E+00  0.65006259052E+03  0.65006259052E+03  0.00000000000E+00 0.  1.
         21   -1    0    0  501  502 -0.00000000000E+00 -0.00000000000E+00 -0.78952314694E+02  0.78952314694E+02  0.00000000000E+00 0.  1.
      99926    2    1    2    0    0  0.00000000000E+00  0.00000000000E+00  0.57111027582E+03  0.72901490521E+03  0.45309577891E+03 0.  0.
      99925    2    3    3    0    0  0.72653335072E+02 -0.61431016810E+02  0.26660297383E+03  0.38634234723E+03  0.26292772141E+03 0.  0.
         25    1    4    4    0    0  0.32975139555E+02 -0.11851011583E+02  0.17820882730E+03  0.22053049796E+03  0.12509000000E+03 0.  0.
         25    1    4    4    0    0  0.39678195516E+02 -0.49580005227E+02  0.88394146531E+02  0.16581184927E+03  0.12509000000E+03 0.  0.
         25    1    3    3    0    0 -0.72653335072E+02  0.61431016810E+02  0.30450730199E+03  0.34267255798E+03  0.12509000000E+03 0.  0.
<mgrwt>
<rscale>  2 0.45309578E+03</rscale>
<asrwt>0</asrwt>
<pdfrwt beam="1">  1       21 0.95597437E-01 0.45309578E+03</pdfrwt>
<pdfrwt beam="2">  1       21 0.11610635E-01 0.45309578E+03</pdfrwt>
<totfact> 0.52132088E+04</totfact>
</mgrwt>
</event>
<event>
 7    0  0.4737014E-002  0.4439701E+03  0.7546771E-02  0.1029536E+00
         21   -1    0    0  502  501  0.00000000000E+00  0.00000000000E+00  0.19145880298E+03  0.19145880298E+03  0.00000000000E+00 0. -1.
         21   -1    0    0  501  502 -0.00000000000E+00 -0.00000000000E+00 -0.25737846042E+03  0.25737846042E+03  0.00000000000E+00 0. -1.
      99926    2    1    2    0    0  0.00000000000E+00  0.00000000000E+00 -0.65919657437E+02  0.44883726339E+03  0.44397014289E+03 0.  0.
      99925    2    3    3    0    0  0.78827282348E+02 -0.16197374046E+02 -0.10600136501E+03  0.29479133923E+03  0.26303906351E+03 0.  0.
         25    1    4    4    0    0  0.56338166987E+02  0.27869406012E+02 -0.44637336074E+02  0.14693771716E+03  0.12509000000E+03 0.  0.
         25    1    4    4    0    0  0.22489115361E+02 -0.44066780059E+02 -0.61364028935E+02  0.14785362208E+03  0.12509000000E+03 0.  0.
         25    1    3    3    0    0 -0.78827282348E+02  0.16197374046E+02  0.40081707572E+02  0.15404592416E+03  0.12509000000E+03 0.  0.
<mgrwt>
<rscale>  2 0.44397014E+03</rscale>
<asrwt>0</asrwt>
<pdfrwt beam="1">  1       21 0.28155706E-01 0.44397014E+03</pdfrwt>
<pdfrwt beam="2">  1       21 0.37849774E-01 0.44397014E+03</pdfrwt>
<totfact> 0.75420659E+04</totfact>
</mgrwt>
</event>
<event>
 7    0  0.4737014E-002  0.4499036E+03  0.7546771E-02  0.1027751E+00
         21   -1    0    0  502  501  0.00000000000E+00  0.00000000000E+00  0.10754569336E+03  0.10754569336E+03  0.00000000000E+00 0.  1.
         21   -1    0    0  501  502 -0.00000000000E+00 -0.00000000000E+00 -0.47052851490E+03  0.47052851490E+03  0.00000000000E+00 0.  1.
      99926    2    1    2    0    0 -0.14210854715E-13  0.00000000000E+00 -0.36298282155E+03  0.57807420826E+03  0.44990361358E+03 0.  0.
      99925    2    3    3    0    0 -0.51706538238E+02  0.95163853972E+02 -0.22290697480E+03  0.36128288892E+03  0.26288415930E+03 0.  0.
         25    1    4    4    0    0  0.12997070471E+02  0.41316185668E+02 -0.87954871904E+02  0.15893243417E+03  0.12509000000E+03 0.  0.
         25    1    4    4    0    0 -0.64703608709E+02  0.53847668304E+02 -0.13495210289E+03  0.20235045475E+03  0.12509000000E+03 0.  0.
         25    1    3    3    0    0  0.51706538238E+02 -0.95163853972E+02 -0.14007584675E+03  0.21679131934E+03  0.12509000000E+03 0.  0.
<mgrwt>
<rscale>  2 0.44990361E+03</rscale>
<asrwt>0</asrwt>
<pdfrwt beam="1">  1       21 0.15815543E-01 0.44990361E+03</pdfrwt>
<pdfrwt beam="2">  1       21 0.69195370E-01 0.44990361E+03</pdfrwt>
<totfact> 0.62530207E+04</totfact>
</mgrwt>
</event>
<event>
 6    0  0.4737014E-002  0.4571820E+03  0.7546771E-02  0.1025602E+00
         21   -1    0    0  502  501  0.00000000000E+00  0.00000000000E+00  0.17292132486E+02  0.17292132486E+02  0.00000000000E+00 0. -1.
         21   -1    0    0  501  502 -0.00000000000E+00 -0.00000000000E+00 -0.30218280419E+04  0.30218280419E+04  0.00000000000E+00 0. -1.
      99926    2    1    2    0    0  0.00000000000E+00 -0.71054273576E-14 -0.30045359095E+04  0.30391201744E+04  0.45718202437E+03 0.  0.
         25    1    3    3    0    0 -0.17083918490E+02 -0.47509222603E+01 -0.99309785137E+03  0.10011020338E+04  0.12509000000E+03 0.  0.
         25    1    3    3    0    0 -0.38320646817E+02  0.47640552993E+02 -0.47724726489E+03  0.49714238827E+03  0.12509000000E+03 0.  0.
         25    1    3    3    0    0  0.55404565308E+02 -0.42889630733E+02 -0.15341907932E+04  0.15408757524E+04  0.12509000000E+03 0.  0.
<mgrwt>
<rscale>  2 0.45718202E+03</rscale>
<asrwt>0</asrwt>
<pdfrwt beam="1">  1       21 0.25429621E-02 0.45718202E+03</pdfrwt>
<pdfrwt beam="2">  1       21 0.44438622E+00 0.45718202E+03</pdfrwt>
<totfact> 0.29845070E+03</totfact>
</mgrwt>
</event>
<event>
 7    0  0.4737014E-002  0.4563277E+03  0.7546771E-02  0.1025852E+00
         21   -1    0    0  502  501  0.00000000000E+00  0.00000000000E+00  0.31109112725E+03  0.31109112725E+03  0.00000000000E+00 0.  1.
         21   -1    0    0  501  502 -0.00000000000E+00 -0.00000000000E+00 -0.16734244140E+03  0.16734244140E+03  0.00000000000E+00 0.  1.
      99926    2    1    2    0    0 -0.17763568394E-14  0.00000000000E+00  0.14374868586E+03  0.47843356865E+03  0.45632772754E+03 0.  0.
      99925    2    3    3    0    0 -0.15206142739E+02 -0.11030423099E+03  0.62749521742E+02  0.29240501482E+03  0.26299228137E+03 0.  0.
         25    1    4    4    0    0 -0.19093067200E+02 -0.90269194586E+02  0.12071101757E+02  0.15590475395E+03  0.12509000000E+03 0.  0.
         25    1    3    3    0    0  0.15206142739E+02  0.11030423099E+03  0.80999164118E+02  0.18602855383E+03  0.12509000000E+03 0.  0.
         25    1    4    4    0    0  0.38869244615E+01 -0.20035036409E+02  0.50678419984E+02  0.13650026087E+03  0.12509000000E+03 0.  0.
<mgrwt>
<rscale>  2 0.45632773E+03</rscale>
<asrwt>0</asrwt>
<pdfrwt beam="1">  1       21 0.45748696E-01 0.45632773E+03</pdfrwt>
<pdfrwt beam="2">  1       21 0.24609182E-01 0.45632773E+03</pdfrwt>
<totfact> 0.66114835E+04</totfact>
</mgrwt>
</event>
<event>
 7    0  0.4737014E-002  0.4579164E+03  0.7546771E-02  0.1025387E+00
         21   -1    0    0  502  501  0.00000000000E+00  0.00000000000E+00  0.92889886546E+03  0.92889886546E+03  0.00000000000E+00 0. -1.
         21   -1    0    0  501  502 -0.00000000000E+00 -0.00000000000E+00 -0.56434418381E+02  0.56434418381E+02  0.00000000000E+00 0. -1.
      99926    2    1    2    0    0  0.88817841970E-15  0.14210854715E-13  0.87246444708E+03  0.98533328385E+03  0.45791644307E+03 0.  0.
      99925    2    3    3    0    0 -0.52731060191E+01 -0.89522271097E+02  0.38939535760E+03  0.47833693674E+03  0.26293618590E+03 0.  0.
         25    1    4    4    0    0 -0.19778948858E+02 -0.19234261943E+02  0.23088104723E+03  0.26403547058E+03  0.12509000000E+03 0.  0.
         25    1    4    4    0    0  0.14505842839E+02 -0.70288009154E+02  0.15851431037E+03  0.21430146616E+03  0.12509000000E+03 0.  0.
         25    1    3    3    0    0  0.52731060191E+01  0.89522271097E+02  0.48306908948E+03  0.50699634711E+03  0.12509000000E+03 0.  0.
<mgrwt>
<rscale>  2 0.45791644E+03</rscale>
<asrwt>0</asrwt>
<pdfrwt beam="1">  1       21 0.13660277E+00 0.45791644E+03</pdfrwt>
<pdfrwt beam="2">  1       21 0.82991797E-02 0.45791644E+03</pdfrwt>
<totfact> 0.38848719E+04</totfact>
</mgrwt>
</event>
<event>
 7    0  0.4737014E-002  0.4564865E+03  0.7546771E-02  0.1025805E+00
         21   -1    0    0  502  501  0.00000000000E+00  0.00000000000E+00  0.82680613928E+03  0.82680613928E+03  0.00000000000E+00 0. -1.
         21   -1    0    0  501  502 -0.00000000000E+00 -0.00000000000E+00 -0.63007495021E+02  0.63007495021E+02  0.00000000000E+00 0. -1.
      99926    2    1    2    0    0  0.00000000000E+00 -0.14210854715E-13  0.76379864426E+03  0.88981363430E+03  0.45648651110E+03 0.  0.
      99925    2    3    3    0    0  0.73563123323E+02 -0.71723604304E+02  0.38079652455E+03  0.47400846318E+03  0.26291105251E+03 0.  0.
         25    1    3    3    0    0 -0.73563123323E+02  0.71723604304E+02  0.38300211971E+03  0.41580517112E+03  0.12509000000E+03 0.  0.
         25    1    4    4    0    0 -0.16648107154E+01 -0.46687025803E+02  0.19657389367E+03  0.23763681059E+03  0.12509000000E+03 0.  0.
         25    1    4    4    0    0  0.75227934038E+02 -0.25036578502E+02  0.18422263087E+03  0.23637165259E+03  0.12509000000E+03 0.  0.
<mgrwt>
<rscale>  2 0.45648651E+03</rscale>
<asrwt>0</asrwt>
<pdfrwt beam="1">  1       21 0.12158913E+00 0.45648651E+03</pdfrwt>
<pdfrwt beam="2">  1       21 0.92658086E-02 0.45648651E+03</pdfrwt>
<totfact> 0.43172305E+04</totfact>
</mgrwt>
</event>
<event>
 7    0  0.4737014E-002  0.4518269E+03  0.7546771E-02  0.1027179E+00
         21   -1    0    0  502  501  0.00000000000E+00  0.00000000000E+00  0.62919633947E+02  0.62919633947E+02  0.00000000000E+00 0.  1.
         21   -1    0    0  501  502 -0.00000000000E+00 -0.00000000000E+00 -0.81114401467E+03  0.81114401467E+03  0.00000000000E+00 0.  1.
      99926    2    1    2    0    0  0.88817841970E-15  0.00000000000E+00 -0.74822438072E+03  0.87406364861E+03  0.45182688933E+03 0.  0.
      99925    2    3    3    0    0  0.44013702112E+01  0.49649349027E+02 -0.28190774528E+03  0.38869456996E+03  0.26292025779E+03 0.  0.
         25    1    4    4    0    0  0.56984879809E+01  0.65096008271E+02 -0.15984510963E+03  0.21323210413E+03  0.12509000000E+03 0.  0.
         25    1    4    4    0    0 -0.12971177697E+01 -0.15446659244E+02 -0.12206263565E+03  0.17546246584E+03  0.12509000000E+03 0.  0.
         25    1    3    3    0    0 -0.44013702112E+01 -0.49649349027E+02 -0.46631663544E+03  0.48536907865E+03  0.12509000000E+03 0.  0.
<mgrwt>
<rscale>  2 0.45182689E+03</rscale>
<asrwt>0</asrwt>
<pdfrwt beam="1">  1       21 0.92528879E-02 0.45182689E+03</pdfrwt>
<pdfrwt beam="2">  1       21 0.11928588E+00 0.45182689E+03</pdfrwt>
<totfact> 0.45494335E+04</totfact>
</mgrwt>
</event>
<event>
 7    0  0.4737014E-002  0.4546317E+03  0.7546771E-02  0.1026350E+00
         21   -1    0    0  502  501  0.00000000000E+00  0.00000000000E+00  0.83177181840E+02  0.83177181840E+02  0.00000000000E+00 0.  1.
         21   -1    0    0  501  502 -0.00000000000E+00 -0.00000000000E+00 -0.62123411091E+03  0.62123411091E+03  0.00000000000E+00 0.  1.
      99926    2    1    2    0    0 -0.14210854715E-13  0.00000000000E+00 -0.53805692907E+03  0.70441129275E+03  0.45463173056E+03 0.  0.
      99925    2    3    3    0    0 -0.69047054096E+02 -0.20110803008E+02 -0.20425595922E+03  0.34075962473E+03  0.26310584352E+03 0.  0.
         25    1    3    3    0    0  0.69047054096E+02  0.20110803008E+02 -0.33380096986E+03  0.36365166802E+03  0.12509000000E+03 0.  0.
         25    1    4    4    0    0 -0.34725287877E+02  0.33806239959E+01 -0.53378898490E+02  0.14040686999E+03  0.12509000000E+03 0.  0.
         25    1    4    4    0    0 -0.34321766219E+02 -0.23491427004E+02 -0.15087706073E+03  0.20035275474E+03  0.12509000000E+03 0.  0.
<mgrwt>
<rscale>  2 0.45463173E+03</rscale>
<asrwt>0</asrwt>
<pdfrwt beam="1">  1       21 0.12231938E-01 0.45463173E+03</pdfrwt>
<pdfrwt beam="2">  1       21 0.91357961E-01 0.45463173E+03</pdfrwt>
<totfact> 0.52816992E+04</totfact>
</mgrwt>
</event>
<event>
 7    0  0.4737014E-002  0.4756408E+03  0.7546771E-02  0.1020340E+00
         21   -1    0    0  502  501  0.00000000000E+00  0.00000000000E+00  0.21981253413E+03  0.21981253413E+03  0.00000000000E+00 0. -1.
         21   -1    0    0  501  502 -0.00000000000E+00 -0.00000000000E+00 -0.25730353653E+03  0.25730353653E+03  0.00000000000E+00 0. -1.
      99926    2    1    2    0    0  0.71054273576E-14 -0.28421709430E-13 -0.37491002401E+02  0.47711607066E+03  0.47564079895E+03 0.  0.
      99925    2    3    3    0    0  0.52468928870E+02 -0.95119953133E+02  0.51298361379E+02  0.28914837876E+03  0.26301039728E+03 0.  0.
         25    1    4    4    0    0  0.45711378564E+02 -0.69281255300E+02  0.58303563950E+02  0.16104731024E+03  0.12509000000E+03 0.  0.
         25    1    4    4    0    0  0.67575503061E+01 -0.25838697833E+02 -0.70052025711E+01  0.12810106852E+03  0.12509000000E+03 0.  0.
         25    1    3    3    0    0 -0.52468928870E+02  0.95119953133E+02 -0.88789363780E+02  0.18796769191E+03  0.12509000000E+03 0.  0.
<mgrwt>
<rscale>  2 0.47564080E+03</rscale>
<asrwt>0</asrwt>
<pdfrwt beam="1">  1       21 0.32325373E-01 0.47564080E+03</pdfrwt>
<pdfrwt beam="2">  1       21 0.37838755E-01 0.47564080E+03</pdfrwt>
<totfact> 0.56977396E+04</totfact>
</mgrwt>
</event>
<event>
 7    0  0.4737014E-002  0.4560987E+03  0.7546771E-02  0.1025919E+00
         21   -1    0    0  502  501  0.00000000000E+00  0.00000000000E+00  0.12161534442E+04  0.12161534442E+04  0.00000000000E+00 0. -1.
         21   -1    0    0  501  502 -0.00000000000E+00 -0.00000000000E+00 -0.42763110023E+02  0.42763110023E+02  0.00000000000E+00 0. -1.
      99926    2    1    2    0    0  0.14210854715E-13  0.00000000000E+00  0.11733903342E+04  0.12589165542E+04  0.45609868906E+03 0.  0.
      99925    2    3    3    0    0 -0.77008806027E+02 -0.45796594370E+02  0.54212488373E+03  0.60916947936E+03  0.26298361311E+03 0.  0.
         25    1    4    4    0    0 -0.79439470814E+02 -0.34079772084E+02  0.30552795564E+03  0.34127247203E+03  0.12509000000E+03 0.  0.
         25    1    3    3    0    0  0.77008806027E+02  0.45796594370E+02  0.63126545047E+03  0.64974707488E+03  0.12509000000E+03 0.  0.
         25    1    4    4    0    0  0.24306647864E+01 -0.11716822286E+02  0.23659692809E+03  0.26789700733E+03  0.12509000000E+03 0.  0.
<mgrwt>
<rscale>  2 0.45609869E+03</rscale>
<asrwt>0</asrwt>
<pdfrwt beam="1">  1       21 0.17884607E+00 0.45609869E+03</pdfrwt>
<pdfrwt beam="2">  1       21 0.62886935E-02 0.45609869E+03</pdfrwt>
<totfact> 0.30073554E+04</totfact>
</mgrwt>
</event>
<event>
 7    0  0.4737014E-002  0.4591461E+03  0.7546771E-02  0.1025029E+00
         21   -1    0    0  502  501  0.00000000000E+00  0.00000000000E+00  0.39253387191E+04  0.39253387191E+04  0.00000000000E+00 0. -1.
         21   -1    0    0  501  502 -0.00000000000E+00 -0.00000000000E+00 -0.13426559415E+02  0.13426559415E+02  0.00000000000E+00 0. -1.
      99926    2    1    2    0    0  0.00000000000E+00  0.00000000000E+00  0.39119121597E+04  0.39387652785E+04  0.45914613594E+03 0.  0.
      99925    2    3    3    0    0  0.71955596935E+02  0.63314058323E+02  0.18790287386E+04  0.18997829859E+04  0.26313516488E+03 0.  0.
         25    1    4    4    0    0  0.77811911309E+01  0.60946293868E+02  0.95678527131E+03  0.96688187550E+03  0.12509000000E+03 0.  0.
         25    1    3    3    0    0 -0.71955596935E+02 -0.63314058323E+02  0.20328834211E+04  0.20389822926E+04  0.12509000000E+03 0.  0.
         25    1    4    4    0    0  0.64174405804E+02  0.23677644549E+01  0.92224346730E+03  0.93290111038E+03  0.12509000000E+03 0.  0.
<mgrwt>
<rscale>  2 0.45914614E+03</rscale>
<asrwt>0</asrwt>
<pdfrwt beam="1">  1       21 0.57725489E+00 0.45914614E+03</pdfrwt>
<pdfrwt beam="2">  1       21 0.19744968E-02 0.45914614E+03</pdfrwt>
<totfact> 0.49988290E+02</totfact>
</mgrwt>
</event>
<event>
 7    0  0.4737014E-002  0.4371719E+03  0.7546771E-02  0.1031618E+00
         21   -1    0    0  502  501  0.00000000000E+00  0.00000000000E+00  0.28139391492E+03  0.28139391492E+03  0.00000000000E+00 0. -1.
         21   -1    0    0  501  502 -0.00000000000E+00 -0.00000000000E+00 -0.16979691786E+03  0.16979691786E+03  0.00000000000E+00 0. -1.
      99926    2    1    2    0    0  0.00000000000E+00  0.00000000000E+00  0.11159699706E+03  0.45119083278E+03  0.43717190879E+03 0.  0.
      99925    2    3    3    0    0  0.93197524964E+02 -0.20871000104E+02  0.69883447085E+02  0.28837527561E+03  0.26297381258E+03 0.  0.
         25    1    3    3    0    0 -0.93197524964E+02  0.20871000104E+02  0.41713549974E+02  0.16281555717E+03  0.12509000000E+03 0.  0.
         25    1    4    4    0    0  0.79313974011E+02  0.44257597651E+01  0.59154019560E+02  0.15955249905E+03  0.12509000000E+03 0.  0.
         25    1    4    4    0    0  0.13883550953E+02 -0.25296759869E+02  0.10729427525E+02  0.12882277657E+03  0.12509000000E+03 0.  0.
<mgrwt>
<rscale>  2 0.43717191E+03</rscale>
<asrwt>0</asrwt>
<pdfrwt beam="1">  1       21 0.41381458E-01 0.43717191E+03</pdfrwt>
<pdfrwt beam="2">  1       21 0.24970135E-01 0.43717191E+03</pdfrwt>
<totfact> 0.79525404E+04</totfact>
</mgrwt>
</event>
<event>
 7    0  0.4737014E-002  0.4612143E+03  0.7546771E-02  0.1024430E+00
         21   -1    0    0  502  501  0.00000000000E+00  0.00000000000E+00  0.17826209205E+03  0.17826209205E+03  0.00000000000E+00 0.  1.
         21   -1    0    0  501  502 -0.00000000000E+00 -0.00000000000E+00 -0.29832291515E+03  0.29832291515E+03  0.00000000000E+00 0.  1.
      99926    2    1    2    0    0  0.00000000000E+00  0.00000000000E+00 -0.12006082310E+03  0.47658500720E+03  0.46121434046E+03 0.  0.
      99925    2    3    3    0    0  0.96290390477E+02  0.58470455492E+02 -0.35966533199E+02  0.28840958065E+03  0.26305106203E+03 0.  0.
         25    1    3    3    0    0 -0.96290390477E+02 -0.58470455492E+02 -0.84094289899E+02  0.18817542655E+03  0.12509000000E+03 0.  0.
         25    1    4    4    0    0  0.32866664124E+02  0.58268959676E+01  0.14630661825E+02  0.13029096167E+03  0.12509000000E+03 0.  0.
         25    1    4    4    0    0  0.63423726354E+02  0.52643559525E+02 -0.50597195024E+02  0.15811861898E+03  0.12509000000E+03 0.  0.
<mgrwt>
<rscale>  2 0.46121434E+03</rscale>
<asrwt>0</asrwt>
<pdfrwt beam="1">  1       21 0.26215014E-01 0.46121434E+03</pdfrwt>
<pdfrwt beam="2">  1       21 0.43871017E-01 0.46121434E+03</pdfrwt>
<totfact> 0.63747723E+04</totfact>
</mgrwt>
</event>
<event>
 7    0  0.4737014E-002  0.4562286E+03  0.7546771E-02  0.1025881E+00
         21   -1    0    0  502  501  0.00000000000E+00  0.00000000000E+00  0.19201479176E+02  0.19201479176E+02  0.00000000000E+00 0. -1.
         21   -1    0    0  501  502 -0.00000000000E+00 -0.00000000000E+00 -0.27100059895E+04  0.27100059895E+04  0.00000000000E+00 0. -1.
      99926    2    1    2    0    0  0.00000000000E+00  0.00000000000E+00 -0.26908045103E+04  0.27292074687E+04  0.45622855489E+03 0.  0.
      99925    2    3    3    0    0 -0.96033684984E+02 -0.45376129342E+02 -0.19443785612E+04  0.19649557644E+04  0.26298613135E+03 0.  0.
         25    1    4    4    0    0 -0.31788705290E+02 -0.21776600119E+02 -0.11937178077E+04  0.12008723723E+04  0.12509000000E+03 0.  0.
         25    1    3    3    0    0  0.96033684984E+02  0.45376129342E+02 -0.74642594917E+03  0.76425170425E+03  0.12509000000E+03 0.  0.
         25    1    4    4    0    0 -0.64244979694E+02 -0.23599529223E+02 -0.75066075351E+03  0.76408339215E+03  0.12509000000E+03 0.  0.
<mgrwt>
<rscale>  2 0.45622855E+03</rscale>
<asrwt>0</asrwt>
<pdfrwt beam="1">  1       21 0.28237484E-02 0.45622855E+03</pdfrwt>
<pdfrwt beam="2">  1       21 0.39853009E+00 0.45622855E+03</pdfrwt>
<totfact> 0.50115647E+03</totfact>
</mgrwt>
</event>
<event>
 7    0  0.4737014E-002  0.4564992E+03  0.7546771E-02  0.1025801E+00
         21   -1    0    0  502  501  0.00000000000E+00  0.00000000000E+00  0.10208373197E+03  0.10208373197E+03  0.00000000000E+00 0.  1.
         21   -1    0    0  501  502 -0.00000000000E+00 -0.00000000000E+00 -0.51034459367E+03  0.51034459367E+03  0.00000000000E+00 0.  1.
      99926    2    1    2    0    0 -0.14210854715E-13  0.00000000000E+00 -0.40826086170E+03  0.61242832564E+03  0.45649920356E+03 0.  0.
      99925    2    3    3    0    0  0.10584937448E+03  0.20071177220E+02 -0.20351052051E+03  0.34941282695E+03  0.26280382312E+03 0.  0.
         25    1    4    4    0    0  0.67710643810E+02  0.21566244658E+02 -0.61806091413E+02  0.15658012399E+03  0.12509000000E+03 0.  0.
         25    1    4    4    0    0  0.38138730674E+02 -0.14950674378E+01 -0.14170442909E+03  0.19283270295E+03  0.12509000000E+03 0.  0.
         25    1    3    3    0    0 -0.10584937448E+03 -0.20071177220E+02 -0.20475034119E+03  0.26301549869E+03  0.12509000000E+03 0.  0.
<mgrwt>
<rscale>  2 0.45649920E+03</rscale>
<asrwt>0</asrwt>
<pdfrwt beam="1">  1       21 0.15012314E-01 0.45649920E+03</pdfrwt>
<pdfrwt beam="2">  1       21 0.75050675E-01 0.45649920E+03</pdfrwt>
<totfact> 0.57238920E+04</totfact>
</mgrwt>
</event>
<event>
 7    0  0.4737014E-002  0.4542156E+03  0.7546771E-02  0.1026472E+00
         21   -1    0    0  502  501  0.00000000000E+00  0.00000000000E+00  0.40262932372E+02  0.40262932372E+02  0.00000000000E+00 0.  1.
         21   -1    0    0  501  502 -0.00000000000E+00 -0.00000000000E+00 -0.12810284123E+04  0.12810284123E+04  0.00000000000E+00 0.  1.
      99926    2    1    2    0    0  0.35527136788E-14  0.00000000000E+00 -0.12407654800E+04  0.13212913447E+04  0.45421563308E+03 0.  0.
      99925    2    3    3    0    0 -0.15709000634E+02  0.77673772293E+02 -0.54946884937E+03  0.61431289584E+03  0.26302914279E+03 0.  0.
         25    1    4    4    0    0 -0.36606982613E+02  0.63663876383E+02 -0.25460761841E+03  0.29302851019E+03  0.12509000000E+03 0.  0.
         25    1    4    4    0    0  0.20897981979E+02  0.14009895910E+02 -0.29486123096E+03  0.32128438564E+03  0.12509000000E+03 0.  0.
         25    1    3    3    0    0  0.15709000634E+02 -0.77673772293E+02 -0.69129663060E+03  0.70697844888E+03  0.12509000000E+03 0.  0.
<mgrwt>
<rscale>  2 0.45421563E+03</rscale>
<asrwt>0</asrwt>
<pdfrwt beam="1">  1       21 0.59210204E-02 0.45421563E+03</pdfrwt>
<pdfrwt beam="2">  1       21 0.18838650E+00 0.45421563E+03</pdfrwt>
<totfact> 0.28677097E+04</totfact>
</mgrwt>
</event>
<event>
 7    0  0.4737014E-002  0.4955488E+03  0.7546771E-02  0.1014947E+00
         21   -1    0    0  502  501  0.00000000000E+00  0.00000000000E+00  0.22745980431E+03  0.22745980431E+03  0.00000000000E+00 0. -1.
         21   -1    0    0  501  502 -0.00000000000E+00 -0.00000000000E+00 -0.26990331033E+03  0.26990331033E+03  0.00000000000E+00 0. -1.
      99926    2    1    2    0    0  0.14210854715E-13  0.35527136788E-14 -0.42443506024E+02  0.49736311464E+03  0.49554880345E+03 0.  0.
      99925    2    3    3    0    0  0.81610299932E+02  0.19600176419E+02 -0.14835147955E+03  0.31322073786E+03  0.26278253589E+03 0.  0.
         25    1    4    4    0    0  0.77079799849E+02  0.27366250130E+02 -0.93822620113E+02  0.17646642552E+03  0.12509000000E+03 0.  0.
         25    1    4    4    0    0  0.45305000827E+01 -0.77660737113E+01 -0.54528859439E+02  0.13675431234E+03  0.12509000000E+03 0.  0.
         25    1    3    3    0    0 -0.81610299932E+02 -0.19600176419E+02  0.10590797353E+03  0.18414237678E+03  0.12509000000E+03 0.  0.
<mgrwt>
<rscale>  2 0.49554880E+03</rscale>
<asrwt>0</asrwt>
<pdfrwt beam="1">  1       21 0.33449971E-01 0.49554880E+03</pdfrwt>
<pdfrwt beam="2">  1       21 0.39691663E-01 0.49554880E+03</pdfrwt>
<totfact> 0.48025058E+04</totfact>
</mgrwt>
</event>
<event>
 7    0  0.4737014E-002  0.4518042E+03  0.7546771E-02  0.1027185E+00
         21   -1    0    0  502  501  0.00000000000E+00  0.00000000000E+00  0.13379215207E+03  0.13379215207E+03  0.00000000000E+00 0. -1.
         21   -1    0    0  501  502 -0.00000000000E+00 -0.00000000000E+00 -0.38142570596E+03  0.38142570596E+03  0.00000000000E+00 0. -1.
      99926    2    1    2    0    0  0.14210854715E-13 -0.15543122345E-14 -0.24763355389E+03  0.51521785804E+03  0.45180423219E+03 0.  0.
      99925    2    3    3    0    0 -0.10551070050E+03  0.16701693211E+01 -0.19202236873E+03  0.34237281356E+03  0.26308032231E+03 0.  0.
         25    1    3    3    0    0  0.10551070050E+03 -0.16701693211E+01 -0.55611185155E+02  0.17284504448E+03  0.12509000000E+03 0.  0.
         25    1    4    4    0    0 -0.70359974826E+02 -0.17182320197E+02 -0.13974645581E+03  0.20105307308E+03  0.12509000000E+03 0.  0.
         25    1    4    4    0    0 -0.35150725675E+02  0.18852489518E+02 -0.52275912928E+02  0.14131974048E+03  0.12509000000E+03 0.  0.
<mgrwt>
<rscale>  2 0.45180423E+03</rscale>
<asrwt>0</asrwt>
<pdfrwt beam="1">  1       21 0.19675317E-01 0.45180423E+03</pdfrwt>
<pdfrwt beam="2">  1       21 0.56092015E-01 0.45180423E+03</pdfrwt>
<totfact> 0.65868702E+04</totfact>
</mgrwt>
</event>
<event>
 7    0  0.4737014E-002  0.4570124E+03  0.7546771E-02  0.1025651E+00
         21   -1    0    0  502  501  0.00000000000E+00  0.00000000000E+00  0.44719305926E+02  0.44719305926E+02  0.00000000000E+00 0.  1.
         21   -1    0    0  501  502 -0.00000000000E+00 -0.00000000000E+00 -0.11676183951E+04  0.11676183951E+04  0.00000000000E+00 0.  1.
      99926    2    1    2    0    0  0.00000000000E+00  0.00000000000E+00 -0.11228990892E+04  0.12123377010E+04  0.45701240340E+03 0.  0.
      99925    2    3    3    0    0 -0.93709971418E+01  0.88514822466E+02 -0.89876053521E+03  0.94066089146E+03  0.26296335047E+03 0.  0.
         25    1    4    4    0    0 -0.42320333191E+01  0.21877143684E+02 -0.30934655634E+03  0.33442386210E+03  0.12509000000E+03 0.  0.
         25    1    3    3    0    0  0.93709971418E+01 -0.88514822466E+02 -0.22413855398E+03  0.27167680958E+03  0.12509000000E+03 0.  0.
         25    1    4    4    0    0 -0.51389638227E+01  0.66637678782E+02 -0.58941397887E+03  0.60623702936E+03  0.12509000000E+03 0.  0.
<mgrwt>
<rscale>  2 0.45701240E+03</rscale>
<asrwt>0</asrwt>
<pdfrwt beam="1">  1       21 0.65763682E-02 0.45701240E+03</pdfrwt>
<pdfrwt beam="2">  1       21 0.17170859E+00 0.45701240E+03</pdfrwt>
<totfact> 0.31274244E+04</totfact>
</mgrwt>
</event>
<event>
 7    0  0.4737014E-002  0.4559801E+03  0.7546771E-02  0.1025954E+00
         21   -1    0    0  502  501  0.00000000000E+00  0.00000000000E+00  0.74107926892E+02  0.74107926892E+02  0.00000000000E+00 0.  1.
         21   -1    0    0  501  502 -0.00000000000E+00 -0.00000000000E+00 -0.70140214315E+03  0.70140214315E+03  0.00000000000E+00 0.  1.
      99926    2    1    2    0    0  0.00000000000E+00  0.00000000000E+00 -0.62729421625E+03  0.77551007004E+03  0.45598008179E+03 0.  0.
      99925    2    3    3    0    0 -0.44512556321E+02  0.32828652995E+02 -0.22368205515E+03  0.34935355792E+03  0.26259314254E+03 0.  0.
         25    1    3    3    0    0  0.44512556321E+02 -0.32828652995E+02 -0.40361216111E+03  0.42615651212E+03  0.12509000000E+03 0.  0.
         25    1    4    4    0    0 -0.49103769590E+01 -0.16321595490E+02 -0.12734187566E+03  0.17931527453E+03  0.12509000000E+03 0.  0.
         25    1    4    4    0    0 -0.39602179362E+02  0.49150248485E+02 -0.96340179485E+02  0.17003828339E+03  0.12509000000E+03 0.  0.
<mgrwt>
<rscale>  2 0.45598008E+03</rscale>
<asrwt>0</asrwt>
<pdfrwt beam="1">  1       21 0.10898225E-01 0.45598008E+03</pdfrwt>
<pdfrwt beam="2">  1       21 0.10314737E+00 0.45598008E+03</pdfrwt>
<totfact> 0.48597240E+04</totfact>
</mgrwt>
</event>
<event>
 7    0  0.4737014E-002  0.4694758E+03  0.7546771E-02  0.1022068E+00
         21   -1    0    0  502  501  0.00000000000E+00  0.00000000000E+00  0.34814757924E+03  0.34814757924E+03  0.00000000000E+00 0. -1.
         21   -1    0    0  501  502 -0.00000000000E+00 -0.00000000000E+00 -0.15827159519E+03  0.15827159519E+03  0.00000000000E+00 0. -1.
      99926    2    1    2    0    0  0.00000000000E+00  0.00000000000E+00  0.18987598405E+03  0.50641917443E+03  0.46947576179E+03 0.  0.
      99925    2    3    3    0    0 -0.72070653207E+02  0.89052688168E+02  0.17506366698E+03  0.33615034827E+03  0.26310683918E+03 0.  0.
         25    1    4    4    0    0 -0.69414188611E+02  0.45228681329E+02  0.63655449262E+02  0.16298308966E+03  0.12509000000E+03 0.  0.
         25    1    3    3    0    0  0.72070653207E+02 -0.89052688168E+02  0.14812317075E+02  0.17026882616E+03  0.12509000000E+03 0.  0.
         25    1    4    4    0    0 -0.26564645957E+01  0.43824006839E+02  0.11140821772E+03  0.17316725861E+03  0.12509000000E+03 0.  0.
<mgrwt>
<rscale>  2 0.46947576E+03</rscale>
<asrwt>0</asrwt>
<pdfrwt beam="1">  1       21 0.51198173E-01 0.46947576E+03</pdfrwt>
<pdfrwt beam="2">  1       21 0.23275235E-01 0.46947576E+03</pdfrwt>
<totfact> 0.57879552E+04</totfact>
</mgrwt>
</event>
<event>
 7    0  0.4737014E-002  0.4540986E+03  0.7546771E-02  0.1026507E+00
         21   -1    0    0  502  501  0.00000000000E+00  0.00000000000E+00  0.25945686965E+03  0.25945686965E+03  0.00000000000E+00 0. -1.
         21   -1    0    0  501  502 -0.00000000000E+00 -0.00000000000E+00 -0.19868965245E+03  0.19868965245E+03  0.00000000000E+00 0. -1.
      99926    2    1    2    0    0 -0.71054273576E-14  0.88817841970E-15  0.60767217198E+02  0.45814652210E+03  0.45409864680E+03 0.  0.
      99925    2    3    3    0    0 -0.35679425375E+02  0.76118065362E+01 -0.68744190767E+02  0.27443023570E+03  0.26316388337E+03 0.  0.
         25    1    4    4    0    0  0.22981804795E+02 -0.18164137606E+01 -0.33295723809E+02  0.13148222707E+03  0.12509000000E+03 0.  0.
         25    1    4    4    0    0 -0.58661230170E+02  0.94282202967E+01 -0.35448466958E+02  0.14294800863E+03  0.12509000000E+03 0.  0.
         25    1    3    3    0    0  0.35679425375E+02 -0.76118065362E+01  0.12951140797E+03  0.18371628640E+03  0.12509000000E+03 0.  0.
<mgrwt>
<rscale>  2 0.45409865E+03</rscale>
<asrwt>0</asrwt>
<pdfrwt beam="1">  1       21 0.38155422E-01 0.45409865E+03</pdfrwt>
<pdfrwt beam="2">  1       21 0.29219067E-01 0.45409865E+03</pdfrwt>
<totfact> 0.68809132E+04</totfact>
</mgrwt>
</event>
<event>
 6    0  0.4737014E-002  0.4484013E+03  0.7546771E-02  0.1028200E+00
         21   -1    0    0  502  501  0.00000000000E+00  0.00000000000E+00  0.42001833081E+02  0.42001833081E+02  0.00000000000E+00 0. -1.
         21   -1    0    0  501  502 -0.00000000000E+00 -0.00000000000E+00 -0.11967558379E+04  0.11967558379E+04  0.00000000000E+00 0. -1.
      99926    2    1    2    0    0  0.00000000000E+00 -0.71054273576E-14 -0.11547540048E+04  0.12387576709E+04  0.44840133336E+03 0.  0.
         25    1    3    3    0    0 -0.78326905719E+01  0.10129309199E+02 -0.63333831778E+03  0.64570030728E+03  0.12509000000E+03 0.  0.
         25    1    3    3    0    0 -0.19756231889E+02 -0.52855578585E+02 -0.34199709987E+03  0.36850175753E+03  0.12509000000E+03 0.  0.
         25    1    3    3    0    0  0.27588922461E+02  0.42726269386E+02 -0.17941858713E+03  0.22455560613E+03  0.12509000000E+03 0.  0.
<mgrwt>
<rscale>  2 0.44840133E+03</rscale>
<asrwt>0</asrwt>
<pdfrwt beam="1">  1       21 0.61767399E-02 0.44840133E+03</pdfrwt>
<pdfrwt beam="2">  1       21 0.17599351E+00 0.44840133E+03</pdfrwt>
<totfact> 0.32588676E+04</totfact>
</mgrwt>
</event>
<event>
 7    0  0.4737014E-002  0.4439624E+03  0.7546771E-02  0.1029538E+00
         21   -1    0    0  502  501  0.00000000000E+00  0.00000000000E+00  0.13573085009E+03  0.13573085009E+03  0.00000000000E+00 0.  1.
         21   -1    0    0  501  502 -0.00000000000E+00 -0.00000000000E+00 -0.36303945311E+03  0.36303945311E+03  0.00000000000E+00 0.  1.
      99926    2    1    2    0    0  0.00000000000E+00  0.00000000000E+00 -0.22730860302E+03  0.49877030320E+03  0.44396240196E+03 0.  0.
      99925    2    3    3    0    0  0.60918378959E+02 -0.14727724534E+02 -0.23537507682E+03  0.35862562487E+03  0.26321655963E+03 0.  0.
         25    1    4    4    0    0  0.45386141469E+02 -0.10814774561E+02 -0.17126407656E+03  0.21715375476E+03  0.12509000000E+03 0.  0.
         25    1    3    3    0    0 -0.60918378959E+02  0.14727724534E+02  0.80664737978E+01  0.14014467833E+03  0.12509000000E+03 0.  0.
         25    1    4    4    0    0  0.15532237490E+02 -0.39129499729E+01 -0.64111000255E+02  0.14147187011E+03  0.12509000000E+03 0.  0.
<mgrwt>
<rscale>  2 0.44396240E+03</rscale>
<asrwt>0</asrwt>
<pdfrwt beam="1">  1       21 0.19960420E-01 0.44396240E+03</pdfrwt>
<pdfrwt beam="2">  1       21 0.53388154E-01 0.44396240E+03</pdfrwt>
<totfact> 0.71411235E+04</totfact>
</mgrwt>
</event>
<event>
 7    0  0.4737014E-002  0.4764172E+03  0.7546771E-02  0.1020124E+00
         21   -1    0    0  502  501  0.00000000000E+00  0.00000000000E+00  0.92860666285E+02  0.92860666285E+02  0.00000000000E+00 0.  1.
         21   -1    0    0  501  502 -0.00000000000E+00 -0.00000000000E+00 -0.61105887147E+03  0.61105887147E+03  0.00000000000E+00 0.  1.
      99926    2    1    2    0    0  0.00000000000E+00  0.00000000000E+00 -0.51819820519E+03  0.70391953776E+03  0.47641718669E+03 0.  0.
      99925    2    3    3    0    0 -0.80373905176E+02 -0.83163389036E+01 -0.16550904676E+03  0.32107978447E+03  0.26300162986E+03 0.  0.
         25    1    3    3    0    0  0.80373905176E+02  0.83163389036E+01 -0.35268915842E+03  0.38283975328E+03  0.12509000000E+03 0.  0.
         25    1    4    4    0    0 -0.80475959120E+02  0.70714779843E+01 -0.95614261242E+02  0.17696321892E+03  0.12509000000E+03 0.  0.
         25    1    4    4    0    0  0.10205394419E+00 -0.15387816888E+02 -0.69894785521E+02  0.14411656555E+03  0.12509000000E+03 0.  0.
<mgrwt>
<rscale>  2 0.47641719E+03</rscale>
<asrwt>0</asrwt>
<pdfrwt beam="1">  1       21 0.13655980E-01 0.47641719E+03</pdfrwt>
<pdfrwt beam="2">  1       21 0.89861600E-01 0.47641719E+03</pdfrwt>
<totfact> 0.44668393E+04</totfact>
</mgrwt>
</event>
<event>
 7    0  0.4737014E-002  0.4563653E+03  0.7546771E-02  0.1025841E+00
         21   -1    0    0  502  501  0.00000000000E+00  0.00000000000E+00  0.39498338291E+03  0.39498338291E+03  0.00000000000E+00 0. -1.
         21   -1    0    0  501  502 -0.00000000000E+00 -0.00000000000E+00 -0.13182156890E+03  0.13182156890E+03  0.00000000000E+00 0. -1.
      99926    2    1    2    0    0 -0.26645352591E-14  0.00000000000E+00  0.26316181401E+03  0.52680495182E+03  0.45636533272E+03 0.  0.
      99925    2    3    3    0    0  0.32815297826E+01 -0.11316227704E+03  0.14535781089E+03  0.32103381528E+03  0.26290178391E+03 0.  0.
         25    1    3    3    0    0 -0.32815297826E+01  0.11316227704E+03  0.11780400312E+03  0.20577113654E+03  0.12509000000E+03 0.  0.
         25    1    4    4    0    0 -0.15155631480E+02 -0.80414725711E+02  0.44344700995E+02  0.15591722767E+03  0.12509000000E+03 0.  0.
         25    1    4    4    0    0  0.18437161263E+02 -0.32747551325E+02  0.10101310990E+03  0.16511658761E+03  0.12509000000E+03 0.  0.
<mgrwt>
<rscale>  2 0.45636533E+03</rscale>
<asrwt>0</asrwt>
<pdfrwt beam="1">  1       21 0.58085791E-01 0.45636533E+03</pdfrwt>
<pdfrwt beam="2">  1       21 0.19385525E-01 0.45636533E+03</pdfrwt>
<totfact> 0.62741529E+04</totfact>
</mgrwt>
</event>
<event>
 7    0  0.4737014E-002  0.4589679E+03  0.7546771E-02  0.1025081E+00
         21   -1    0    0  502  501  0.00000000000E+00  0.00000000000E+00  0.43669330812E+03  0.43669330812E+03  0.00000000000E+00 0. -1.
         21   -1    0    0  501  502 -0.00000000000E+00 -0.00000000000E+00 -0.12059463991E+03  0.12059463991E+03  0.00000000000E+00 0. -1.
      99926    2    1    2    0    0  0.19984014443E-14  0.00000000000E+00  0.31609866820E+03  0.55728794803E+03  0.45896785180E+03 0.  0.
      99925    2    3    3    0    0 -0.10819596514E+01  0.79026335825E+02  0.30265606046E+03  0.40871290237E+03  0.26305743334E+03 0.  0.
         25    1    4    4    0    0 -0.21103614027E+02  0.50638963801E+01  0.12293037653E+03  0.17672122438E+03  0.12509000000E+03 0.  0.
         25    1    4    4    0    0  0.20021654376E+02  0.73962439445E+02  0.17972568393E+03  0.23199167799E+03  0.12509000000E+03 0.  0.
         25    1    3    3    0    0  0.10819596514E+01 -0.79026335825E+02  0.13442607738E+02  0.14857504566E+03  0.12509000000E+03 0.  0.
<mgrwt>
<rscale>  2 0.45896785E+03</rscale>
<asrwt>0</asrwt>
<pdfrwt beam="1">  1       21 0.64219604E-01 0.45896785E+03</pdfrwt>
<pdfrwt beam="2">  1       21 0.17734506E-01 0.45896785E+03</pdfrwt>
<totfact> 0.59497862E+04</totfact>
</mgrwt>
</event>
<event>
 7    0  0.4737014E-002  0.4579007E+03  0.7546771E-02  0.1025392E+00
         21   -1    0    0  502  501  0.00000000000E+00  0.00000000000E+00  0.19675508522E+03  0.19675508522E+03  0.00000000000E+00 0. -1.
         21   -1    0    0  501  502 -0.00000000000E+00 -0.00000000000E+00 -0.26641373683E+03  0.26641373683E+03  0.00000000000E+00 0. -1.
      99926    2    1    2    0    0  0.71054273576E-14  0.00000000000E+00 -0.69658651610E+02  0.46316882205E+03  0.45790067698E+03 0.  0.
      99925    2    3    3    0    0  0.39534069188E+02  0.10812012475E+03 -0.29775651354E+02  0.28855191046E+03  0.26291198454E+03 0.  0.
         25    1    4    4    0    0 -0.14964104151E+02  0.54563537781E+02  0.68630061770E+01  0.13746167838E+03  0.12509000000E+03 0.  0.
         25    1    3    3    0    0 -0.39534069188E+02 -0.10812012475E+03 -0.39883000256E+02  0.17461691159E+03  0.12509000000E+03 0.  0.
         25    1    4    4    0    0  0.54498173339E+02  0.53556586974E+02 -0.36638657531E+02  0.15109023208E+03  0.12509000000E+03 0.  0.
<mgrwt>
<rscale>  2 0.45790068E+03</rscale>
<asrwt>0</asrwt>
<pdfrwt beam="1">  1       21 0.28934571E-01 0.45790068E+03</pdfrwt>
<pdfrwt beam="2">  1       21 0.39178491E-01 0.45790068E+03</pdfrwt>
<totfact> 0.66400921E+04</totfact>
</mgrwt>
</event>
<event>
 7    0  0.4737014E-002  0.4516327E+03  0.7546771E-02  0.1027236E+00
         21   -1    0    0  502  501  0.00000000000E+00  0.00000000000E+00  0.15127991544E+03  0.15127991544E+03  0.00000000000E+00 0. -1.
         21   -1    0    0  501  502 -0.00000000000E+00 -0.00000000000E+00 -0.33707731517E+03  0.33707731517E+03  0.00000000000E+00 0. -1.
      99926    2    1    2    0    0  0.00000000000E+00  0.00000000000E+00 -0.18579739973E+03  0.48835723061E+03  0.45163271687E+03 0.  0.
      99925    2    3    3    0    0 -0.95662832393E+02  0.53995885795E+02 -0.12469069218E+03  0.31102006307E+03  0.26290450307E+03 0.  0.
         25    1    3    3    0    0  0.95662832393E+02 -0.53995885795E+02 -0.61106707547E+02  0.17733716754E+03  0.12509000000E+03 0.  0.
         25    1    4    4    0    0 -0.88935699393E+01  0.27296098150E+02 -0.75088785066E+02  0.14869433850E+03  0.12509000000E+03 0.  0.
         25    1    4    4    0    0 -0.86769262454E+02  0.26699787646E+02 -0.49601907114E+02  0.16232572457E+03  0.12509000000E+03 0.  0.
<mgrwt>
<rscale>  2 0.45163272E+03</rscale>
<asrwt>0</asrwt>
<pdfrwt beam="1">  1       21 0.22247047E-01 0.45163272E+03</pdfrwt>
<pdfrwt beam="2">  1       21 0.49570192E-01 0.45163272E+03</pdfrwt>
<totfact> 0.67893445E+04</totfact>
</mgrwt>
</event>
<event>
 7    0  0.4737014E-002  0.4629716E+03  0.7546771E-02  0.1023923E+00
         21   -1    0    0  502  501  0.00000000000E+00  0.00000000000E+00  0.79359912025E+03  0.79359912025E+03  0.00000000000E+00 0.  1.
         21   -1    0    0  501  502 -0.00000000000E+00 -0.00000000000E+00 -0.67522347772E+02  0.67522347772E+02  0.00000000000E+00 0.  1.
      99926    2    1    2    0    0 -0.14210854715E-13 -0.35527136788E-14  0.72607677248E+03  0.86112146802E+03  0.46297160081E+03 0.  0.
      99925    2    3    3    0    0  0.11193790012E+03 -0.19037597286E+02  0.37926978302E+03  0.47535584017E+03  0.26310659984E+03 0.  0.
         25    1    4    4    0    0  0.36830580785E+02  0.21993748305E+02  0.20977151084E+03  0.24797542520E+03  0.12509000000E+03 0.  0.
         25    1    3    3    0    0 -0.11193790012E+03  0.19037597286E+02  0.34680698946E+03  0.38576562785E+03  0.12509000000E+03 0.  0.
         25    1    4    4    0    0  0.75107319333E+02 -0.41031345591E+02  0.16949827218E+03  0.22738041497E+03  0.12509000000E+03 0.  0.
<mgrwt>
<rscale>  2 0.46297160E+03</rscale>
<asrwt>0</asrwt>
<pdfrwt beam="1">  1       21 0.11670575E+00 0.46297160E+03</pdfrwt>
<pdfrwt beam="2">  1       21 0.99297575E-02 0.46297160E+03</pdfrwt>
<totfact> 0.42242028E+04</totfact>
</mgrwt>
</event>
<event>
 7    0  0.4737014E-002  0.4538755E+03  0.7546771E-02  0.1026573E+00
         21   -1    0    0  502  501  0.00000000000E+00  0.00000000000E+00  0.80568269251E+03  0.80568269251E+03  0.00000000000E+00 0. -1.
         21   -1    0    0  501  502 -0.00000000000E+00 -0.00000000000E+00 -0.63921875947E+02  0.63921875947E+02  0.00000000000E+00 0. -1.
      99926    2    1    2    0    0 -0.14210854715E-13  0.00000000000E+00  0.74176081656E+03  0.86960456845E+03  0.45387552974E+03 0.  0.
      99925    2    3    3    0    0 -0.11170855911E+03  0.59273677564E+01  0.48264347659E+03  0.56089234025E+03  0.26294781990E+03 0.  0.
         25    1    3    3    0    0  0.11170855911E+03 -0.59273677564E+01  0.25911733997E+03  0.30871222820E+03  0.12509000000E+03 0.  0.
         25    1    4    4    0    0 -0.87239977819E+02 -0.23678180283E+02  0.24352097278E+03  0.28830789486E+03  0.12509000000E+03 0.  0.
         25    1    4    4    0    0 -0.24468581294E+02  0.29605548040E+02  0.23912250381E+03  0.27258444540E+03  0.12509000000E+03 0.  0.
<mgrwt>
<rscale>  2 0.45387553E+03</rscale>
<asrwt>0</asrwt>
<pdfrwt beam="1">  1       21 0.11848274E+00 0.45387553E+03</pdfrwt>
<pdfrwt beam="2">  1       21 0.94002763E-02 0.45387553E+03</pdfrwt>
<totfact> 0.44968775E+04</totfact>
</mgrwt>
</event>
<event>
 7    0  0.4737014E-002  0.4577799E+03  0.7546771E-02  0.1025427E+00
         21   -1    0    0  502  501  0.00000000000E+00  0.00000000000E+00  0.90999301951E+03  0.90999301951E+03  0.00000000000E+00 0.  1.
         21   -1    0    0  501  502 -0.00000000000E+00 -0.00000000000E+00 -0.57572542327E+02  0.57572542327E+02  0.00000000000E+00 0.  1.
      99926    2    1    2    0    0  0.71054273576E-14 -0.14210854715E-13  0.85242047719E+03  0.96756556184E+03  0.45777991058E+03 0.  0.
      99925    2    3    3    0    0  0.56110071892E+02 -0.89091495340E+02  0.43314967658E+03  0.51754206573E+03  0.26295534368E+03 0.  0.
         25    1    4    4    0    0  0.59512029119E+02 -0.73448200324E+02  0.22724895268E+03  0.27609040971E+03  0.12509000000E+03 0.  0.
         25    1    4    4    0    0 -0.34019572264E+01 -0.15643295016E+02  0.20590072391E+03  0.24145165603E+03  0.12509000000E+03 0.  0.
         25    1    3    3    0    0 -0.56110071892E+02  0.89091495340E+02  0.41927080060E+03  0.45002349611E+03  0.12509000000E+03 0.  0.
<mgrwt>
<rscale>  2 0.45777991E+03</rscale>
<asrwt>0</asrwt>
<pdfrwt beam="1">  1       21 0.13382249E+00 0.45777991E+03</pdfrwt>
<pdfrwt beam="2">  1       21 0.84665509E-02 0.45777991E+03</pdfrwt>
<totfact> 0.39570567E+04</totfact>
</mgrwt>
</event>
<event>
 7    0  0.4737014E-002  0.4573575E+03  0.7546771E-02  0.1025550E+00
         21   -1    0    0  502  501  0.00000000000E+00  0.00000000000E+00  0.40056908067E+03  0.40056908067E+03  0.00000000000E+00 0. -1.
         21   -1    0    0  501  502 -0.00000000000E+00 -0.00000000000E+00 -0.13054922159E+03  0.13054922159E+03  0.00000000000E+00 0. -1.
      99926    2    1    2    0    0  0.00000000000E+00  0.00000000000E+00  0.27001985908E+03  0.53111830226E+03  0.45735754798E+03 0.  0.
      99925    2    3    3    0    0 -0.80674225095E+02 -0.34186826357E+02  0.25663967211E+03  0.37780944017E+03  0.26305699400E+03 0.  0.
         25    1    4    4    0    0 -0.79151338789E+01 -0.24179683887E+02  0.86355298651E+02  0.15411700802E+03  0.12509000000E+03 0.  0.
         25    1    4    4    0    0 -0.72759091216E+02 -0.10007142470E+02  0.17028437346E+03  0.22369243215E+03  0.12509000000E+03 0.  0.
         25    1    3    3    0    0  0.80674225095E+02  0.34186826357E+02  0.13380186966E+02  0.15330886209E+03  0.12509000000E+03 0.  0.
<mgrwt>
<rscale>  2 0.45735755E+03</rscale>
<asrwt>0</asrwt>
<pdfrwt beam="1">  1       21 0.58907217E-01 0.45735755E+03</pdfrwt>
<pdfrwt beam="2">  1       21 0.19198415E-01 0.45735755E+03</pdfrwt>
<totfact> 0.61964890E+04</totfact>
</mgrwt>
</event>
<event>
 7    0  0.4737014E-002  0.4491537E+03  0.7546771E-02  0.1027975E+00
         21   -1    0    0  502  501  0.00000000000E+00  0.00000000000E+00  0.66917764403E+02  0.66917764403E+02  0.00000000000E+00 0.  1.
         21   -1    0    0  501  502 -0.00000000000E+00 -0.00000000000E+00 -0.75368253845E+03  0.75368253845E+03  0.00000000000E+00 0.  1.
      99926    2    1    2    0    0  0.00000000000E+00  0.27755575616E-16 -0.68676477405E+03  0.82060030286E+03  0.44915365096E+03 0.  0.
      99925    2    3    3    0    0 -0.10526275142E+03 -0.22735703695E+00 -0.48420061193E+03  0.56029270327E+03  0.26152893189E+03 0.  0.
         25    1    3    3    0    0  0.10526275142E+03  0.22735703695E+00 -0.20256416212E+03  0.26030759958E+03  0.12509000000E+03 0.  0.
         25    1    4    4    0    0 -0.21636073499E+02  0.23234489593E+02 -0.20437449295E+03  0.24171140365E+03  0.12509000000E+03 0.  0.
         25    1    4    4    0    0 -0.83626677919E+02 -0.23461846630E+02 -0.27982611898E+03  0.31858129963E+03  0.12509000000E+03 0.  0.
<mgrwt>
<rscale>  2 0.44915365E+03</rscale>
<asrwt>0</asrwt>
<pdfrwt beam="1">  1       21 0.98408485E-02 0.44915365E+03</pdfrwt>
<pdfrwt beam="2">  1       21 0.11083566E+00 0.44915365E+03</pdfrwt>
<totfact> 0.48993663E+04</totfact>
</mgrwt>
</event>
<event>
 7    0  0.4737014E-002  0.4600834E+03  0.7546771E-02  0.1024757E+00
         21   -1    0    0  502  501  0.00000000000E+00  0.00000000000E+00  0.48899528838E+03  0.48899528838E+03  0.00000000000E+00 0. -1.
         21   -1    0    0  501  502 -0.00000000000E+00 -0.00000000000E+00 -0.10822022802E+03  0.10822022802E+03  0.00000000000E+00 0. -1.
      99926    2    1    2    0    0  0.14210854715E-13  0.88817841970E-15  0.38077506037E+03  0.59721551640E+03  0.46008339074E+03 0.  0.
      99925    2    3    3    0    0  0.10757875488E+03  0.71973154680E+01  0.17650989628E+03  0.33454318209E+03  0.26294183263E+03 0.  0.
         25    1    4    4    0    0  0.71461232834E+02 -0.55370819410E+01  0.13443252687E+03  0.19712173765E+03  0.12509000000E+03 0.  0.
         25    1    3    3    0    0 -0.10757875488E+03 -0.71973154680E+01  0.20426516409E+03  0.26267233431E+03  0.12509000000E+03 0.  0.
         25    1    4    4    0    0  0.36117522043E+02  0.12734397409E+02  0.42077369415E+02  0.13742144444E+03  0.12509000000E+03 0.  0.
<mgrwt>
<rscale>  2 0.46008339E+03</rscale>
<asrwt>0</asrwt>
<pdfrwt beam="1">  1       21 0.71911071E-01 0.46008339E+03</pdfrwt>
<pdfrwt beam="2">  1       21 0.15914740E-01 0.46008339E+03</pdfrwt>
<totfact> 0.56544181E+04</totfact>
</mgrwt>
</event>
<event>
 7    0  0.4737014E-002  0.4529163E+03  0.7546771E-02  0.1026856E+00
         21   -1    0    0  502  501  0.00000000000E+00  0.00000000000E+00  0.55282375515E+03  0.55282375515E+03  0.00000000000E+00 0.  1.
         21   -1    0    0  501  502 -0.00000000000E+00 -0.00000000000E+00 -0.92766087198E+02  0.92766087198E+02  0.00000000000E+00 0.  1.
      99926    2    1    2    0    0  0.00000000000E+00  0.00000000000E+00  0.46005766795E+03  0.64558984235E+03  0.45291631313E+03 0.  0.
      99925    2    3    3    0    0  0.44748463209E+02 -0.69686594148E+02  0.39583898213E+03  0.48240223843E+03  0.26299196472E+03 0.  0.
         25    1    4    4    0    0 -0.25354386347E+01 -0.19678836404E+02  0.23777950212E+03  0.26940728420E+03  0.12509000000E+03 0.  0.
         25    1    4    4    0    0  0.47283901843E+02 -0.50007757744E+02  0.15805948001E+03  0.21299495423E+03  0.12509000000E+03 0.  0.
         25    1    3    3    0    0 -0.44748463209E+02  0.69686594148E+02  0.64218685827E+02  0.16318760392E+03  0.12509000000E+03 0.  0.
<mgrwt>
<rscale>  2 0.45291631E+03</rscale>
<asrwt>0</asrwt>
<pdfrwt beam="1">  1       21 0.81297610E-01 0.45291631E+03</pdfrwt>
<pdfrwt beam="2">  1       21 0.13642072E-01 0.45291631E+03</pdfrwt>
<totfact> 0.56885736E+04</totfact>
</mgrwt>
</event>
<event>
 7    0  0.4737014E-002  0.4599278E+03  0.7546771E-02  0.1024802E+00
         21   -1    0    0  502  501  0.00000000000E+00  0.00000000000E+00  0.16802673489E+03  0.16802673489E+03  0.00000000000E+00 0.  1.
         21   -1    0    0  501  502 -0.00000000000E+00 -0.00000000000E+00 -0.31473205013E+03  0.31473205013E+03  0.00000000000E+00 0.  1.
      99926    2    1    2    0    0  0.00000000000E+00  0.00000000000E+00 -0.14670531524E+03  0.48275878503E+03  0.45992781499E+03 0.  0.
      99925    2    3    3    0    0  0.65961916238E+02  0.37864073944E+02 -0.18590266586E+03  0.33120482472E+03  0.26334800598E+03 0.  0.
         25    1    4    4    0    0  0.10734376274E+01  0.41767901835E+02 -0.10570368800E+03  0.16901623487E+03  0.12509000000E+03 0.  0.
         25    1    4    4    0    0  0.64888478610E+02 -0.39038278912E+01 -0.80198977854E+02  0.16218858985E+03  0.12509000000E+03 0.  0.
         25    1    3    3    0    0 -0.65961916238E+02 -0.37864073944E+02  0.39197350617E+02  0.15155396031E+03  0.12509000000E+03 0.  0.
<mgrwt>
<rscale>  2 0.45992781E+03</rscale>
<asrwt>0</asrwt>
<pdfrwt beam="1">  1       21 0.24709814E-01 0.45992781E+03</pdfrwt>
<pdfrwt beam="2">  1       21 0.46284124E-01 0.45992781E+03</pdfrwt>
<totfact> 0.63961190E+04</totfact>
</mgrwt>
</event>
<event>
 7    0  0.4737014E-002  0.4604370E+03  0.7546771E-02  0.1024655E+00
         21   -1    0    0  502  501  0.00000000000E+00  0.00000000000E+00  0.92393860314E+02  0.92393860314E+02  0.00000000000E+00 0.  1.
         21   -1    0    0  501  502 -0.00000000000E+00 -0.00000000000E+00 -0.57363711410E+03  0.57363711410E+03  0.00000000000E+00 0.  1.
      99926    2    1    2    0    0  0.00000000000E+00  0.00000000000E+00 -0.48124325379E+03  0.66603097442E+03  0.46043695504E+03 0.  0.
      99925    2    3    3    0    0 -0.71846580657E+02  0.75259766774E+02 -0.22056611053E+03  0.35874276318E+03  0.26309883575E+03 0.  0.
         25    1    3    3    0    0  0.71846580657E+02 -0.75259766774E+02 -0.26067714326E+03  0.30728821123E+03  0.12509000000E+03 0.  0.
         25    1    4    4    0    0  0.40128755131E+01  0.21747775113E+02 -0.10430971494E+03  0.16436877326E+03  0.12509000000E+03 0.  0.
         25    1    4    4    0    0 -0.75859456170E+02  0.53511991661E+02 -0.11625639559E+03  0.19437398992E+03  0.12509000000E+03 0.  0.
<mgrwt>
<rscale>  2 0.46043696E+03</rscale>
<asrwt>0</asrwt>
<pdfrwt beam="1">  1       21 0.13587332E-01 0.46043696E+03</pdfrwt>
<pdfrwt beam="2">  1       21 0.84358401E-01 0.46043696E+03</pdfrwt>
<totfact> 0.52499260E+04</totfact>
</mgrwt>
</event>
<event>
 7    0  0.4737014E-002  0.4539529E+03  0.7546771E-02  0.1026550E+00
         21   -1    0    0  502  501  0.00000000000E+00  0.00000000000E+00  0.97915500649E+02  0.97915500649E+02  0.00000000000E+00 0. -1.
         21   -1    0    0  501  502 -0.00000000000E+00 -0.00000000000E+00 -0.52615059053E+03  0.52615059053E+03  0.00000000000E+00 0. -1.
      99926    2    1    2    0    0  0.00000000000E+00 -0.88817841970E-15 -0.42823508988E+03  0.62406609117E+03  0.45395285433E+03 0.  0.
      99925    2    3    3    0    0  0.16462320734E+02 -0.65128697267E+01 -0.42200994231E+03  0.49757622582E+03  0.26301384681E+03 0.  0.
         25    1    3    3    0    0 -0.16462320734E+02  0.65128697267E+01 -0.62251475661E+01  0.12648986536E+03  0.12509000000E+03 0.  0.
         25    1    4    4    0    0 -0.18708892390E+02 -0.26177256494E+02 -0.17162421478E+03  0.21479676583E+03  0.12509000000E+03 0.  0.
         25    1    4    4    0    0  0.35171213125E+02  0.19664386767E+02 -0.25038572753E+03  0.28277945999E+03  0.12509000000E+03 0.  0.
<mgrwt>
<rscale>  2 0.45395285E+03</rscale>
<asrwt>0</asrwt>
<pdfrwt beam="1">  1       21 0.14399338E-01 0.45395285E+03</pdfrwt>
<pdfrwt beam="2">  1       21 0.77375086E-01 0.45395285E+03</pdfrwt>
<totfact> 0.57696400E+04</totfact>
</mgrwt>
</event>
<event>
 7    0  0.4737014E-002  0.4483714E+03  0.7546771E-02  0.1028209E+00
         21   -1    0    0  502  501  0.00000000000E+00  0.00000000000E+00  0.12005561132E+04  0.12005561132E+04  0.00000000000E+00 0. -1.
         21   -1    0    0  501  502 -0.00000000000E+00 -0.00000000000E+00 -0.41863291321E+02  0.41863291321E+02  0.00000000000E+00 0. -1.
      99926    2    1    2    0    0  0.00000000000E+00  0.00000000000E+00  0.11586928219E+04  0.12424194045E+04  0.44837140994E+03 0.  0.
      99925    2    3    3    0    0 -0.32700820563E+02  0.99117575634E+02  0.67029009196E+03  0.72756178133E+03  0.26298992530E+03 0.  0.
         25    1    4    4    0    0 -0.16845010532E+02  0.14234179109E+02  0.24582217970E+03  0.27669914775E+03  0.12509000000E+03 0.  0.
         25    1    4    4    0    0 -0.15855810032E+02  0.84883396526E+02  0.42446791226E+03  0.45086263358E+03  0.12509000000E+03 0.  0.
         25    1    3    3    0    0  0.32700820563E+02 -0.99117575634E+02  0.48840272991E+03  0.51485762318E+03  0.12509000000E+03 0.  0.
<mgrwt>
<rscale>  2 0.44837141E+03</rscale>
<asrwt>0</asrwt>
<pdfrwt beam="1">  1       21 0.17655235E+00 0.44837141E+03</pdfrwt>
<pdfrwt beam="2">  1       21 0.61563671E-02 0.44837141E+03</pdfrwt>
<totfact> 0.32477730E+04</totfact>
</mgrwt>
</event>
<event>
 7    0  0.4737014E-002  0.4587253E+03  0.7546771E-02  0.1025152E+00
         21   -1    0    0  502  501  0.00000000000E+00  0.00000000000E+00  0.47455517611E+03  0.47455517611E+03  0.00000000000E+00 0.  1.
         21   -1    0    0  501  502 -0.00000000000E+00 -0.00000000000E+00 -0.11085585230E+03  0.11085585230E+03  0.00000000000E+00 0.  1.
      99926    2    1    2    0    0 -0.44408920985E-15  0.00000000000E+00  0.36369932380E+03  0.58541102841E+03  0.45872527078E+03 0.  0.
      99925    2    3    3    0    0 -0.25394735375E+01  0.81691222481E+02  0.33432823221E+03  0.43312815387E+03  0.26295384779E+03 0.  0.
         25    1    4    4    0    0  0.21867145041E+02  0.58921747125E+02  0.12883978390E+03  0.19025546597E+03  0.12509000000E+03 0.  0.
         25    1    3    3    0    0  0.25394735375E+01 -0.81691222481E+02  0.29371091594E+02  0.15228287454E+03  0.12509000000E+03 0.  0.
         25    1    4    4    0    0 -0.24406618578E+02  0.22769475356E+02  0.20548844831E+03  0.24287268790E+03  0.12509000000E+03 0.  0.
<mgrwt>
<rscale>  2 0.45872527E+03</rscale>
<asrwt>0</asrwt>
<pdfrwt beam="1">  1       21 0.69787525E-01 0.45872527E+03</pdfrwt>
<pdfrwt beam="2">  1       21 0.16302331E-01 0.45872527E+03</pdfrwt>
<totfact> 0.57862570E+04</totfact>
</mgrwt>
</event>
<event>
 7    0  0.4737014E-002  0.4549093E+03  0.7546771E-02  0.1026268E+00
         21   -1    0    0  502  501  0.00000000000E+00  0.00000000000E+00  0.27568139131E+03  0.27568139131E+03  0.00000000000E+00 0. -1.
         21   -1    0    0  501  502 -0.00000000000E+00 -0.00000000000E+00 -0.18766451556E+03  0.18766451556E+03  0.00000000000E+00 0. -1.
      99926    2    1    2    0    0  0.00000000000E+00  0.00000000000E+00  0.88016875746E+02  0.46334590687E+03  0.45490928656E+03 0.  0.
      99925    2    3    3    0    0  0.85015377488E+02  0.71378603186E+02  0.78342760163E+02  0.29582392021E+03  0.26277687170E+03 0.  0.
         25    1    4    4    0    0  0.55922282606E+02  0.47609034596E+02  0.79079723766E+02  0.16521208393E+03  0.12509000000E+03 0.  0.
         25    1    3    3    0    0 -0.85015377488E+02 -0.71378603186E+02  0.96741155833E+01  0.16752198666E+03  0.12509000000E+03 0.  0.
         25    1    4    4    0    0  0.29093094882E+02  0.23769568589E+02 -0.73696360326E+00  0.13061183628E+03  0.12509000000E+03 0.  0.
<mgrwt>
<rscale>  2 0.45490929E+03</rscale>
<asrwt>0</asrwt>
<pdfrwt beam="1">  1       21 0.40541381E-01 0.45490929E+03</pdfrwt>
<pdfrwt beam="2">  1       21 0.27597723E-01 0.45490929E+03</pdfrwt>
<totfact> 0.67982165E+04</totfact>
</mgrwt>
</event>
<event>
 7    0  0.4737014E-002  0.4525660E+03  0.7546771E-02  0.1026960E+00
         21   -1    0    0  502  501  0.00000000000E+00  0.00000000000E+00  0.26177212325E+03  0.26177212325E+03  0.00000000000E+00 0. -1.
         21   -1    0    0  501  502 -0.00000000000E+00 -0.00000000000E+00 -0.19560525625E+03  0.19560525625E+03  0.00000000000E+00 0. -1.
      99926    2    1    2    0    0  0.14210854715E-13  0.88817841970E-15  0.66166867005E+02  0.45737737950E+03  0.45256603163E+03 0.  0.
      99925    2    3    3    0    0 -0.10863150882E+03 -0.71334928837E+01  0.62671857836E+02  0.29151172718E+03  0.26305823288E+03 0.  0.
         25    1    4    4    0    0 -0.31159535385E+02  0.17959753591E+02  0.14048101566E+01  0.13016509127E+03  0.12509000000E+03 0.  0.
         25    1    3    3    0    0  0.10863150882E+03  0.71334928837E+01  0.34950091692E+01  0.16586565232E+03  0.12509000000E+03 0.  0.
         25    1    4    4    0    0 -0.77471973437E+02 -0.25093246474E+02  0.61267047679E+02  0.16134663591E+03  0.12509000000E+03 0.  0.
<mgrwt>
<rscale>  2 0.45256603E+03</rscale>
<asrwt>0</asrwt>
<pdfrwt beam="1">  1       21 0.38495901E-01 0.45256603E+03</pdfrwt>
<pdfrwt beam="2">  1       21 0.28765479E-01 0.45256603E+03</pdfrwt>
<totfact> 0.69715519E+04</totfact>
</mgrwt>
</event>
<event>
 7    0  0.4737014E-002  0.4490594E+03  0.7546771E-02  0.1028003E+00
         21   -1    0    0  502  501  0.00000000000E+00  0.00000000000E+00  0.10789403395E+04  0.10789403395E+04  0.00000000000E+00 0.  1.
         21   -1    0    0  501  502 -0.00000000000E+00 -0.00000000000E+00 -0.46725098309E+02  0.46725098309E+02  0.00000000000E+00 0.  1.
      99926    2    1    2    0    0  0.14210854715E-13  0.00000000000E+00  0.10322152412E+04  0.11256654378E+04  0.44905943229E+03 0.  0.
      99925    2    3    3    0    0  0.66111469195E+02 -0.84803394218E+02  0.64829277095E+03  0.70780623511E+03  0.26295210125E+03 0.  0.
         25    1    4    4    0    0 -0.20648486106E+01 -0.58617205201E+02  0.28570798613E+03  0.31735910541E+03  0.12509000000E+03 0.  0.
         25    1    3    3    0    0 -0.66111469195E+02  0.84803394218E+02  0.38392247021E+03  0.41785920268E+03  0.12509000000E+03 0.  0.
         25    1    4    4    0    0  0.68176317806E+02 -0.26186189017E+02  0.36258478482E+03  0.39044712970E+03  0.12509000000E+03 0.  0.
<mgrwt>
<rscale>  2 0.44905943E+03</rscale>
<asrwt>0</asrwt>
<pdfrwt beam="1">  1       21 0.15866768E+00 0.44905943E+03</pdfrwt>
<pdfrwt beam="2">  1       21 0.68713387E-02 0.44905943E+03</pdfrwt>
<totfact> 0.36255450E+04</totfact>
</mgrwt>
</event>
<event>
 7    0  0.4737014E-002  0.4601421E+03  0.7546771E-02  0.1024740E+00
         21   -1    0    0  502  501  0.00000000000E+00  0.00000000000E+00  0.30383869355E+03  0.30383869355E+03  0.00000000000E+00 0. -1.
         21   -1    0    0  501  502 -0.00000000000E+00 -0.00000000000E+00 -0.17421310426E+03  0.17421310426E+03  0.00000000000E+00 0. -1.
      99926    2    1    2    0    0  0.00000000000E+00  0.00000000000E+00  0.12962558929E+03  0.47805179782E+03  0.46014207371E+03 0.  0.
      99925    2    3    3    0    0  0.18566681815E+02  0.10578943620E+03  0.30493539758E+02  0.28566989163E+03  0.26294734174E+03 0.  0.
         25    1    3    3    0    0 -0.18566681815E+02 -0.10578943620E+03  0.99132049531E+02  0.19238190619E+03  0.12509000000E+03 0.  0.
         25    1    4    4    0    0 -0.18634809363E+01  0.14334554461E+02 -0.24147861131E+01  0.12594558867E+03  0.12509000000E+03 0.  0.
         25    1    4    4    0    0  0.20430162752E+02  0.91454881741E+02  0.32908325872E+02  0.15972430296E+03  0.12509000000E+03 0.  0.
<mgrwt>
<rscale>  2 0.46014207E+03</rscale>
<asrwt>0</asrwt>
<pdfrwt beam="1">  1       21 0.44682161E-01 0.46014207E+03</pdfrwt>
<pdfrwt beam="2">  1       21 0.25619574E-01 0.46014207E+03</pdfrwt>
<totfact> 0.64182861E+04</totfact>
</mgrwt>
</event>
<event>
 7    0  0.4737014E-002  0.4375433E+03  0.7546771E-02  0.1031503E+00
         21   -1    0    0  502  501  0.00000000000E+00  0.00000000000E+00  0.14068988343E+03  0.14068988343E+03  0.00000000000E+00 0.  1.
         21   -1    0    0  501  502 -0.00000000000E+00 -0.00000000000E+00 -0.34018823680E+03  0.34018823680E+03  0.00000000000E+00 0.  1.
      99926    2    1    2    0    0  0.00000000000E+00  0.00000000000E+00 -0.19949835337E+03  0.48087812022E+03  0.43754333901E+03 0.  0.
      99925    2    3    3    0    0 -0.38369648512E+02 -0.75451359552E+02 -0.17380514178E+03  0.32766980842E+03  0.26456405359E+03 0.  0.
         25    1    3    3    0    0  0.38369648512E+02  0.75451359552E+02 -0.25693211587E+02  0.15320831181E+03  0.12509000000E+03 0.  0.
         25    1    4    4    0    0 -0.39139747309E+02 -0.73641519830E+00 -0.96186935519E+02  0.16257889405E+03  0.12509000000E+03 0.  0.
         25    1    4    4    0    0  0.77009879716E+00 -0.74714944354E+02 -0.77618206263E+02  0.16509091436E+03  0.12509000000E+03 0.  0.
<mgrwt>
<rscale>  2 0.43754334E+03</rscale>
<asrwt>0</asrwt>
<pdfrwt beam="1">  1       21 0.20689689E-01 0.43754334E+03</pdfrwt>
<pdfrwt beam="2">  1       21 0.50027682E-01 0.43754334E+03</pdfrwt>
<totfact> 0.76730922E+04</totfact>
</mgrwt>
</event>
<event>
 7    0  0.4737014E-002  0.4608680E+03  0.7546771E-02  0.1024530E+00
         21   -1    0    0  502  501  0.00000000000E+00  0.00000000000E+00  0.28542809526E+02  0.28542809526E+02  0.00000000000E+00 0. -1.
         21   -1    0    0  501  502 -0.00000000000E+00 -0.00000000000E+00 -0.18603575167E+04  0.18603575167E+04  0.00000000000E+00 0. -1.
      99926    2    1    2    0    0  0.00000000000E+00  0.00000000000E+00 -0.18318147072E+04  0.18889003263E+04  0.46086800822E+03 0.  0.
      99925    2    3    3    0    0 -0.43952589799E+02  0.35123033867E+02 -0.72020988383E+03  0.76886539416E+03  0.26322283320E+03 0.  0.
         25    1    4    4    0    0 -0.94024601046E+01  0.78959054945E+01 -0.24308638449E+03  0.27365900315E+03  0.12509000000E+03 0.  0.
         25    1    4    4    0    0 -0.34550129694E+02  0.27227128372E+02 -0.47712349934E+03  0.49520639102E+03  0.12509000000E+03 0.  0.
         25    1    3    3    0    0  0.43952589799E+02 -0.35123033867E+02 -0.11116048234E+04  0.11200349321E+04  0.12509000000E+03 0.  0.
<mgrwt>
<rscale>  2 0.46086801E+03</rscale>
<asrwt>0</asrwt>
<pdfrwt beam="1">  1       21 0.41974721E-02 0.46086801E+03</pdfrwt>
<pdfrwt beam="2">  1       21 0.27358198E+00 0.46086801E+03</pdfrwt>
<totfact> 0.14918641E+04</totfact>
</mgrwt>
</event>
<event>
 7    0  0.4737014E-002  0.4348919E+03  0.7546771E-02  0.1032326E+00
         21   -1    0    0  502  501  0.00000000000E+00  0.00000000000E+00  0.12926819988E+03  0.12926819988E+03  0.00000000000E+00 0. -1.
         21   -1    0    0  501  502 -0.00000000000E+00 -0.00000000000E+00 -0.36577243358E+03  0.36577243358E+03  0.00000000000E+00 0. -1.
      99926    2    1    2    0    0  0.00000000000E+00  0.14210854715E-13 -0.23650423369E+03  0.49504063346E+03  0.43489191326E+03 0.  0.
      99925    2    3    3    0    0 -0.39096553147E+02  0.84299748693E+02 -0.15548673814E+03  0.31940939824E+03  0.26308031065E+03 0.  0.
         25    1    4    4    0    0  0.14962239147E+01  0.30633229293E+02 -0.35829347554E+02  0.13368576465E+03  0.12509000000E+03 0.  0.
         25    1    3    3    0    0  0.39096553147E+02 -0.84299748693E+02 -0.81017495550E+02  0.17563123521E+03  0.12509000000E+03 0.  0.
         25    1    4    4    0    0 -0.40592777061E+02  0.53666519400E+02 -0.11965739059E+03  0.18572363360E+03  0.12509000000E+03 0.  0.
<mgrwt>
<rscale>  2 0.43489191E+03</rscale>
<asrwt>0</asrwt>
<pdfrwt beam="1">  1       21 0.19010030E-01 0.43489191E+03</pdfrwt>
<pdfrwt beam="2">  1       21 0.53790063E-01 0.43489191E+03</pdfrwt>
<totfact> 0.77229265E+04</totfact>
</mgrwt>
</event>
<event>
 7    0  0.4737014E-002  0.4401575E+03  0.7546771E-02  0.1030699E+00
         21   -1    0    0  502  501  0.00000000000E+00  0.00000000000E+00  0.33165255524E+03  0.33165255524E+03  0.00000000000E+00 0. -1.
         21   -1    0    0  501  502 -0.00000000000E+00 -0.00000000000E+00 -0.14604034161E+03  0.14604034161E+03  0.00000000000E+00 0. -1.
      99926    2    1    2    0    0  0.14210854715E-13  0.00000000000E+00  0.18561221363E+03  0.47769289686E+03  0.44015748302E+03 0.  0.
      99925    2    3    3    0    0 -0.65679241770E+02  0.68686225486E+02  0.89720392760E+02  0.29364314874E+03  0.26295434881E+03 0.  0.
         25    1    4    4    0    0  0.20970092278E+01  0.43310195682E+02  0.22628440685E+02  0.13431204311E+03  0.12509000000E+03 0.  0.
         25    1    3    3    0    0  0.65679241770E+02 -0.68686225486E+02  0.95891820870E+02  0.18404974811E+03  0.12509000000E+03 0.  0.
         25    1    4    4    0    0 -0.67776250998E+02  0.25376029804E+02  0.67091952074E+02  0.15933110563E+03  0.12509000000E+03 0.  0.
<mgrwt>
<rscale>  2 0.44015748E+03</rscale>
<asrwt>0</asrwt>
<pdfrwt beam="1">  1       21 0.48772434E-01 0.44015748E+03</pdfrwt>
<pdfrwt beam="2">  1       21 0.21476521E-01 0.44015748E+03</pdfrwt>
<totfact> 0.75364419E+04</totfact>
</mgrwt>
</event>
<event>
 7    0  0.4737014E-002  0.4499169E+03  0.7546771E-02  0.1027747E+00
         21   -1    0    0  502  501  0.00000000000E+00  0.00000000000E+00  0.75874302659E+03  0.75874302659E+03  0.00000000000E+00 0.  1.
         21   -1    0    0  501  502 -0.00000000000E+00 -0.00000000000E+00 -0.66697562438E+02  0.66697562438E+02  0.00000000000E+00 0.  1.
      99926    2    1    2    0    0 -0.71054273576E-14  0.14210854715E-13  0.69204546415E+03  0.82544058903E+03  0.44991692740E+03 0.  0.
      99925    2    3    3    0    0  0.36199901377E+02 -0.96366082094E+02  0.37342369912E+03  0.46799941640E+03  0.26264298972E+03 0.  0.
         25    1    4    4    0    0  0.43077530189E+02 -0.16567851856E+02  0.18605882393E+03  0.22890076755E+03  0.12509000000E+03 0.  0.
         25    1    4    4    0    0 -0.68776288124E+01 -0.79798230239E+02  0.18736487519E+03  0.23909864885E+03  0.12509000000E+03 0.  0.
         25    1    3    3    0    0 -0.36199901377E+02  0.96366082094E+02  0.31862176504E+03  0.35744117263E+03  0.12509000000E+03 0.  0.
<mgrwt>
<rscale>  2 0.44991693E+03</rscale>
<asrwt>0</asrwt>
<pdfrwt beam="1">  1       21 0.11157985E+00 0.44991693E+03</pdfrwt>
<pdfrwt beam="2">  1       21 0.98084655E-02 0.44991693E+03</pdfrwt>
<totfact> 0.48462925E+04</totfact>
</mgrwt>
</event>
<event>
 7    0  0.4737014E-002  0.4735634E+03  0.7546771E-02  0.1020919E+00
         21   -1    0    0  502  501  0.00000000000E+00  0.00000000000E+00  0.21686271787E+03  0.21686271787E+03  0.00000000000E+00 0. -1.
         21   -1    0    0  501  502 -0.00000000000E+00 -0.00000000000E+00 -0.25853028267E+03  0.25853028267E+03  0.00000000000E+00 0. -1.
      99926    2    1    2    0    0  0.00000000000E+00  0.00000000000E+00 -0.41667564807E+02  0.47539300054E+03  0.47356342659E+03 0.  0.
      99925    2    3    3    0    0 -0.84980631003E+02 -0.64610384978E+02 -0.99873390017E+02  0.30094634485E+03  0.26305474516E+03 0.  0.
         25    1    3    3    0    0  0.84980631003E+02  0.64610384978E+02  0.58205825210E+02  0.17444665569E+03  0.12509000000E+03 0.  0.
         25    1    4    4    0    0 -0.25804418858E+02 -0.41429508135E+02 -0.10706279852E+02  0.13470116817E+03  0.12509000000E+03 0.  0.
         25    1    4    4    0    0 -0.59176212145E+02 -0.23180876842E+02 -0.89167110166E+02  0.16624517668E+03  0.12509000000E+03 0.  0.
<mgrwt>
<rscale>  2 0.47356343E+03</rscale>
<asrwt>0</asrwt>
<pdfrwt beam="1">  1       21 0.31891576E-01 0.47356343E+03</pdfrwt>
<pdfrwt beam="2">  1       21 0.38019159E-01 0.47356343E+03</pdfrwt>
<totfact> 0.57998759E+04</totfact>
</mgrwt>
</event>
<event>
 7    0  0.4737014E-002  0.4512859E+03  0.7546771E-02  0.1027339E+00
         21   -1    0    0  502  501  0.00000000000E+00  0.00000000000E+00  0.17356184760E+03  0.17356184760E+03  0.00000000000E+00 0. -1.
         21   -1    0    0  501  502 -0.00000000000E+00 -0.00000000000E+00 -0.29335211954E+03  0.29335211954E+03  0.00000000000E+00 0. -1.
      99926    2    1    2    0    0  0.00000000000E+00  0.00000000000E+00 -0.11979027194E+03  0.46691396715E+03  0.45128587776E+03 0.  0.
      99925    2    3    3    0    0 -0.53577387494E+02  0.43569292384E+02 -0.16376380882E+03  0.31741480415E+03  0.26299192598E+03 0.  0.
         25    1    4    4    0    0  0.20050369941E+01  0.34334802029E+02 -0.49448032997E+02  0.13883628802E+03  0.12509000000E+03 0.  0.
         25    1    4    4    0    0 -0.55582424489E+02  0.92344903548E+01 -0.11431577582E+03  0.17857851614E+03  0.12509000000E+03 0.  0.
         25    1    3    3    0    0  0.53577387494E+02 -0.43569292384E+02  0.43973536878E+02  0.14949916299E+03  0.12509000000E+03 0.  0.
<mgrwt>
<rscale>  2 0.45128588E+03</rscale>
<asrwt>0</asrwt>
<pdfrwt beam="1">  1       21 0.25523801E-01 0.45128588E+03</pdfrwt>
<pdfrwt beam="2">  1       21 0.43140018E-01 0.45128588E+03</pdfrwt>
<totfact> 0.69696947E+04</totfact>
</mgrwt>
</event>
<event>
 7    0  0.4737014E-002  0.4627261E+03  0.7546771E-02  0.1023994E+00
         21   -1    0    0  502  501  0.00000000000E+00  0.00000000000E+00  0.13083518466E+03  0.13083518466E+03  0.00000000000E+00 0.  1.
         21   -1    0    0  501  502 -0.00000000000E+00 -0.00000000000E+00 -0.40913208183E+03  0.40913208183E+03  0.00000000000E+00 0.  1.
      99926    2    1    2    0    0  0.00000000000E+00  0.71054273576E-14 -0.27829689716E+03  0.53996726649E+03  0.46272614570E+03 0.  0.
      99925    2    3    3    0    0 -0.10310406618E+03  0.52862629284E+02 -0.13618482201E+03  0.31800272869E+03  0.26297247702E+03 0.  0.
         25    1    4    4    0    0 -0.13349686589E+02  0.97765940200E+01 -0.45070221847E+02  0.13398742075E+03  0.12509000000E+03 0.  0.
         25    1    3    3    0    0  0.10310406618E+03 -0.52862629284E+02 -0.14211207516E+03  0.22196453781E+03  0.12509000000E+03 0.  0.
         25    1    4    4    0    0 -0.89754379593E+02  0.43086035264E+02 -0.91114600161E+02  0.18401530793E+03  0.12509000000E+03 0.  0.
<mgrwt>
<rscale>  2 0.46272615E+03</rscale>
<asrwt>0</asrwt>
<pdfrwt beam="1">  1       21 0.19240468E-01 0.46272615E+03</pdfrwt>
<pdfrwt beam="2">  1       21 0.60166483E-01 0.46272615E+03</pdfrwt>
<totfact> 0.58850028E+04</totfact>
</mgrwt>
</event>
<event>
 7    0  0.4737014E-002  0.4300928E+03  0.7546771E-02  0.1033831E+00
         21   -1    0    0  502  501  0.00000000000E+00  0.00000000000E+00  0.21279486897E+03  0.21279486897E+03  0.00000000000E+00 0. -1.
         21   -1    0    0  501  502 -0.00000000000E+00 -0.00000000000E+00 -0.21732178825E+03  0.21732178825E+03  0.00000000000E+00 0. -1.
      99926    2    1    2    0    0 -0.35527136788E-14 -0.14210854715E-13 -0.45269192818E+01  0.43011665722E+03  0.43009283396E+03 0.  0.
      99925    2    3    3    0    0 -0.16765832143E+02 -0.68747271986E+02 -0.55025974524E+02  0.27778496908E+03  0.26292461018E+03 0.  0.
         25    1    4    4    0    0 -0.36870766464E+02 -0.61785209017E+02 -0.41641422938E+02  0.15019447952E+03  0.12509000000E+03 0.  0.
         25    1    3    3    0    0  0.16765832143E+02  0.68747271986E+02  0.50499055243E+02  0.15233168815E+03  0.12509000000E+03 0.  0.
         25    1    4    4    0    0  0.20104934321E+02 -0.69620629687E+01 -0.13384551587E+02  0.12759048956E+03  0.12509000000E+03 0.  0.
<mgrwt>
<rscale>  2 0.43009283E+03</rscale>
<asrwt>0</asrwt>
<pdfrwt beam="1">  1       21 0.31293363E-01 0.43009283E+03</pdfrwt>
<pdfrwt beam="2">  1       21 0.31959086E-01 0.43009283E+03</pdfrwt>
<totfact> 0.86331645E+04</totfact>
</mgrwt>
</event>
<event>
 7    0  0.4737014E-002  0.4503320E+03  0.7546771E-02  0.1027623E+00
         21   -1    0    0  502  501  0.00000000000E+00  0.00000000000E+00  0.17295939572E+04  0.17295939572E+04  0.00000000000E+00 0. -1.
         21   -1    0    0  501  502 -0.00000000000E+00 -0.00000000000E+00 -0.29313074921E+02  0.29313074921E+02  0.00000000000E+00 0. -1.
      99926    2    1    2    0    0  0.00000000000E+00  0.17763568394E-14  0.17002808823E+04  0.17589070322E+04  0.45033195424E+03 0.  0.
      99925    2    3    3    0    0  0.68716202531E+02 -0.92470096386E+01  0.14019155423E+04  0.14280342350E+04  0.26288241649E+03 0.  0.
         25    1    4    4    0    0  0.34230762797E+02 -0.14369528320E+02  0.49675161106E+03  0.51360286181E+03  0.12509000000E+03 0.  0.
         25    1    4    4    0    0  0.34485439734E+02  0.51225186812E+01  0.90516393129E+03  0.91443137324E+03  0.12509000000E+03 0.  0.
         25    1    3    3    0    0 -0.68716202531E+02  0.92470096386E+01  0.29836533996E+03  0.33087279711E+03  0.12509000000E+03 0.  0.
<mgrwt>
<rscale>  2 0.45033195E+03</rscale>
<asrwt>0</asrwt>
<pdfrwt beam="1">  1       21 0.25435198E+00 0.45033195E+03</pdfrwt>
<pdfrwt beam="2">  1       21 0.43107475E-02 0.45033195E+03</pdfrwt>
<totfact> 0.18732316E+04</totfact>
</mgrwt>
</event>
<event>
 7    0  0.4737014E-002  0.4543845E+03  0.7546771E-02  0.1026423E+00
         21   -1    0    0  502  501  0.00000000000E+00  0.00000000000E+00  0.37580943333E+03  0.37580943333E+03  0.00000000000E+00 0. -1.
         21   -1    0    0  501  502 -0.00000000000E+00 -0.00000000000E+00 -0.13734703953E+03  0.13734703953E+03  0.00000000000E+00 0. -1.
      99926    2    1    2    0    0  0.71054273576E-14  0.00000000000E+00  0.23846239380E+03  0.51315647286E+03  0.45438447639E+03 0.  0.
      99925    2    3    3    0    0  0.50987628904E+02  0.10019062067E+03  0.15537301201E+03  0.32556848754E+03  0.26308965857E+03 0.  0.
         25    1    4    4    0    0  0.35452198179E+02  0.64315294806E+02  0.12394460063E+03  0.19079593189E+03  0.12509000000E+03 0.  0.
         25    1    4    4    0    0  0.15535430725E+02  0.35875325867E+02  0.31428411383E+02  0.13477255565E+03  0.12509000000E+03 0.  0.
         25    1    3    3    0    0 -0.50987628904E+02 -0.10019062067E+03  0.83089381782E+02  0.18758798532E+03  0.12509000000E+03 0.  0.
<mgrwt>
<rscale>  2 0.45438448E+03</rscale>
<asrwt>0</asrwt>
<pdfrwt beam="1">  1       21 0.55266093E-01 0.45438448E+03</pdfrwt>
<pdfrwt beam="2">  1       21 0.20198094E-01 0.45438448E+03</pdfrwt>
<totfact> 0.64671223E+04</totfact>
</mgrwt>
</event>
<event>
 7    0  0.4737014E-002  0.4548441E+03  0.7546771E-02  0.1026287E+00
         21   -1    0    0  502  501  0.00000000000E+00  0.00000000000E+00  0.89979695050E+02  0.89979695050E+02  0.00000000000E+00 0. -1.
         21   -1    0    0  501  502 -0.00000000000E+00 -0.00000000000E+00 -0.57480513672E+03  0.57480513672E+03  0.00000000000E+00 0. -1.
      99926    2    1    2    0    0  0.00000000000E+00  0.00000000000E+00 -0.48482544167E+03  0.66478483177E+03  0.45484410919E+03 0.  0.
      99925    2    3    3    0    0 -0.10525413771E+03  0.32416435853E+02 -0.34302731552E+03  0.44596189993E+03  0.26284029025E+03 0.  0.
         25    1    3    3    0    0  0.10525413771E+03 -0.32416435853E+02 -0.14179812616E+03  0.21882293184E+03  0.12509000000E+03 0.  0.
         25    1    4    4    0    0 -0.14257823396E+02  0.30139224652E+02 -0.13951672825E+03  0.19032625660E+03  0.12509000000E+03 0.  0.
         25    1    4    4    0    0 -0.90996314316E+02  0.22772112011E+01 -0.20351058727E+03  0.25563564333E+03  0.12509000000E+03 0.  0.
<mgrwt>
<rscale>  2 0.45484411E+03</rscale>
<asrwt>0</asrwt>
<pdfrwt beam="1">  1       21 0.13232308E-01 0.45484411E+03</pdfrwt>
<pdfrwt beam="2">  1       21 0.84530167E-01 0.45484411E+03</pdfrwt>
<totfact> 0.54924216E+04</totfact>
</mgrwt>
</event>
<event>
 7    0  0.4737014E-002  0.4592772E+03  0.7546771E-02  0.1024991E+00
         21   -1    0    0  502  501  0.00000000000E+00  0.00000000000E+00  0.13333912818E+03  0.13333912818E+03  0.00000000000E+00 0.  1.
         21   -1    0    0  501  502 -0.00000000000E+00 -0.00000000000E+00 -0.39548698974E+03  0.39548698974E+03  0.00000000000E+00 0.  1.
      99926    2    1    2    0    0  0.00000000000E+00  0.00000000000E+00 -0.26214786156E+03  0.52882611792E+03  0.45927721659E+03 0.  0.
      99925    2    3    3    0    0  0.19314694756E+01  0.15883697003E+02 -0.29796001841E+03  0.39773057611E+03  0.26297037134E+03 0.  0.
         25    1    4    4    0    0  0.28179259728E+02  0.73667983418E+00 -0.10474169511E+03  0.16556854825E+03  0.12509000000E+03 0.  0.
         25    1    4    4    0    0 -0.26247790252E+02  0.15147017169E+02 -0.19321832329E+03  0.23216202786E+03  0.12509000000E+03 0.  0.
         25    1    3    3    0    0 -0.19314694756E+01 -0.15883697003E+02  0.35812156845E+02  0.13109554181E+03  0.12509000000E+03 0.  0.
<mgrwt>
<rscale>  2 0.45927722E+03</rscale>
<asrwt>0</asrwt>
<pdfrwt beam="1">  1       21 0.19608695E-01 0.45927722E+03</pdfrwt>
<pdfrwt beam="2">  1       21 0.58159851E-01 0.45927722E+03</pdfrwt>
<totfact> 0.61185113E+04</totfact>
</mgrwt>
</event>
<event>
 6    0  0.4737014E-002  0.4514947E+03  0.7546771E-02  0.1027277E+00
         21   -1    0    0  502  501  0.00000000000E+00  0.00000000000E+00  0.28123401227E+03  0.28123401227E+03  0.00000000000E+00 0. -1.
         21   -1    0    0  501  502 -0.00000000000E+00 -0.00000000000E+00 -0.18120801388E+03  0.18120801388E+03  0.00000000000E+00 0. -1.
      99926    2    1    2    0    0 -0.26645352591E-14  0.00000000000E+00  0.10002599838E+03  0.46244202615E+03  0.45149465910E+03 0.  0.
         25    1    3    3    0    0 -0.33628069908E+02  0.26547815028E+02  0.86691178997E+01  0.13250771779E+03  0.12509000000E+03 0.  0.
         25    1    3    3    0    0  0.29213802033E+02  0.81120244455E+02  0.44607070181E+02  0.15833900056E+03  0.12509000000E+03 0.  0.
         25    1    3    3    0    0  0.44142678747E+01 -0.10766805948E+03  0.46749810302E+02  0.17159530779E+03  0.12509000000E+03 0.  0.
<mgrwt>
<rscale>  2 0.45149466E+03</rscale>
<asrwt>0</asrwt>
<pdfrwt beam="1">  1       21 0.41357943E-01 0.45149466E+03</pdfrwt>
<pdfrwt beam="2">  1       21 0.26648237E-01 0.45149466E+03</pdfrwt>
<totfact> 0.69926580E+04</totfact>
</mgrwt>
</event>
<event>
 7    0  0.4737014E-002  0.4491465E+03  0.7546771E-02  0.1027977E+00
         21   -1    0    0  502  501  0.00000000000E+00  0.00000000000E+00  0.25591127268E+03  0.25591127268E+03  0.00000000000E+00 0. -1.
         21   -1    0    0  501  502 -0.00000000000E+00 -0.00000000000E+00 -0.19707275974E+03  0.19707275974E+03  0.00000000000E+00 0. -1.
      99926    2    1    2    0    0  0.35527136788E-14  0.71054273576E-14  0.58838512941E+02  0.45298403242E+03  0.44914648282E+03 0.  0.
      99925    2    3    3    0    0 -0.28673424379E+02 -0.39204795958E+02  0.13411496223E+03  0.29912294830E+03  0.26292305683E+03 0.  0.
         25    1    4    4    0    0 -0.72663402722E+01 -0.32962947203E+02  0.10963276645E+03  0.16972391454E+03  0.12509000000E+03 0.  0.
         25    1    4    4    0    0 -0.21407084106E+02 -0.62418487548E+01  0.24482195778E+02  0.12939903375E+03  0.12509000000E+03 0.  0.
         25    1    3    3    0    0  0.28673424379E+02  0.39204795958E+02 -0.75276449286E+02  0.15386108413E+03  0.12509000000E+03 0.  0.
<mgrwt>
<rscale>  2 0.44914648E+03</rscale>
<asrwt>0</asrwt>
<pdfrwt beam="1">  1       21 0.37634011E-01 0.44914648E+03</pdfrwt>
<pdfrwt beam="2">  1       21 0.28981288E-01 0.44914648E+03</pdfrwt>
<totfact> 0.71997575E+04</totfact>
</mgrwt>
</event>
<event>
 7    0  0.4737014E-002  0.4581323E+03  0.7546771E-02  0.1025324E+00
         21   -1    0    0  502  501  0.00000000000E+00  0.00000000000E+00  0.14670295963E+03  0.14670295963E+03  0.00000000000E+00 0.  1.
         21   -1    0    0  501  502 -0.00000000000E+00 -0.00000000000E+00 -0.35767032340E+03  0.35767032340E+03  0.00000000000E+00 0.  1.
      99926    2    1    2    0    0  0.00000000000E+00 -0.88817841970E-15 -0.21096736377E+03  0.50437328303E+03  0.45813227354E+03 0.  0.
      99925    2    3    3    0    0 -0.81217776733E+02  0.65110711934E+01 -0.41240642352E+02  0.27833481425E+03  0.26292728450E+03 0.  0.
         25    1    4    4    0    0 -0.33679300485E+02  0.42972958481E+02 -0.23794578472E+02  0.13854479603E+03  0.12509000000E+03 0.  0.
         25    1    3    3    0    0  0.81217776733E+02 -0.65110711934E+01 -0.16972672142E+03  0.22603846878E+03  0.12509000000E+03 0.  0.
         25    1    4    4    0    0 -0.47538476248E+02 -0.36461887288E+02 -0.17446063880E+02  0.13979001822E+03  0.12509000000E+03 0.  0.
<mgrwt>
<rscale>  2 0.45813227E+03</rscale>
<asrwt>0</asrwt>
<pdfrwt beam="1">  1       21 0.21573965E-01 0.45813227E+03</pdfrwt>
<pdfrwt beam="2">  1       21 0.52598577E-01 0.45813227E+03</pdfrwt>
<totfact> 0.63374117E+04</totfact>
</mgrwt>
</event>
<event>
 7    0  0.4737014E-002  0.4557509E+03  0.7546771E-02  0.1026021E+00
         21   -1    0    0  502  501  0.00000000000E+00  0.00000000000E+00  0.36665385814E+03  0.36665385814E+03  0.00000000000E+00 0.  1.
         21   -1    0    0  501  502 -0.00000000000E+00 -0.00000000000E+00 -0.14162464067E+03  0.14162464067E+03  0.00000000000E+00 0.  1.
      99926    2    1    2    0    0  0.00000000000E+00  0.35527136788E-14  0.22502921747E+03  0.50827849881E+03  0.45575090087E+03 0.  0.
      99925    2    3    3    0    0  0.11028186856E+03  0.23358919795E+02  0.12189719952E+03  0.31081596846E+03  0.26275446587E+03 0.  0.
         25    1    4    4    0    0  0.53763679474E+02  0.60291486802E+01  0.10373127117E+03  0.17127337383E+03  0.12509000000E+03 0.  0.
         25    1    3    3    0    0 -0.11028186856E+03 -0.23358919795E+02  0.10313201795E+03  0.19746253035E+03  0.12509000000E+03 0.  0.
         25    1    4    4    0    0  0.56518189082E+02  0.17329771115E+02  0.18165928349E+02  0.13954259463E+03  0.12509000000E+03 0.  0.
<mgrwt>
<rscale>  2 0.45575090E+03</rscale>
<asrwt>0</asrwt>
<pdfrwt beam="1">  1       21 0.53919685E-01 0.45575090E+03</pdfrwt>
<pdfrwt beam="2">  1       21 0.20827153E-01 0.45575090E+03</pdfrwt>
<totfact> 0.64308780E+04</totfact>
</mgrwt>
</event>
<event>
 7    0  0.4737014E-002  0.4597543E+03  0.7546771E-02  0.1024853E+00
         21   -1    0    0  502  501  0.00000000000E+00  0.00000000000E+00  0.32243538554E+03  0.32243538554E+03  0.00000000000E+00 0. -1.
         21   -1    0    0  501  502 -0.00000000000E+00 -0.00000000000E+00 -0.16388866231E+03  0.16388866231E+03  0.00000000000E+00 0. -1.
      99926    2    1    2    0    0  0.00000000000E+00  0.00000000000E+00  0.15854672323E+03  0.48632404784E+03  0.45975429967E+03 0.  0.
      99925    2    3    3    0    0 -0.29690714980E+02 -0.11237641164E+03  0.11791302582E+03  0.31080025483E+03  0.26302722348E+03 0.  0.
         25    1    3    3    0    0  0.29690714980E+02  0.11237641164E+03  0.40633697412E+02  0.17552379302E+03  0.12509000000E+03 0.  0.
         25    1    4    4    0    0 -0.11123283583E+02 -0.92677529035E+02  0.40586971030E+02  0.16126891251E+03  0.12509000000E+03 0.  0.
         25    1    4    4    0    0 -0.18567431397E+02 -0.19698882605E+02  0.77326054788E+02  0.14953134231E+03  0.12509000000E+03 0.  0.
<mgrwt>
<rscale>  2 0.45975430E+03</rscale>
<asrwt>0</asrwt>
<pdfrwt beam="1">  1       21 0.47416968E-01 0.45975430E+03</pdfrwt>
<pdfrwt beam="2">  1       21 0.24101274E-01 0.45975430E+03</pdfrwt>
<totfact> 0.63800497E+04</totfact>
</mgrwt>
</event>
<event>
 7    0  0.4737014E-002  0.4635975E+03  0.7546771E-02  0.1023743E+00
         21   -1    0    0  502  501  0.00000000000E+00  0.00000000000E+00  0.22617885496E+03  0.22617885496E+03  0.00000000000E+00 0. -1.
         21   -1    0    0  501  502 -0.00000000000E+00 -0.00000000000E+00 -0.23755832242E+03  0.23755832242E+03  0.00000000000E+00 0. -1.
      99926    2    1    2    0    0  0.00000000000E+00 -0.14210854715E-13 -0.11379467456E+02  0.46373717739E+03  0.46359753818E+03 0.  0.
      99925    2    3    3    0    0  0.82740970029E+02  0.84075397217E+02 -0.31328299073E+02  0.29064701440E+03  0.26377923368E+03 0.  0.
         25    1    4    4    0    0  0.61085232787E+02  0.50667258786E+02  0.20419426475E+02  0.14954276263E+03  0.12509000000E+03 0.  0.
         25    1    3    3    0    0 -0.82740970029E+02 -0.84075397217E+02  0.19948831616E+02  0.17309016298E+03  0.12509000000E+03 0.  0.
         25    1    4    4    0    0  0.21655737242E+02  0.33408138431E+02 -0.51747725548E+02  0.14110425177E+03  0.12509000000E+03 0.  0.
<mgrwt>
<rscale>  2 0.46359754E+03</rscale>
<asrwt>0</asrwt>
<pdfrwt beam="1">  1       21 0.33261596E-01 0.46359754E+03</pdfrwt>
<pdfrwt beam="2">  1       21 0.34935047E-01 0.46359754E+03</pdfrwt>
<totfact> 0.63445132E+04</totfact>
</mgrwt>
</event>
<event>
 7    0  0.4737014E-002  0.4513490E+03  0.7546771E-02  0.1027321E+00
         21   -1    0    0  502  501  0.00000000000E+00  0.00000000000E+00  0.25432840195E+03  0.25432840195E+03  0.00000000000E+00 0.  1.
         21   -1    0    0  501  502 -0.00000000000E+00 -0.00000000000E+00 -0.20024886283E+03  0.20024886283E+03  0.00000000000E+00 0.  1.
      99926    2    1    2    0    0  0.14210854715E-13 -0.17763568394E-14  0.54079539118E+02  0.45457726477E+03  0.45134897042E+03 0.  0.
      99925    2    3    3    0    0 -0.10848527158E+03  0.15083390243E+02  0.25724372222E+02  0.28591165951E+03  0.26284438534E+03 0.  0.
         25    1    3    3    0    0  0.10848527158E+03 -0.15083390243E+02  0.28355166895E+02  0.16866560527E+03  0.12509000000E+03 0.  0.
         25    1    4    4    0    0 -0.69610826144E+02  0.83759265740E+01 -0.24470630815E+02  0.14547213869E+03  0.12509000000E+03 0.  0.
         25    1    4    4    0    0 -0.38874445438E+02  0.67074636686E+01  0.50195003037E+02  0.14043952082E+03  0.12509000000E+03 0.  0.
<mgrwt>
<rscale>  2 0.45134897E+03</rscale>
<asrwt>0</asrwt>
<pdfrwt beam="1">  1       21 0.37401236E-01 0.45134897E+03</pdfrwt>
<pdfrwt beam="2">  1       21 0.29448362E-01 0.45134897E+03</pdfrwt>
<totfact> 0.70611204E+04</totfact>
</mgrwt>
</event>
<event>
 7    0  0.4737014E-002  0.4527726E+03  0.7546771E-02  0.1026898E+00
         21   -1    0    0  502  501  0.00000000000E+00  0.00000000000E+00  0.10763801461E+04  0.10763801461E+04  0.00000000000E+00 0.  1.
         21   -1    0    0  501  502 -0.00000000000E+00 -0.00000000000E+00 -0.47613991096E+02  0.47613991096E+02  0.00000000000E+00 0.  1.
      99926    2    1    2    0    0  0.00000000000E+00  0.00000000000E+00  0.10287661550E+04  0.11239941372E+04  0.45277259057E+03 0.  0.
      99925    2    3    3    0    0 -0.77210504512E+02  0.17984006038E+02  0.84180971240E+03  0.88548814983E+03  0.26298438188E+03 0.  0.
         25    1    4    4    0    0  0.24660118426E+01  0.29534977301E+01  0.40968411904E+03  0.42837295649E+03  0.12509000000E+03 0.  0.
         25    1    3    3    0    0  0.77210504512E+02 -0.17984006038E+02  0.18695644261E+03  0.23850598738E+03  0.12509000000E+03 0.  0.
         25    1    4    4    0    0 -0.79676516355E+02  0.15030508308E+02  0.43212559336E+03  0.45711519334E+03  0.12509000000E+03 0.  0.
<mgrwt>
<rscale>  2 0.45277259E+03</rscale>
<asrwt>0</asrwt>
<pdfrwt beam="1">  1       21 0.15829118E+00 0.45277259E+03</pdfrwt>
<pdfrwt beam="2">  1       21 0.70020582E-02 0.45277259E+03</pdfrwt>
<totfact> 0.35271097E+04</totfact>
</mgrwt>
</event>
<event>
 7    0  0.4737014E-002  0.4551472E+03  0.7546771E-02  0.1026198E+00
         21   -1    0    0  502  501  0.00000000000E+00  0.00000000000E+00  0.70922717391E+03  0.70922717391E+03  0.00000000000E+00 0.  1.
         21   -1    0    0  501  502 -0.00000000000E+00 -0.00000000000E+00 -0.73022774097E+02  0.73022774097E+02  0.00000000000E+00 0.  1.
      99926    2    1    2    0    0  0.00000000000E+00  0.00000000000E+00  0.63620439982E+03  0.78224994801E+03  0.45514716611E+03 0.  0.
      99925    2    3    3    0    0  0.82079427641E+02  0.43523820148E+02  0.28870690616E+03  0.40141747623E+03  0.26296949861E+03 0.  0.
         25    1    4    4    0    0  0.69579389170E+02  0.49005294159E+02  0.13496393781E+03  0.20274511797E+03  0.12509000000E+03 0.  0.
         25    1    3    3    0    0 -0.82079427641E+02 -0.43523820148E+02  0.34749749366E+03  0.38083247178E+03  0.12509000000E+03 0.  0.
         25    1    4    4    0    0  0.12500038471E+02 -0.54814740111E+01  0.15374296835E+03  0.19867235826E+03  0.12509000000E+03 0.  0.
<mgrwt>
<rscale>  2 0.45514717E+03</rscale>
<asrwt>0</asrwt>
<pdfrwt beam="1">  1       21 0.10429811E+00 0.45514717E+03</pdfrwt>
<pdfrwt beam="2">  1       21 0.10738644E-01 0.45514717E+03</pdfrwt>
<totfact> 0.48579243E+04</totfact>
</mgrwt>
</event>
<event>
 7    0  0.4737014E-002  0.4582451E+03  0.7546771E-02  0.1025291E+00
         21   -1    0    0  502  501  0.00000000000E+00  0.00000000000E+00  0.58483264162E+02  0.58483264162E+02  0.00000000000E+00 0. -1.
         21   -1    0    0  501  502 -0.00000000000E+00 -0.00000000000E+00 -0.89764371315E+03  0.89764371315E+03  0.00000000000E+00 0. -1.
      99926    2    1    2    0    0 -0.14210854715E-13  0.00000000000E+00 -0.83916044899E+03  0.95612697731E+03  0.45824506282E+03 0.  0.
      99925    2    3    3    0    0  0.77772579928E+02  0.62974260410E+02 -0.40365947293E+03  0.49209794814E+03  0.26306860097E+03 0.  0.
         25    1    4    4    0    0 -0.33343860332E+01  0.24839816361E+02 -0.18314429806E+03  0.22319828991E+03  0.12509000000E+03 0.  0.
         25    1    4    4    0    0  0.81106965961E+02  0.38134444049E+02 -0.22051517487E+03  0.26889965823E+03  0.12509000000E+03 0.  0.
         25    1    3    3    0    0 -0.77772579928E+02 -0.62974260410E+02 -0.43550097606E+03  0.46402902917E+03  0.12509000000E+03 0.  0.
<mgrwt>
<rscale>  2 0.45824506E+03</rscale>
<asrwt>0</asrwt>
<pdfrwt beam="1">  1       21 0.86004798E-02 0.45824506E+03</pdfrwt>
<pdfrwt beam="2">  1       21 0.13200643E+00 0.45824506E+03</pdfrwt>
<totfact> 0.39872334E+04</totfact>
</mgrwt>
</event>
<event>
 7    0  0.4737014E-002  0.4349046E+03  0.7546771E-02  0.1032322E+00
         21   -1    0    0  502  501  0.00000000000E+00  0.00000000000E+00  0.91511246362E+03  0.91511246362E+03  0.00000000000E+00 0. -1.
         21   -1    0    0  501  502 -0.00000000000E+00 -0.00000000000E+00 -0.51671802334E+02  0.51671802334E+02  0.00000000000E+00 0. -1.
      99926    2    1    2    0    0  0.35527136788E-14  0.00000000000E+00  0.86344066129E+03  0.96678426596E+03  0.43490463476E+03 0.  0.
      99925    2    3    3    0    0 -0.64738163375E+01 -0.80519404623E+02  0.65896414996E+03  0.71383479155E+03  0.26229958801E+03 0.  0.
         25    1    4    4    0    0  0.24804663006E+02 -0.68452468871E+02  0.33362483209E+03  0.36366749716E+03  0.12509000000E+03 0.  0.
         25    1    4    4    0    0 -0.31278479344E+02 -0.12066935752E+02  0.32533931787E+03  0.35016729439E+03  0.12509000000E+03 0.  0.
         25    1    3    3    0    0  0.64738163375E+01  0.80519404623E+02  0.20447651133E+03  0.25294947441E+03  0.12509000000E+03 0.  0.
<mgrwt>
<rscale>  2 0.43490463E+03</rscale>
<asrwt>0</asrwt>
<pdfrwt beam="1">  1       21 0.13457535E+00 0.43490463E+03</pdfrwt>
<pdfrwt beam="2">  1       21 0.75987950E-02 0.43490463E+03</pdfrwt>
<totfact> 0.47504148E+04</totfact>
</mgrwt>
</event>
<event>
 7    0  0.4737014E-002  0.4575350E+03  0.7546771E-02  0.1025499E+00
         21   -1    0    0  502  501  0.00000000000E+00  0.00000000000E+00  0.33221411938E+03  0.33221411938E+03  0.00000000000E+00 0.  1.
         21   -1    0    0  501  502 -0.00000000000E+00 -0.00000000000E+00 -0.15753264988E+03  0.15753264988E+03  0.00000000000E+00 0.  1.
      99926    2    1    2    0    0  0.00000000000E+00  0.00000000000E+00  0.17468146949E+03  0.48974676926E+03  0.45753500655E+03 0.  0.
      99925    2    3    3    0    0 -0.76558237559E+02 -0.85369610733E+02  0.12335803915E+03  0.31245961017E+03  0.26318181547E+03 0.  0.
         25    1    3    3    0    0  0.76558237559E+02  0.85369610733E+02  0.51323430345E+02  0.17728715909E+03  0.12509000000E+03 0.  0.
         25    1    4    4    0    0 -0.35518284420E+02 -0.54988304294E+02  0.20525758659E+02  0.14266771536E+03  0.12509000000E+03 0.  0.
         25    1    4    4    0    0 -0.41039953139E+02 -0.30381306439E+02  0.10283228049E+03  0.16979189481E+03  0.12509000000E+03 0.  0.
<mgrwt>
<rscale>  2 0.45753501E+03</rscale>
<asrwt>0</asrwt>
<pdfrwt beam="1">  1       21 0.48855018E-01 0.45753501E+03</pdfrwt>
<pdfrwt beam="2">  1       21 0.23166566E-01 0.45753501E+03</pdfrwt>
<totfact> 0.64685564E+04</totfact>
</mgrwt>
</event>
<event>
 7    0  0.4737014E-002  0.4432553E+03  0.7546771E-02  0.1029753E+00
         21   -1    0    0  502  501  0.00000000000E+00  0.00000000000E+00  0.21564426425E+03  0.21564426425E+03  0.00000000000E+00 0. -1.
         21   -1    0    0  501  502 -0.00000000000E+00 -0.00000000000E+00 -0.22777700319E+03  0.22777700319E+03  0.00000000000E+00 0. -1.
      99926    2    1    2    0    0  0.71054273576E-14 -0.14210854715E-13 -0.12132738940E+02  0.44342126745E+03  0.44325525047E+03 0.  0.
      99925    2    3    3    0    0  0.39851952829E+02 -0.92037832198E+02  0.95898699231E+01  0.28162349078E+03  0.26298419012E+03 0.  0.
         25    1    3    3    0    0 -0.39851952829E+02  0.92037832198E+02 -0.21722608863E+02  0.16179777667E+03  0.12509000000E+03 0.  0.
         25    1    4    4    0    0  0.45881397043E+02 -0.70649664024E+02 -0.17176444512E+02  0.15178608621E+03  0.12509000000E+03 0.  0.
         25    1    4    4    0    0 -0.60294442138E+01 -0.21388168174E+02  0.26766314435E+02  0.12983740456E+03  0.12509000000E+03 0.  0.
<mgrwt>
<rscale>  2 0.44325525E+03</rscale>
<asrwt>0</asrwt>
<pdfrwt beam="1">  1       21 0.31712392E-01 0.44325525E+03</pdfrwt>
<pdfrwt beam="2">  1       21 0.33496618E-01 0.44325525E+03</pdfrwt>
<totfact> 0.76306419E+04</totfact>
</mgrwt>
</event>
<event>
 7    0  0.4737014E-002  0.4599210E+03  0.7546771E-02  0.1024804E+00
         21   -1    0    0  502  501  0.00000000000E+00  0.00000000000E+00  0.78818223208E+03  0.78818223208E+03  0.00000000000E+00 0.  1.
         21   -1    0    0  501  502 -0.00000000000E+00 -0.00000000000E+00 -0.67093410112E+02  0.67093410112E+02  0.00000000000E+00 0.  1.
      99926    2    1    2    0    0  0.00000000000E+00  0.00000000000E+00  0.72108882197E+03  0.85527564220E+03  0.45992100948E+03 0.  0.
      99925    2    3    3    0    0  0.90783982916E+02 -0.74105723446E+02  0.43014204545E+03  0.51759098950E+03  0.26295410881E+03 0.  0.
         25    1    4    4    0    0  0.62438931605E+02 -0.15379180085E+01  0.22751083826E+03  0.26703871442E+03  0.12509000000E+03 0.  0.
         25    1    3    3    0    0 -0.90783982916E+02  0.74105723446E+02  0.29094677652E+03  0.33768465270E+03  0.12509000000E+03 0.  0.
         25    1    4    4    0    0  0.28345051311E+02 -0.72567805437E+02  0.20263120719E+03  0.25055227508E+03  0.12509000000E+03 0.  0.
<mgrwt>
<rscale>  2 0.45992101E+03</rscale>
<asrwt>0</asrwt>
<pdfrwt beam="1">  1       21 0.11590915E+00 0.45992101E+03</pdfrwt>
<pdfrwt beam="2">  1       21 0.98666784E-02 0.45992101E+03</pdfrwt>
<totfact> 0.43500642E+04</totfact>
</mgrwt>
</event>
<event>
 7    0  0.4737014E-002  0.4359318E+03  0.7546771E-02  0.1032002E+00
         21   -1    0    0  502  501  0.00000000000E+00  0.00000000000E+00  0.91792173660E+02  0.91792173660E+02  0.00000000000E+00 0. -1.
         21   -1    0    0  501  502 -0.00000000000E+00 -0.00000000000E+00 -0.51757277650E+03  0.51757277650E+03  0.00000000000E+00 0. -1.
      99926    2    1    2    0    0  0.00000000000E+00  0.00000000000E+00 -0.42578060284E+03  0.60936495016E+03  0.43593178449E+03 0.  0.
      99925    2    3    3    0    0  0.78540065924E+02 -0.28094569711E+02 -0.33387759284E+03  0.43315054056E+03  0.26303478285E+03 0.  0.
         25    1    4    4    0    0  0.71160329401E+02 -0.16422874742E+02 -0.22014332146E+03  0.26352247224E+03  0.12509000000E+03 0.  0.
         25    1    3    3    0    0 -0.78540065924E+02  0.28094569711E+02 -0.91903010003E+02  0.17621440960E+03  0.12509000000E+03 0.  0.
         25    1    4    4    0    0  0.73797365239E+01 -0.11671694969E+02 -0.11373427138E+03  0.16962806832E+03  0.12509000000E+03 0.  0.
<mgrwt>
<rscale>  2 0.43593178E+03</rscale>
<asrwt>0</asrwt>
<pdfrwt beam="1">  1       21 0.13498849E-01 0.43593178E+03</pdfrwt>
<pdfrwt beam="2">  1       21 0.76113643E-01 0.43593178E+03</pdfrwt>
<totfact> 0.67746347E+04</totfact>
</mgrwt>
</event>
<event>
 7    0  0.4737014E-002  0.4557804E+03  0.7546771E-02  0.1026012E+00
         21   -1    0    0  502  501  0.00000000000E+00  0.00000000000E+00  0.47705749538E+03  0.47705749538E+03  0.00000000000E+00 0.  1.
         21   -1    0    0  501  502 -0.00000000000E+00 -0.00000000000E+00 -0.10886308539E+03  0.10886308539E+03  0.00000000000E+00 0.  1.
      99926    2    1    2    0    0  0.00000000000E+00 -0.88817841970E-15  0.36819440999E+03  0.58592058076E+03  0.45578043334E+03 0.  0.
      99925    2    3    3    0    0 -0.15160617541E+02 -0.58854173920E+01  0.37643137517E+03  0.45950919616E+03  0.26302782872E+03 0.  0.
         25    1    4    4    0    0 -0.30668918538E+02  0.18717906983E+02  0.14507490675E+03  0.19489786883E+03  0.12509000000E+03 0.  0.
         25    1    4    4    0    0  0.15508300997E+02 -0.24603324375E+02  0.23135646842E+03  0.26461132733E+03  0.12509000000E+03 0.  0.
         25    1    3    3    0    0  0.15160617541E+02  0.58854173920E+01 -0.82369651840E+01  0.12641138460E+03  0.12509000000E+03 0.  0.
<mgrwt>
<rscale>  2 0.45578043E+03</rscale>
<asrwt>0</asrwt>
<pdfrwt beam="1">  1       21 0.70155513E-01 0.45578043E+03</pdfrwt>
<pdfrwt beam="2">  1       21 0.16009277E-01 0.45578043E+03</pdfrwt>
<totfact> 0.59187402E+04</totfact>
</mgrwt>
</event>
<event>
 7    0  0.4737014E-002  0.4579594E+03  0.7546771E-02  0.1025375E+00
         21   -1    0    0  502  501  0.00000000000E+00  0.00000000000E+00  0.58534319000E+03  0.58534319000E+03  0.00000000000E+00 0.  1.
         21   -1    0    0  501  502 -0.00000000000E+00 -0.00000000000E+00 -0.89574303923E+02  0.89574303923E+02  0.00000000000E+00 0.  1.
      99926    2    1    2    0    0 -0.71054273576E-14  0.00000000000E+00  0.49576888608E+03  0.67491749392E+03  0.45795942528E+03 0.  0.
      99925    2    3    3    0    0  0.41543613189E+02 -0.53193832599E+02  0.17215413638E+03  0.32146386197E+03  0.26295724415E+03 0.  0.
         25    1    4    4    0    0  0.33050960412E+02  0.11805008706E+02  0.90484873233E+02  0.15832480728E+03  0.12509000000E+03 0.  0.
         25    1    4    4    0    0  0.84926527778E+01 -0.64998841305E+02  0.81669263151E+02  0.16313905469E+03  0.12509000000E+03 0.  0.
         25    1    3    3    0    0 -0.41543613189E+02  0.53193832599E+02  0.32361474969E+03  0.35345363195E+03  0.12509000000E+03 0.  0.
<mgrwt>
<rscale>  2 0.45795943E+03</rscale>
<asrwt>0</asrwt>
<pdfrwt beam="1">  1       21 0.86079879E-01 0.45795943E+03</pdfrwt>
<pdfrwt beam="2">  1       21 0.13172692E-01 0.45795943E+03</pdfrwt>
<totfact> 0.53038396E+04</totfact>
</mgrwt>
</event>
<event>
 7    0  0.4737014E-002  0.4509311E+03  0.7546771E-02  0.1027445E+00
         21   -1    0    0  502  501  0.00000000000E+00  0.00000000000E+00  0.58122067961E+02  0.58122067961E+02  0.00000000000E+00 0.  1.
         21   -1    0    0  501  502 -0.00000000000E+00 -0.00000000000E+00 -0.87461995698E+03  0.87461995698E+03  0.00000000000E+00 0.  1.
      99926    2    1    2    0    0  0.00000000000E+00  0.00000000000E+00 -0.81649788902E+03  0.93274202494E+03  0.45093112813E+03 0.  0.
      99925    2    3    3    0    0  0.68729114310E+02  0.69782434057E+02 -0.61608071106E+03  0.67699247445E+03  0.26300206969E+03 0.  0.
         25    1    4    4    0    0  0.12767255685E+02  0.37292214485E+02 -0.21435816306E+03  0.25129791533E+03  0.12509000000E+03 0.  0.
         25    1    3    3    0    0 -0.68729114310E+02 -0.69782434057E+02 -0.20041717795E+03  0.25574955049E+03  0.12509000000E+03 0.  0.
         25    1    4    4    0    0  0.55961858624E+02  0.32490219573E+02 -0.40172254800E+03  0.42569455912E+03  0.12509000000E+03 0.  0.
<mgrwt>
<rscale>  2 0.45093113E+03</rscale>
<asrwt>0</asrwt>
<pdfrwt beam="1">  1       21 0.85473634E-02 0.45093113E+03</pdfrwt>
<pdfrwt beam="2">  1       21 0.12862057E+00 0.45093113E+03</pdfrwt>
<totfact> 0.43206339E+04</totfact>
</mgrwt>
</event>
<event>
 7    0  0.4737014E-002  0.4330672E+03  0.7546771E-02  0.1032895E+00
         21   -1    0    0  502  501  0.00000000000E+00  0.00000000000E+00  0.17192975508E+03  0.17192975508E+03  0.00000000000E+00 0. -1.
         21   -1    0    0  501  502 -0.00000000000E+00 -0.00000000000E+00 -0.27270902354E+03  0.27270902354E+03  0.00000000000E+00 0. -1.
      99926    2    1    2    0    0  0.00000000000E+00 -0.71054273576E-14 -0.10077926847E+03  0.44463877862E+03  0.43306718012E+03 0.  0.
      99925    2    3    3    0    0  0.70855617948E+02  0.45156836721E+02 -0.29048428791E+02  0.27774815588E+03  0.26313602639E+03 0.  0.
         25    1    3    3    0    0 -0.70855617948E+02 -0.45156836721E+02 -0.71730839677E+02  0.16689062274E+03  0.12509000000E+03 0.  0.
         25    1    4    4    0    0  0.99074059698E+01  0.54353029467E+02 -0.12488929666E+02  0.13731675051E+03  0.12509000000E+03 0.  0.
         25    1    4    4    0    0  0.60948211978E+02 -0.91961927454E+01 -0.16559499125E+02  0.14043140538E+03  0.12509000000E+03 0.  0.
<mgrwt>
<rscale>  2 0.43306718E+03</rscale>
<asrwt>0</asrwt>
<pdfrwt beam="1">  1       21 0.25283788E-01 0.43306718E+03</pdfrwt>
<pdfrwt beam="2">  1       21 0.40104268E-01 0.43306718E+03</pdfrwt>
<totfact> 0.82875050E+04</totfact>
</mgrwt>
</event>
<event>
 7    0  0.4737014E-002  0.4424041E+03  0.7546771E-02  0.1030012E+00
         21   -1    0    0  502  501  0.00000000000E+00  0.00000000000E+00  0.15373779462E+03  0.15373779462E+03  0.00000000000E+00 0.  1.
         21   -1    0    0  501  502 -0.00000000000E+00 -0.00000000000E+00 -0.31827144395E+03  0.31827144395E+03  0.00000000000E+00 0.  1.
      99926    2    1    2    0    0  0.00000000000E+00  0.71054273576E-14 -0.16453364933E+03  0.47200923857E+03  0.44240411338E+03 0.  0.
      99925    2    3    3    0    0 -0.82816737107E+02 -0.57128689850E+02 -0.12077177812E+03  0.30562141263E+03  0.26209984037E+03 0.  0.
         25    1    4    4    0    0 -0.46385632937E+02  0.18803268911E+01 -0.31748078285E+02  0.13715178142E+03  0.12509000000E+03 0.  0.
         25    1    4    4    0    0 -0.36431104170E+02 -0.59009016742E+02 -0.89023699833E+02  0.16846963121E+03  0.12509000000E+03 0.  0.
         25    1    3    3    0    0  0.82816737107E+02  0.57128689850E+02 -0.43761871210E+02  0.16638782594E+03  0.12509000000E+03 0.  0.
<mgrwt>
<rscale>  2 0.44240411E+03</rscale>
<asrwt>0</asrwt>
<pdfrwt beam="1">  1       21 0.22608499E-01 0.44240411E+03</pdfrwt>
<pdfrwt beam="2">  1       21 0.46804624E-01 0.44240411E+03</pdfrwt>
<totfact> 0.74456516E+04</totfact>
</mgrwt>
</event>
<event>
 7    0  0.4737014E-002  0.4445435E+03  0.7546771E-02  0.1029362E+00
         21   -1    0    0  502  501  0.00000000000E+00  0.00000000000E+00  0.50664282303E+03  0.50664282303E+03  0.00000000000E+00 0.  1.
         21   -1    0    0  501  502 -0.00000000000E+00 -0.00000000000E+00 -0.97513936560E+02  0.97513936560E+02  0.00000000000E+00 0.  1.
      99926    2    1    2    0    0  0.11102230246E-14  0.00000000000E+00  0.40912888647E+03  0.60415675959E+03  0.44454352365E+03 0.  0.
      99925    2    3    3    0    0  0.11602313054E+01  0.92067718306E+02  0.19741142622E+03  0.34157419740E+03  0.26310425735E+03 0.  0.
         25    1    3    3    0    0 -0.11602313054E+01 -0.92067718306E+02  0.21171746026E+03  0.26258256219E+03  0.12509000000E+03 0.  0.
         25    1    4    4    0    0  0.27881267049E+02  0.26713188265E+02  0.64778846494E+02  0.14606425481E+03  0.12509000000E+03 0.  0.
         25    1    4    4    0    0 -0.26721035743E+02  0.65354530041E+02  0.13263257972E+03  0.19550994259E+03  0.12509000000E+03 0.  0.
<mgrwt>
<rscale>  2 0.44454352E+03</rscale>
<asrwt>0</asrwt>
<pdfrwt beam="1">  1       21 0.74506296E-01 0.44454352E+03</pdfrwt>
<pdfrwt beam="2">  1       21 0.14340285E-01 0.44454352E+03</pdfrwt>
<totfact> 0.63508932E+04</totfact>
</mgrwt>
</event>
<event>
 7    0  0.4737014E-002  0.4636667E+03  0.7546771E-02  0.1023723E+00
         21   -1    0    0  502  501  0.00000000000E+00  0.00000000000E+00  0.50656277300E+03  0.50656277300E+03  0.00000000000E+00 0.  1.
         21   -1    0    0  501  502 -0.00000000000E+00 -0.00000000000E+00 -0.10610077917E+03  0.10610077917E+03  0.00000000000E+00 0.  1.
      99926    2    1    2    0    0  0.00000000000E+00  0.71054273576E-14  0.40046199383E+03  0.61266355217E+03  0.46366671183E+03 0.  0.
      99925    2    3    3    0    0  0.30821890949E+02  0.59355343966E+02  0.11678644881E+03  0.29550055187E+03  0.26307500016E+03 0.  0.
         25    1    3    3    0    0 -0.30821890949E+02 -0.59355343966E+02  0.28367554502E+03  0.31716300030E+03  0.12509000000E+03 0.  0.
         25    1    4    4    0    0  0.18014201574E+02  0.64476549716E+02  0.37467530383E+02  0.14674147626E+03  0.12509000000E+03 0.  0.
         25    1    4    4    0    0  0.12807689375E+02 -0.51212057498E+01  0.79318918428E+02  0.14875907561E+03  0.12509000000E+03 0.  0.
<mgrwt>
<rscale>  2 0.46366671E+03</rscale>
<asrwt>0</asrwt>
<pdfrwt beam="1">  1       21 0.74494525E-01 0.46366671E+03</pdfrwt>
<pdfrwt beam="2">  1       21 0.15603056E-01 0.46366671E+03</pdfrwt>
<totfact> 0.54105440E+04</totfact>
</mgrwt>
</event>
<event>
 7    0  0.4737014E-002  0.4615028E+03  0.7546771E-02  0.1024346E+00
         21   -1    0    0  502  501  0.00000000000E+00  0.00000000000E+00  0.84509911311E+03  0.84509911311E+03  0.00000000000E+00 0.  1.
         21   -1    0    0  501  502 -0.00000000000E+00 -0.00000000000E+00 -0.63005874407E+02  0.63005874407E+02  0.00000000000E+00 0.  1.
      99926    2    1    2    0    0  0.00000000000E+00  0.00000000000E+00  0.78209323870E+03  0.90810498752E+03  0.46150279991E+03 0.  0.
      99925    2    3    3    0    0 -0.87911707760E+02  0.78097187826E+02  0.52305207412E+03  0.59733582535E+03  0.26343685561E+03 0.  0.
         25    1    4    4    0    0 -0.31087218706E+02  0.18456239164E+02  0.17250033337E+03  0.21612709466E+03  0.12509000000E+03 0.  0.
         25    1    3    3    0    0  0.87911707760E+02 -0.78097187826E+02  0.25904116458E+03  0.31076916217E+03  0.12509000000E+03 0.  0.
         25    1    4    4    0    0 -0.56824489055E+02  0.59640948661E+02  0.35055174074E+03  0.38120873069E+03  0.12509000000E+03 0.  0.
<mgrwt>
<rscale>  2 0.46150280E+03</rscale>
<asrwt>0</asrwt>
<pdfrwt beam="1">  1       21 0.12427927E+00 0.46150280E+03</pdfrwt>
<pdfrwt beam="2">  1       21 0.92655703E-02 0.46150280E+03</pdfrwt>
<totfact> 0.40769669E+04</totfact>
</mgrwt>
</event>
<event>
 7    0  0.4737014E-002  0.4501787E+03  0.7546771E-02  0.1027669E+00
         21   -1    0    0  502  501  0.00000000000E+00  0.00000000000E+00  0.17255421742E+03  0.17255421742E+03  0.00000000000E+00 0. -1.
         21   -1    0    0  501  502 -0.00000000000E+00 -0.00000000000E+00 -0.29361915149E+03  0.29361915149E+03  0.00000000000E+00 0. -1.
      99926    2    1    2    0    0  0.00000000000E+00 -0.14210854715E-13 -0.12106493407E+03  0.46617336891E+03  0.45017873297E+03 0.  0.
      99925    2    3    3    0    0  0.26338512301E+02 -0.70843565243E+02 -0.15719259492E+03  0.31562356338E+03  0.26305169434E+03 0.  0.
         25    1    4    4    0    0  0.39217337621E+02 -0.41562267405E+01 -0.81347647199E+02  0.15433801086E+03  0.12509000000E+03 0.  0.
         25    1    3    3    0    0 -0.26338512301E+02  0.70843565243E+02  0.36127660850E+02  0.15054980553E+03  0.12509000000E+03 0.  0.
         25    1    4    4    0    0 -0.12878825320E+02 -0.66687338502E+02 -0.75844947724E+02  0.16128555253E+03  0.12509000000E+03 0.  0.
<mgrwt>
<rscale>  2 0.45017873E+03</rscale>
<asrwt>0</asrwt>
<pdfrwt beam="1">  1       21 0.25375620E-01 0.45017873E+03</pdfrwt>
<pdfrwt beam="2">  1       21 0.43179287E-01 0.45017873E+03</pdfrwt>
<totfact> 0.70374730E+04</totfact>
</mgrwt>
</event>
<event>
 7    0  0.4737014E-002  0.4494163E+03  0.7546771E-02  0.1027896E+00
         21   -1    0    0  502  501  0.00000000000E+00  0.00000000000E+00  0.16380641091E+03  0.16380641091E+03  0.00000000000E+00 0.  1.
         21   -1    0    0  501  502 -0.00000000000E+00 -0.00000000000E+00 -0.30825266151E+03  0.30825266151E+03  0.00000000000E+00 0.  1.
      99926    2    1    2    0    0  0.00000000000E+00 -0.35527136788E-14 -0.14444625061E+03  0.47205907242E+03  0.44941634209E+03 0.  0.
      99925    2    3    3    0    0 -0.38521432564E+02 -0.15377986785E+02  0.13220592782E+02  0.26656764961E+03  0.26298886764E+03 0.  0.
         25    1    3    3    0    0  0.38521432564E+02  0.15377986785E+02 -0.15766684339E+03  0.20549142281E+03  0.12509000000E+03 0.  0.
         25    1    4    4    0    0 -0.10338380846E+02  0.30952822226E+02 -0.26802976706E+01  0.12930449110E+03  0.12509000000E+03 0.  0.
         25    1    4    4    0    0 -0.28183051718E+02 -0.46330809012E+02  0.15900890453E+02  0.13726315851E+03  0.12509000000E+03 0.  0.
<mgrwt>
<rscale>  2 0.44941634E+03</rscale>
<asrwt>0</asrwt>
<pdfrwt beam="1">  1       21 0.24089178E-01 0.44941634E+03</pdfrwt>
<pdfrwt beam="2">  1       21 0.45331274E-01 0.44941634E+03</pdfrwt>
<totfact> 0.70348815E+04</totfact>
</mgrwt>
</event>
<event>
 7    0  0.4737014E-002  0.4558234E+03  0.7546771E-02  0.1026000E+00
         21   -1    0    0  502  501  0.00000000000E+00  0.00000000000E+00  0.10592681393E+03  0.10592681393E+03  0.00000000000E+00 0.  1.
         21   -1    0    0  501  502 -0.00000000000E+00 -0.00000000000E+00 -0.49037385856E+03  0.49037385856E+03  0.00000000000E+00 0.  1.
      99926    2    1    2    0    0  0.00000000000E+00  0.00000000000E+00 -0.38444704463E+03  0.59630067249E+03  0.45582338892E+03 0.  0.
      99925    2    3    3    0    0  0.63458381069E+02  0.83461386436E+02 -0.30017500962E+03  0.41261057167E+03  0.26296326417E+03 0.  0.
         25    1    4    4    0    0  0.38738351848E+02  0.64133044077E+02 -0.10920664569E+03  0.18217383679E+03  0.12509000000E+03 0.  0.
         25    1    3    3    0    0 -0.63458381069E+02 -0.83461386436E+02 -0.84272035004E+02  0.18369010082E+03  0.12509000000E+03 0.  0.
         25    1    4    4    0    0  0.24720029221E+02  0.19328342359E+02 -0.19096836393E+03  0.23043673489E+03  0.12509000000E+03 0.  0.
<mgrwt>
<rscale>  2 0.45582339E+03</rscale>
<asrwt>0</asrwt>
<pdfrwt beam="1">  1       21 0.15577472E-01 0.45582339E+03</pdfrwt>
<pdfrwt beam="2">  1       21 0.72113804E-01 0.45582339E+03</pdfrwt>
<totfact> 0.58524825E+04</totfact>
</mgrwt>
</event>
<event>
 7    0  0.4737014E-002  0.4265459E+03  0.7546771E-02  0.1034957E+00
         21   -1    0    0  502  501  0.00000000000E+00  0.00000000000E+00  0.23540926403E+03  0.23540926403E+03  0.00000000000E+00 0.  1.
         21   -1    0    0  501  502 -0.00000000000E+00 -0.00000000000E+00 -0.19321821016E+03  0.19321821016E+03  0.00000000000E+00 0.  1.
      99926    2    1    2    0    0  0.35527136788E-14 -0.88817841970E-15  0.42191053869E+02  0.42862747419E+03  0.42654592555E+03 0.  0.
      99925    2    3    3    0    0 -0.25351540115E+02 -0.78708065609E+01 -0.52351353229E+02  0.26959783852E+03  0.26313053827E+03 0.  0.
         25    1    4    4    0    0  0.57446244076E+01  0.27837416714E+02 -0.43887157941E+02  0.13557843933E+03  0.12509000000E+03 0.  0.
         25    1    4    4    0    0 -0.31096164522E+02 -0.35708223275E+02 -0.84641952875E+01  0.13401939919E+03  0.12509000000E+03 0.  0.
         25    1    3    3    0    0  0.25351540115E+02  0.78708065609E+01  0.94542407098E+02  0.15902963567E+03  0.12509000000E+03 0.  0.
<mgrwt>
<rscale>  2 0.42654593E+03</rscale>
<asrwt>0</asrwt>
<pdfrwt beam="1">  1       21 0.34619009E-01 0.42654593E+03</pdfrwt>
<pdfrwt beam="2">  1       21 0.28414443E-01 0.42654593E+03</pdfrwt>
<totfact> 0.89095412E+04</totfact>
</mgrwt>
</event>
<event>
 7    0  0.4737014E-002  0.4470958E+03  0.7546771E-02  0.1028592E+00
         21   -1    0    0  502  501  0.00000000000E+00  0.00000000000E+00  0.54685288264E+03  0.54685288264E+03  0.00000000000E+00 0. -1.
         21   -1    0    0  501  502 -0.00000000000E+00 -0.00000000000E+00 -0.91384100355E+02  0.91384100355E+02  0.00000000000E+00 0. -1.
      99926    2    1    2    0    0  0.14210854715E-13 -0.71054273576E-14  0.45546878229E+03  0.63823698300E+03  0.44709577814E+03 0.  0.
      99925    2    3    3    0    0  0.70323591147E+02 -0.37864418003E+02  0.38719727322E+03  0.47487349665E+03  0.26306650833E+03 0.  0.
         25    1    4    4    0    0  0.17128482645E+01 -0.30753521853E+01  0.14398903461E+03  0.19076881776E+03  0.12509000000E+03 0.  0.
         25    1    3    3    0    0 -0.70323591147E+02  0.37864418003E+02  0.68271509068E+02  0.16336348635E+03  0.12509000000E+03 0.  0.
         25    1    4    4    0    0  0.68610742883E+02 -0.34789065818E+02  0.24320823861E+03  0.28410467889E+03  0.12509000000E+03 0.  0.
<mgrwt>
<rscale>  2 0.44709578E+03</rscale>
<asrwt>0</asrwt>
<pdfrwt beam="1">  1       21 0.80419540E-01 0.44709578E+03</pdfrwt>
<pdfrwt beam="2">  1       21 0.13438839E-01 0.44709578E+03</pdfrwt>
<totfact> 0.60042796E+04</totfact>
</mgrwt>
</event>
<event>
 7    0  0.4737014E-002  0.4565874E+03  0.7546771E-02  0.1025776E+00
         21   -1    0    0  502  501  0.00000000000E+00  0.00000000000E+00  0.64052548254E+03  0.64052548254E+03  0.00000000000E+00 0.  1.
         21   -1    0    0  501  502 -0.00000000000E+00 -0.00000000000E+00 -0.81367590134E+02  0.81367590134E+02  0.00000000000E+00 0.  1.
      99926    2    1    2    0    0  0.00000000000E+00  0.00000000000E+00  0.55915789240E+03  0.72189307267E+03  0.45658740646E+03 0.  0.
      99925    2    3    3    0    0 -0.50298852855E+02  0.26311753657E+02  0.19404114385E+03  0.33179048212E+03  0.26307921914E+03 0.  0.
         25    1    4    4    0    0 -0.29536425455E+02  0.29437124785E+02  0.14450054895E+03  0.19561917465E+03  0.12509000000E+03 0.  0.
         25    1    3    3    0    0  0.50298852855E+02 -0.26311753657E+02  0.36511674855E+03  0.39010259055E+03  0.12509000000E+03 0.  0.
         25    1    4    4    0    0 -0.20762427400E+02 -0.31253711279E+01  0.49540594906E+02  0.13617130748E+03  0.12509000000E+03 0.  0.
<mgrwt>
<rscale>  2 0.45658741E+03</rscale>
<asrwt>0</asrwt>
<pdfrwt beam="1">  1       21 0.94194921E-01 0.45658741E+03</pdfrwt>
<pdfrwt beam="2">  1       21 0.11965822E-01 0.45658741E+03</pdfrwt>
<totfact> 0.51089554E+04</totfact>
</mgrwt>
</event>
<event>
 7    0  0.4737014E-002  0.4585573E+03  0.7546771E-02  0.1025200E+00
         21   -1    0    0  502  501  0.00000000000E+00  0.00000000000E+00  0.11443669574E+03  0.11443669574E+03  0.00000000000E+00 0. -1.
         21   -1    0    0  501  502 -0.00000000000E+00 -0.00000000000E+00 -0.45936919057E+03  0.45936919057E+03  0.00000000000E+00 0. -1.
      99926    2    1    2    0    0  0.00000000000E+00  0.00000000000E+00 -0.34493249483E+03  0.57380588631E+03  0.45855726924E+03 0.  0.
      99925    2    3    3    0    0 -0.34409168898E+02 -0.69552548954E+02 -0.32502509801E+03  0.42526174971E+03  0.26302983378E+03 0.  0.
         25    1    4    4    0    0 -0.13493063127E+02 -0.22175786485E+02 -0.21802149481E+03  0.25269489223E+03  0.12509000000E+03 0.  0.
         25    1    4    4    0    0 -0.20916105771E+02 -0.47376762468E+02 -0.10700360320E+03  0.17256685748E+03  0.12509000000E+03 0.  0.
         25    1    3    3    0    0  0.34409168898E+02  0.69552548954E+02 -0.19907396818E+02  0.14854413660E+03  0.12509000000E+03 0.  0.
<mgrwt>
<rscale>  2 0.45855727E+03</rscale>
<asrwt>0</asrwt>
<pdfrwt beam="1">  1       21 0.16828926E-01 0.45855727E+03</pdfrwt>
<pdfrwt beam="2">  1       21 0.67554291E-01 0.45855727E+03</pdfrwt>
<totfact> 0.58652999E+04</totfact>
</mgrwt>
</event>
<event>
 7    0  0.4737014E-002  0.4518123E+03  0.7546771E-02  0.1027183E+00
         21   -1    0    0  502  501  0.00000000000E+00  0.00000000000E+00  0.40201363982E+03  0.40201363982E+03  0.00000000000E+00 0.  1.
         21   -1    0    0  501  502 -0.00000000000E+00 -0.00000000000E+00 -0.12694492359E+03  0.12694492359E+03  0.00000000000E+00 0.  1.
      99926    2    1    2    0    0  0.00000000000E+00  0.13322676296E-14  0.27506871623E+03  0.52895856340E+03  0.45181230965E+03 0.  0.
      99925    2    3    3    0    0 -0.59169060380E+01  0.31227781349E+01  0.44861921319E+02  0.26687567948E+03  0.26299291776E+03 0.  0.
         25    1    4    4    0    0  0.33172409240E+02 -0.16830882256E+02  0.21163242971E+02  0.13220846526E+03  0.12509000000E+03 0.  0.
         25    1    3    3    0    0  0.59169060380E+01 -0.31227781349E+01  0.23020679491E+03  0.26208288392E+03  0.12509000000E+03 0.  0.
         25    1    4    4    0    0 -0.39089315278E+02  0.19953660391E+02  0.23698678348E+02  0.13466721423E+03  0.12509000000E+03 0.  0.
<mgrwt>
<rscale>  2 0.45181231E+03</rscale>
<asrwt>0</asrwt>
<pdfrwt beam="1">  1       21 0.59119652E-01 0.45181231E+03</pdfrwt>
<pdfrwt beam="2">  1       21 0.18668371E-01 0.45181231E+03</pdfrwt>
<totfact> 0.64901003E+04</totfact>
</mgrwt>
</event>
<event>
 7    0  0.4737014E-002  0.4639252E+03  0.7546771E-02  0.1023649E+00
         21   -1    0    0  502  501  0.00000000000E+00  0.00000000000E+00  0.40438747311E+02  0.40438747311E+02  0.00000000000E+00 0. -1.
         21   -1    0    0  501  502 -0.00000000000E+00 -0.00000000000E+00 -0.13305716863E+04  0.13305716863E+04  0.00000000000E+00 0. -1.
      99926    2    1    2    0    0  0.00000000000E+00  0.14210854715E-13 -0.12901329390E+04  0.13710104336E+04  0.46392521898E+03 0.  0.
      99925    2    3    3    0    0 -0.25693047028E+02  0.77903158422E+02 -0.10693994241E+04  0.11043649247E+04  0.26320661798E+03 0.  0.
         25    1    4    4    0    0  0.20122235800E+02  0.13597927005E+02 -0.52244445992E+03  0.53775973241E+03  0.12509000000E+03 0.  0.
         25    1    3    3    0    0  0.25693047028E+02 -0.77903158422E+02 -0.22073351485E+03  0.26664550894E+03  0.12509000000E+03 0.  0.
         25    1    4    4    0    0 -0.45815282828E+02  0.64305231418E+02 -0.54695496423E+03  0.56660519228E+03  0.12509000000E+03 0.  0.
<mgrwt>
<rscale>  2 0.46392522E+03</rscale>
<asrwt>0</asrwt>
<pdfrwt beam="1">  1       21 0.59468737E-02 0.46392522E+03</pdfrwt>
<pdfrwt beam="2">  1       21 0.19567234E+00 0.46392522E+03</pdfrwt>
<totfact> 0.25312866E+04</totfact>
</mgrwt>
</event>
<event>
 7    0  0.4737014E-002  0.4658051E+03  0.7546771E-02  0.1023111E+00
         21   -1    0    0  502  501  0.00000000000E+00  0.00000000000E+00  0.46999983517E+02  0.46999983517E+02  0.00000000000E+00 0. -1.
         21   -1    0    0  501  502 -0.00000000000E+00 -0.00000000000E+00 -0.11541193789E+04  0.11541193789E+04  0.00000000000E+00 0. -1.
      99926    2    1    2    0    0  0.00000000000E+00  0.00000000000E+00 -0.11071193954E+04  0.12011193624E+04  0.46580507419E+03 0.  0.
      99925    2    3    3    0    0 -0.74301405447E+02  0.96973072289E+02 -0.65191675773E+03  0.71349099467E+03  0.26296285836E+03 0.  0.
         25    1    4    4    0    0 -0.15891342907E+02  0.67959748135E+02 -0.25832758473E+03  0.29538400647E+03  0.12509000000E+03 0.  0.
         25    1    3    3    0    0  0.74301405447E+02 -0.96973072289E+02 -0.45520263769E+03  0.48762836777E+03  0.12509000000E+03 0.  0.
         25    1    4    4    0    0 -0.58410062540E+02  0.29013324154E+02 -0.39358917299E+03  0.41810698820E+03  0.12509000000E+03 0.  0.
<mgrwt>
<rscale>  2 0.46580507E+03</rscale>
<asrwt>0</asrwt>
<pdfrwt beam="1">  1       21 0.69117621E-02 0.46580507E+03</pdfrwt>
<pdfrwt beam="2">  1       21 0.16972344E+00 0.46580507E+03</pdfrwt>
<totfact> 0.29553476E+04</totfact>
</mgrwt>
</event>
<event>
 7    0  0.4737014E-002  0.4512137E+03  0.7546771E-02  0.1027361E+00
         21   -1    0    0  502  501  0.00000000000E+00  0.00000000000E+00  0.19079930883E+03  0.19079930883E+03  0.00000000000E+00 0. -1.
         21   -1    0    0  501  502 -0.00000000000E+00 -0.00000000000E+00 -0.26676435416E+03  0.26676435416E+03  0.00000000000E+00 0. -1.
      99926    2    1    2    0    0  0.00000000000E+00  0.00000000000E+00 -0.75965045332E+02  0.45756366298E+03  0.45121371607E+03 0.  0.
      99925    2    3    3    0    0  0.86456284029E+02 -0.40512892765E+01  0.19916468507E+02  0.27775299926E+03  0.26317097273E+03 0.  0.
         25    1    4    4    0    0  0.72420704670E+00  0.41252907350E+01  0.79224660683E+01  0.12541058994E+03  0.12509000000E+03 0.  0.
         25    1    3    3    0    0 -0.86456284029E+02  0.40512892765E+01 -0.95881513839E+02  0.17981066372E+03  0.12509000000E+03 0.  0.
         25    1    4    4    0    0  0.85732076982E+02 -0.81765800115E+01  0.11994002438E+02  0.15234240932E+03  0.12509000000E+03 0.  0.
<mgrwt>
<rscale>  2 0.45121372E+03</rscale>
<asrwt>0</asrwt>
<pdfrwt beam="1">  1       21 0.28058722E-01 0.45121372E+03</pdfrwt>
<pdfrwt beam="2">  1       21 0.39230052E-01 0.45121372E+03</pdfrwt>
<totfact> 0.70461971E+04</totfact>
</mgrwt>
</event>
<event>
 6    0  0.4737014E-002  0.4538781E+03  0.7546771E-02  0.1026572E+00
         21   -1    0    0  502  501  0.00000000000E+00  0.00000000000E+00  0.21186032182E+03  0.21186032182E+03  0.00000000000E+00 0. -1.
         21   -1    0    0  501  502 -0.00000000000E+00 -0.00000000000E+00 -0.24309093088E+03  0.24309093088E+03  0.00000000000E+00 0. -1.
      99926    2    1    2    0    0  0.00000000000E+00 -0.35527136788E-14 -0.31230609059E+02  0.45495125271E+03  0.45387805785E+03 0.  0.
         25    1    3    3    0    0 -0.50764712280E+02  0.27542400618E+02  0.90475641352E+02  0.16483018420E+03  0.12509000000E+03 0.  0.
         25    1    3    3    0    0 -0.18415294344E+01 -0.13637041559E+02 -0.45176203891E+02  0.13370773213E+03  0.12509000000E+03 0.  0.
         25    1    3    3    0    0  0.52606241714E+02 -0.13905359059E+02 -0.76530046520E+02  0.15641333638E+03  0.12509000000E+03 0.  0.
<mgrwt>
<rscale>  2 0.45387806E+03</rscale>
<asrwt>0</asrwt>
<pdfrwt beam="1">  1       21 0.31155930E-01 0.45387806E+03</pdfrwt>
<pdfrwt beam="2">  1       21 0.35748666E-01 0.45387806E+03</pdfrwt>
<totfact> 0.69166489E+04</totfact>
</mgrwt>
</event>
<event>
 7    0  0.4737014E-002  0.4384346E+03  0.7546771E-02  0.1031228E+00
         21   -1    0    0  502  501  0.00000000000E+00  0.00000000000E+00  0.35067653104E+03  0.35067653104E+03  0.00000000000E+00 0.  1.
         21   -1    0    0  501  502 -0.00000000000E+00 -0.00000000000E+00 -0.13703861477E+03  0.13703861477E+03  0.00000000000E+00 0.  1.
      99926    2    1    2    0    0  0.00000000000E+00  0.00000000000E+00  0.21363791626E+03  0.48771514581E+03  0.43843460651E+03 0.  0.
      99925    2    3    3    0    0 -0.91189593929E+02  0.30057860663E+02  0.14902686112E+03  0.31730061129E+03  0.26315709294E+03 0.  0.
         25    1    3    3    0    0  0.91189593929E+02 -0.30057860663E+02  0.64611055146E+02  0.17041453452E+03  0.12509000000E+03 0.  0.
         25    1    4    4    0    0 -0.25720630199E+02  0.15856242384E+02  0.11212299570E+03  0.17068112228E+03  0.12509000000E+03 0.  0.
         25    1    4    4    0    0 -0.65468963730E+02  0.14201618278E+02  0.36903865424E+02  0.14661948901E+03  0.12509000000E+03 0.  0.
<mgrwt>
<rscale>  2 0.43843461E+03</rscale>
<asrwt>0</asrwt>
<pdfrwt beam="1">  1       21 0.51570078E-01 0.43843461E+03</pdfrwt>
<pdfrwt beam="2">  1       21 0.20152738E-01 0.43843461E+03</pdfrwt>
<totfact> 0.75606380E+04</totfact>
</mgrwt>
</event>
<event>
 7    0  0.4737014E-002  0.4670477E+03  0.7546771E-02  0.1022757E+00
         21   -1    0    0  502  501  0.00000000000E+00  0.00000000000E+00  0.30755968307E+03  0.30755968307E+03  0.00000000000E+00 0. -1.
         21   -1    0    0  501  502 -0.00000000000E+00 -0.00000000000E+00 -0.17730994405E+03  0.17730994405E+03  0.00000000000E+00 0. -1.
      99926    2    1    2    0    0  0.14210854715E-13  0.35527136788E-14  0.13024973902E+03  0.48486962711E+03  0.46704770718E+03 0.  0.
      99925    2    3    3    0    0  0.61738239638E+02  0.24957026550E+02 -0.27544854143E+02  0.27278213305E+03  0.26309106734E+03 0.  0.
         25    1    4    4    0    0 -0.72161647757E+01 -0.48468586812E+01 -0.93563872233E+01  0.12574026863E+03  0.12509000000E+03 0.  0.
         25    1    4    4    0    0  0.68954404414E+02  0.29803885231E+02 -0.18188466920E+02  0.14704186442E+03  0.12509000000E+03 0.  0.
         25    1    3    3    0    0 -0.61738239638E+02 -0.24957026550E+02  0.15779459316E+03  0.21208749407E+03  0.12509000000E+03 0.  0.
<mgrwt>
<rscale>  2 0.46704771E+03</rscale>
<asrwt>0</asrwt>
<pdfrwt beam="1">  1       21 0.45229365E-01 0.46704771E+03</pdfrwt>
<pdfrwt beam="2">  1       21 0.26074992E-01 0.46704771E+03</pdfrwt>
<totfact> 0.60365399E+04</totfact>
</mgrwt>
</event>
<event>
 7    0  0.4737014E-002  0.4500628E+03  0.7546771E-02  0.1027703E+00
         21   -1    0    0  502  501  0.00000000000E+00  0.00000000000E+00  0.64703299158E+03  0.64703299158E+03  0.00000000000E+00 0. -1.
         21   -1    0    0  501  502 -0.00000000000E+00 -0.00000000000E+00 -0.78263596237E+02  0.78263596237E+02  0.00000000000E+00 0. -1.
      99926    2    1    2    0    0  0.00000000000E+00  0.00000000000E+00  0.56876939535E+03  0.72529658782E+03  0.45006279031E+03 0.  0.
      99925    2    3    3    0    0  0.78533504418E+02 -0.31014910260E+02  0.46921297545E+03  0.54449718291E+03  0.26303408503E+03 0.  0.
         25    1    4    4    0    0  0.14967565617E+02 -0.33315986596E+02  0.17172869722E+03  0.21557420192E+03  0.12509000000E+03 0.  0.
         25    1    3    3    0    0 -0.78533504418E+02  0.31014910260E+02  0.99556419892E+02  0.18079940491E+03  0.12509000000E+03 0.  0.
         25    1    4    4    0    0  0.63565938801E+02  0.23010763362E+01  0.29748427823E+03  0.32892298099E+03  0.12509000000E+03 0.  0.
<mgrwt>
<rscale>  2 0.45006279E+03</rscale>
<asrwt>0</asrwt>
<pdfrwt beam="1">  1       21 0.95151908E-01 0.45006279E+03</pdfrwt>
<pdfrwt beam="2">  1       21 0.11509353E-01 0.45006279E+03</pdfrwt>
<totfact> 0.53602145E+04</totfact>
</mgrwt>
</event>
<event>
 7    0  0.4737014E-002  0.4578201E+03  0.7546771E-02  0.1025415E+00
         21   -1    0    0  502  501  0.00000000000E+00  0.00000000000E+00  0.15269623026E+03  0.15269623026E+03  0.00000000000E+00 0. -1.
         21   -1    0    0  501  502 -0.00000000000E+00 -0.00000000000E+00 -0.34316373151E+03  0.34316373151E+03  0.00000000000E+00 0. -1.
      99926    2    1    2    0    0  0.00000000000E+00  0.00000000000E+00 -0.19046750126E+03  0.49585996177E+03  0.45782008764E+03 0.  0.
      99925    2    3    3    0    0 -0.43911086489E+02  0.10633541703E+03 -0.10520158103E+03  0.30572004044E+03  0.26298662711E+03 0.  0.
         25    1    4    4    0    0 -0.17412207249E+02  0.11898846478E+02 -0.32667254424E+02  0.13099398887E+03  0.12509000000E+03 0.  0.
         25    1    4    4    0    0 -0.26498879240E+02  0.94436570556E+02 -0.72534326607E+02  0.17472605157E+03  0.12509000000E+03 0.  0.
         25    1    3    3    0    0  0.43911086489E+02 -0.10633541703E+03 -0.85265920225E+02  0.19013992133E+03  0.12509000000E+03 0.  0.
<mgrwt>
<rscale>  2 0.45782009E+03</rscale>
<asrwt>0</asrwt>
<pdfrwt beam="1">  1       21 0.22455328E-01 0.45782009E+03</pdfrwt>
<pdfrwt beam="2">  1       21 0.50465254E-01 0.45782009E+03</pdfrwt>
<totfact> 0.64115055E+04</totfact>
</mgrwt>
</event>
<event>
 7    0  0.4737014E-002  0.4552840E+03  0.7546771E-02  0.1026158E+00
         21   -1    0    0  502  501  0.00000000000E+00  0.00000000000E+00  0.81263953768E+03  0.81263953768E+03  0.00000000000E+00 0. -1.
         21   -1    0    0  501  502 -0.00000000000E+00 -0.00000000000E+00 -0.63768586307E+02  0.63768586307E+02  0.00000000000E+00 0. -1.
      99926    2    1    2    0    0  0.00000000000E+00  0.00000000000E+00  0.74887095138E+03  0.87640812399E+03  0.45528397510E+03 0.  0.
      99925    2    3    3    0    0  0.91531149619E+02  0.24333791539E+01  0.34719862573E+03  0.44585959249E+03  0.26431045727E+03 0.  0.
         25    1    4    4    0    0  0.89087425976E+02  0.68883463244E+01  0.17447020545E+03  0.23253253422E+03  0.12509000000E+03 0.  0.
         25    1    3    3    0    0 -0.91531149619E+02 -0.24333791539E+01  0.40167232565E+03  0.43054853150E+03  0.12509000000E+03 0.  0.
         25    1    4    4    0    0  0.24437236430E+01 -0.44549671705E+01  0.17272842028E+03  0.21332705827E+03  0.12509000000E+03 0.  0.
<mgrwt>
<rscale>  2 0.45528398E+03</rscale>
<asrwt>0</asrwt>
<pdfrwt beam="1">  1       21 0.11950581E+00 0.45528398E+03</pdfrwt>
<pdfrwt beam="2">  1       21 0.93777338E-02 0.45528398E+03</pdfrwt>
<totfact> 0.44171146E+04</totfact>
</mgrwt>
</event>
<event>
 7    0  0.4737014E-002  0.4457142E+03  0.7546771E-02  0.1029008E+00
         21   -1    0    0  502  501  0.00000000000E+00  0.00000000000E+00  0.11059713417E+03  0.11059713417E+03  0.00000000000E+00 0.  1.
         21   -1    0    0  501  502 -0.00000000000E+00 -0.00000000000E+00 -0.44906478707E+03  0.44906478707E+03  0.00000000000E+00 0.  1.
      99926    2    1    2    0    0  0.71054273576E-14  0.00000000000E+00 -0.33846765290E+03  0.55966192125E+03  0.44571416180E+03 0.  0.
      99925    2    3    3    0    0 -0.63386341328E+02  0.82758696636E+02 -0.21775608007E+03  0.35696603562E+03  0.26294526054E+03 0.  0.
         25    1    4    4    0    0 -0.10270765968E+02  0.62399615905E+01 -0.80749379296E+02  0.14937334471E+03  0.12509000000E+03 0.  0.
         25    1    3    3    0    0  0.63386341328E+02 -0.82758696636E+02 -0.12071157283E+03  0.20269588563E+03  0.12509000000E+03 0.  0.
         25    1    4    4    0    0 -0.53115575360E+02  0.76518735046E+02 -0.13700670078E+03  0.20759269090E+03  0.12509000000E+03 0.  0.
<mgrwt>
<rscale>  2 0.44571416E+03</rscale>
<asrwt>0</asrwt>
<pdfrwt beam="1">  1       21 0.16264285E-01 0.44571416E+03</pdfrwt>
<pdfrwt beam="2">  1       21 0.66038939E-01 0.44571416E+03</pdfrwt>
<totfact> 0.65944246E+04</totfact>
</mgrwt>
</event>
<event>
 7    0  0.4737014E-002  0.4571793E+03  0.7546771E-02  0.1025602E+00
         21   -1    0    0  502  501  0.00000000000E+00  0.00000000000E+00  0.83813985105E+03  0.83813985105E+03  0.00000000000E+00 0. -1.
         21   -1    0    0  501  502 -0.00000000000E+00 -0.00000000000E+00 -0.62344289814E+02  0.62344289814E+02  0.00000000000E+00 0. -1.
      99926    2    1    2    0    0  0.00000000000E+00  0.00000000000E+00  0.77579556123E+03  0.90048414086E+03  0.45717932490E+03 0.  0.
      99925    2    3    3    0    0 -0.58465573368E+02 -0.98171209027E+02  0.51668232327E+03  0.59089895430E+03  0.26295463765E+03 0.  0.
         25    1    4    4    0    0 -0.41223240267E+02 -0.77623749618E+02  0.22098706392E+03  0.26871470478E+03  0.12509000000E+03 0.  0.
         25    1    4    4    0    0 -0.17242333101E+02 -0.20547459409E+02  0.29569525935E+03  0.32218424952E+03  0.12509000000E+03 0.  0.
         25    1    3    3    0    0  0.58465573368E+02  0.98171209027E+02  0.25911323796E+03  0.30958518656E+03  0.12509000000E+03 0.  0.
<mgrwt>
<rscale>  2 0.45717932E+03</rscale>
<asrwt>0</asrwt>
<pdfrwt beam="1">  1       21 0.12325585E+00 0.45717932E+03</pdfrwt>
<pdfrwt beam="2">  1       21 0.91682784E-02 0.45717932E+03</pdfrwt>
<totfact> 0.42483224E+04</totfact>
</mgrwt>
</event>
<event>
 7    0  0.4737014E-002  0.4107465E+03  0.7546771E-02  0.1040121E+00
         21   -1    0    0  502  501  0.00000000000E+00  0.00000000000E+00  0.78283943902E+02  0.78283943902E+02  0.00000000000E+00 0. -1.
         21   -1    0    0  501  502 -0.00000000000E+00 -0.00000000000E+00 -0.53878453703E+03  0.53878453703E+03  0.00000000000E+00 0. -1.
      99926    2    1    2    0    0  0.35527136788E-14 -0.71054273576E-14 -0.46050059312E+03  0.61706848093E+03  0.41074653241E+03 0.  0.
      99925    2    3    3    0    0  0.25060529904E+02 -0.52317696646E+02 -0.34137398910E+03  0.43484930678E+03  0.26304476355E+03 0.  0.
         25    1    4    4    0    0  0.49260129881E+01  0.14226695130E+02 -0.16939176236E+03  0.21111073330E+03  0.12509000000E+03 0.  0.
         25    1    4    4    0    0  0.20134516916E+02 -0.66544391776E+02 -0.17198222674E+03  0.22373857348E+03  0.12509000000E+03 0.  0.
         25    1    3    3    0    0 -0.25060529904E+02  0.52317696646E+02 -0.11912660402E+03  0.18221917415E+03  0.12509000000E+03 0.  0.
<mgrwt>
<rscale>  2 0.41074653E+03</rscale>
<asrwt>0</asrwt>
<pdfrwt beam="1">  1       21 0.11512344E-01 0.41074653E+03</pdfrwt>
<pdfrwt beam="2">  1       21 0.79233022E-01 0.41074653E+03</pdfrwt>
<totfact> 0.83069202E+04</totfact>
</mgrwt>
</event>
<event>
 7    0  0.4737014E-002  0.4173901E+03  0.7546771E-02  0.1037919E+00
         21   -1    0    0  502  501  0.00000000000E+00  0.00000000000E+00  0.61586062672E+02  0.61586062672E+02  0.00000000000E+00 0. -1.
         21   -1    0    0  501  502 -0.00000000000E+00 -0.00000000000E+00 -0.70719940760E+03  0.70719940760E+03  0.00000000000E+00 0. -1.
      99926    2    1    2    0    0  0.17763568394E-14  0.00000000000E+00 -0.64561334492E+03  0.76878547027E+03  0.41739011506E+03 0.  0.
      99925    2    3    3    0    0  0.98537602384E+01  0.28353432074E+02 -0.30034936932E+03  0.40033501953E+03  0.26297788977E+03 0.  0.
         25    1    4    4    0    0 -0.89857256828E+00  0.24583313022E+02 -0.20978014473E+03  0.24547986462E+03  0.12509000000E+03 0.  0.
         25    1    4    4    0    0  0.10752332807E+02  0.37701190521E+01 -0.90569224593E+02  0.15485515491E+03  0.12509000000E+03 0.  0.
         25    1    3    3    0    0 -0.98537602384E+01 -0.28353432074E+02 -0.34526397560E+03  0.36845045074E+03  0.12509000000E+03 0.  0.
<mgrwt>
<rscale>  2 0.41739012E+03</rscale>
<asrwt>0</asrwt>
<pdfrwt beam="1">  1       21 0.90567741E-02 0.41739012E+03</pdfrwt>
<pdfrwt beam="2">  1       21 0.10399991E+00 0.41739012E+03</pdfrwt>
<totfact> 0.67014799E+04</totfact>
</mgrwt>
</event>
<event>
 7    0  0.4737014E-002  0.4582179E+03  0.7546771E-02  0.1025299E+00
         21   -1    0    0  502  501  0.00000000000E+00  0.00000000000E+00  0.14737079581E+03  0.14737079581E+03  0.00000000000E+00 0.  1.
         21   -1    0    0  501  502 -0.00000000000E+00 -0.00000000000E+00 -0.35618264577E+03  0.35618264577E+03  0.00000000000E+00 0.  1.
      99926    2    1    2    0    0 -0.14210854715E-13 -0.35527136788E-14 -0.20881184996E+03  0.50355344158E+03  0.45821793924E+03 0.  0.
      99925    2    3    3    0    0 -0.10127347470E+03 -0.21106663130E+02 -0.18890409242E+03  0.34001251454E+03  0.26310063855E+03 0.  0.
         25    1    4    4    0    0 -0.17072756944E+02 -0.30177307858E+02 -0.10670832741E+03  0.16803667510E+03  0.12509000000E+03 0.  0.
         25    1    4    4    0    0 -0.84200717758E+02  0.90706447278E+01 -0.82195765008E+02  0.17197583944E+03  0.12509000000E+03 0.  0.
         25    1    3    3    0    0  0.10127347470E+03  0.21106663130E+02 -0.19907757541E+02  0.16354092704E+03  0.12509000000E+03 0.  0.
<mgrwt>
<rscale>  2 0.45821794E+03</rscale>
<asrwt>0</asrwt>
<pdfrwt beam="1">  1       21 0.21672176E-01 0.45821794E+03</pdfrwt>
<pdfrwt beam="2">  1       21 0.52379800E-01 0.45821794E+03</pdfrwt>
<totfact> 0.63387076E+04</totfact>
</mgrwt>
</event>
<event>
 7    0  0.4737014E-002  0.4459354E+03  0.7546771E-02  0.1028941E+00
         21   -1    0    0  502  501  0.00000000000E+00  0.00000000000E+00  0.39927553387E+02  0.39927553387E+02  0.00000000000E+00 0.  1.
         21   -1    0    0  501  502 -0.00000000000E+00 -0.00000000000E+00 -0.12451198972E+04  0.12451198972E+04  0.00000000000E+00 0.  1.
      99926    2    1    2    0    0  0.00000000000E+00  0.00000000000E+00 -0.12051923438E+04  0.12850474506E+04  0.44593538173E+03 0.  0.
      99925    2    3    3    0    0 -0.79391790711E+02 -0.17550240172E+02 -0.57625221954E+03  0.63865418377E+03  0.26306173907E+03 0.  0.
         25    1    4    4    0    0 -0.26032794945E+02 -0.43217714131E+02 -0.24546025828E+03  0.28007806720E+03  0.12509000000E+03 0.  0.
         25    1    4    4    0    0 -0.53358995767E+02  0.25667473959E+02 -0.33079196126E+03  0.35857611658E+03  0.12509000000E+03 0.  0.
         25    1    3    3    0    0  0.79391790711E+02  0.17550240172E+02 -0.62894012431E+03  0.64639326685E+03  0.12509000000E+03 0.  0.
<mgrwt>
<rscale>  2 0.44593538E+03</rscale>
<asrwt>0</asrwt>
<pdfrwt beam="1">  1       21 0.58716983E-02 0.44593538E+03</pdfrwt>
<pdfrwt beam="2">  1       21 0.18310589E+00 0.44593538E+03</pdfrwt>
<totfact> 0.31731002E+04</totfact>
</mgrwt>
</event>
<event>
 7    0  0.4737014E-002  0.4549881E+03  0.7546771E-02  0.1026245E+00
         21   -1    0    0  502  501  0.00000000000E+00  0.00000000000E+00  0.10095197061E+04  0.10095197061E+04  0.00000000000E+00 0.  1.
         21   -1    0    0  501  502 -0.00000000000E+00 -0.00000000000E+00 -0.51265513212E+02  0.51265513212E+02  0.00000000000E+00 0.  1.
      99926    2    1    2    0    0  0.00000000000E+00  0.14210854715E-13  0.95825419288E+03  0.10607852193E+04  0.45498811339E+03 0.  0.
      99925    2    3    3    0    0 -0.32689115615E+02 -0.67304881491E+02  0.40481605789E+03  0.48847428746E+03  0.26293071982E+03 0.  0.
         25    1    3    3    0    0  0.32689115615E+02  0.67304881491E+02  0.55343813499E+03  0.57231093185E+03  0.12509000000E+03 0.  0.
         25    1    4    4    0    0 -0.47686489797E+02 -0.50093491719E+02  0.17630993719E+03  0.22697149881E+03  0.12509000000E+03 0.  0.
         25    1    4    4    0    0  0.14997374182E+02 -0.17211389773E+02  0.22850612070E+03  0.26150278864E+03  0.12509000000E+03 0.  0.
<mgrwt>
<rscale>  2 0.45498811E+03</rscale>
<asrwt>0</asrwt>
<pdfrwt beam="1">  1       21 0.14845877E+00 0.45498811E+03</pdfrwt>
<pdfrwt beam="2">  1       21 0.75390467E-02 0.45498811E+03</pdfrwt>
<totfact> 0.36887544E+04</totfact>
</mgrwt>
</event>
<event>
 7    0  0.4737014E-002  0.4532410E+03  0.7546771E-02  0.1026760E+00
         21   -1    0    0  502  501  0.00000000000E+00  0.00000000000E+00  0.77506952172E+03  0.77506952172E+03  0.00000000000E+00 0. -1.
         21   -1    0    0  501  502 -0.00000000000E+00 -0.00000000000E+00 -0.66260959948E+02  0.66260959948E+02  0.00000000000E+00 0. -1.
      99926    2    1    2    0    0  0.71054273576E-14  0.00000000000E+00  0.70880856177E+03  0.84133048166E+03  0.45324099786E+03 0.  0.
      99925    2    3    3    0    0  0.63885623516E+02  0.79908353619E+02  0.52446717019E+03  0.59618567830E+03  0.26439522032E+03 0.  0.
         25    1    4    4    0    0 -0.24398639554E+01  0.65343320339E+02  0.25796826197E+03  0.29405923678E+03  0.12509000000E+03 0.  0.
         25    1    3    3    0    0 -0.63885623516E+02 -0.79908353619E+02  0.18434139158E+03  0.24514480337E+03  0.12509000000E+03 0.  0.
         25    1    4    4    0    0  0.66325487471E+02  0.14565033279E+02  0.26649890822E+03  0.30212644152E+03  0.12509000000E+03 0.  0.
<mgrwt>
<rscale>  2 0.45324100E+03</rscale>
<asrwt>0</asrwt>
<pdfrwt beam="1">  1       21 0.11398081E+00 0.45324100E+03</pdfrwt>
<pdfrwt beam="2">  1       21 0.97442593E-02 0.45324100E+03</pdfrwt>
<totfact> 0.46467654E+04</totfact>
</mgrwt>
</event>
<event>
 7    0  0.4737014E-002  0.4540437E+03  0.7546771E-02  0.1026523E+00
         21   -1    0    0  502  501  0.00000000000E+00  0.00000000000E+00  0.32017519549E+03  0.32017519549E+03  0.00000000000E+00 0. -1.
         21   -1    0    0  501  502 -0.00000000000E+00 -0.00000000000E+00 -0.16097102053E+03  0.16097102053E+03  0.00000000000E+00 0. -1.
      99926    2    1    2    0    0  0.00000000000E+00  0.00000000000E+00  0.15920417496E+03  0.48114621602E+03  0.45404373343E+03 0.  0.
      99925    2    3    3    0    0 -0.85590993151E+02  0.66999622484E+02  0.70778444327E+02  0.29331281788E+03  0.26307423558E+03 0.  0.
         25    1    4    4    0    0 -0.72334859883E+02  0.98862950907E+01  0.52025181250E+02  0.15389671331E+03  0.12509000000E+03 0.  0.
         25    1    3    3    0    0  0.85590993151E+02 -0.66999622484E+02  0.88425730637E+02  0.18783339815E+03  0.12509000000E+03 0.  0.
         25    1    4    4    0    0 -0.13256133267E+02  0.57113327393E+02  0.18753263077E+02  0.13941610456E+03  0.12509000000E+03 0.  0.
<mgrwt>
<rscale>  2 0.45404373E+03</rscale>
<asrwt>0</asrwt>
<pdfrwt beam="1">  1       21 0.47084588E-01 0.45404373E+03</pdfrwt>
<pdfrwt beam="2">  1       21 0.23672209E-01 0.45404373E+03</pdfrwt>
<totfact> 0.67124836E+04</totfact>
</mgrwt>
</event>
<event>
 7    0  0.4737014E-002  0.4590691E+03  0.7546771E-02  0.1025052E+00
         21   -1    0    0  502  501  0.00000000000E+00  0.00000000000E+00  0.84375174736E+02  0.84375174736E+02  0.00000000000E+00 0.  1.
         21   -1    0    0  501  502 -0.00000000000E+00 -0.00000000000E+00 -0.62442668968E+03  0.62442668968E+03  0.00000000000E+00 0.  1.
      99926    2    1    2    0    0 -0.14210854715E-13  0.71054273576E-14 -0.54005151495E+03  0.70880186442E+03  0.45906910613E+03 0.  0.
      99925    2    3    3    0    0 -0.10245208725E+03 -0.57800572604E+02 -0.34102655031E+03  0.44594110085E+03  0.26215838922E+03 0.  0.
         25    1    3    3    0    0  0.10245208725E+03  0.57800572604E+02 -0.19902496463E+03  0.26286076356E+03  0.12509000000E+03 0.  0.
         25    1    4    4    0    0 -0.58115082033E+02 -0.48653138853E+02 -0.23049759777E+03  0.27298560651E+03  0.12509000000E+03 0.  0.
         25    1    4    4    0    0 -0.44337005214E+02 -0.91474337509E+01 -0.11052895254E+03  0.17295549435E+03  0.12509000000E+03 0.  0.
<mgrwt>
<rscale>  2 0.45906911E+03</rscale>
<asrwt>0</asrwt>
<pdfrwt beam="1">  1       21 0.12408114E-01 0.45906911E+03</pdfrwt>
<pdfrwt beam="2">  1       21 0.91827455E-01 0.45906911E+03</pdfrwt>
<totfact> 0.50782217E+04</totfact>
</mgrwt>
</event>
<event>
 7    0  0.4737014E-002  0.4738730E+03  0.7546771E-02  0.1020833E+00
         21   -1    0    0  502  501  0.00000000000E+00  0.00000000000E+00  0.11575053584E+03  0.11575053584E+03  0.00000000000E+00 0. -1.
         21   -1    0    0  501  502 -0.00000000000E+00 -0.00000000000E+00 -0.48499900218E+03  0.48499900218E+03  0.00000000000E+00 0. -1.
      99926    2    1    2    0    0 -0.88817841970E-15  0.00000000000E+00 -0.36924846634E+03  0.60074953802E+03  0.47387295506E+03 0.  0.
      99925    2    3    3    0    0 -0.70143754044E+01  0.30214902831E+02 -0.38880056185E+03  0.47039642392E+03  0.26295394451E+03 0.  0.
         25    1    3    3    0    0  0.70143754044E+01 -0.30214902831E+02  0.19552095510E+02  0.13035311410E+03  0.12509000000E+03 0.  0.
         25    1    4    4    0    0 -0.21382353209E+02  0.51677866769E+02 -0.20448092769E+03  0.24614582026E+03  0.12509000000E+03 0.  0.
         25    1    4    4    0    0  0.14367977804E+02 -0.21462963938E+02 -0.18431963416E+03  0.22425060367E+03  0.12509000000E+03 0.  0.
<mgrwt>
<rscale>  2 0.47387296E+03</rscale>
<asrwt>0</asrwt>
<pdfrwt beam="1">  1       21 0.17022137E-01 0.47387296E+03</pdfrwt>
<pdfrwt beam="2">  1       21 0.71323384E-01 0.47387296E+03</pdfrwt>
<totfact> 0.50645995E+04</totfact>
</mgrwt>
</event>
<event>
 7    0  0.4737014E-002  0.4590230E+03  0.7546771E-02  0.1025065E+00
         21   -1    0    0  502  501  0.00000000000E+00  0.00000000000E+00  0.10052002963E+04  0.10052002963E+04  0.00000000000E+00 0. -1.
         21   -1    0    0  501  502 -0.00000000000E+00 -0.00000000000E+00 -0.52403014471E+02  0.52403014471E+02  0.00000000000E+00 0. -1.
      99926    2    1    2    0    0  0.00000000000E+00  0.00000000000E+00  0.95279728181E+03  0.10576033108E+04  0.45902298710E+03 0.  0.
      99925    2    3    3    0    0 -0.54920069231E+02  0.10312826393E+03  0.60646781481E+03  0.67128315772E+03  0.26299470454E+03 0.  0.
         25    1    3    3    0    0  0.54920069231E+02 -0.10312826393E+03  0.34632946700E+03  0.38632015303E+03  0.12509000000E+03 0.  0.
         25    1    4    4    0    0 -0.17924350600E+02  0.69149912679E+02  0.22975034018E+03  0.27117470324E+03  0.12509000000E+03 0.  0.
         25    1    4    4    0    0 -0.36995718631E+02  0.33978351246E+02  0.37671747464E+03  0.40010845448E+03  0.12509000000E+03 0.  0.
<mgrwt>
<rscale>  2 0.45902299E+03</rscale>
<asrwt>0</asrwt>
<pdfrwt beam="1">  1       21 0.14782356E+00 0.45902299E+03</pdfrwt>
<pdfrwt beam="2">  1       21 0.77063263E-02 0.45902299E+03</pdfrwt>
<totfact> 0.35860386E+04</totfact>
</mgrwt>
</event>
<event>
 7    0  0.4737014E-002  0.4553408E+03  0.7546771E-02  0.1026141E+00
         21   -1    0    0  502  501  0.00000000000E+00  0.00000000000E+00  0.37188594934E+03  0.37188594934E+03  0.00000000000E+00 0.  1.
         21   -1    0    0  501  502 -0.00000000000E+00 -0.00000000000E+00 -0.13938093033E+03  0.13938093033E+03  0.00000000000E+00 0.  1.
      99926    2    1    2    0    0  0.00000000000E+00  0.14210854715E-13  0.23250501901E+03  0.51126687967E+03  0.45534079367E+03 0.  0.
      99925    2    3    3    0    0  0.91208862938E+02  0.66210479723E+02  0.12999173389E+03  0.31413908855E+03  0.26283575056E+03 0.  0.
         25    1    4    4    0    0  0.58681276876E+02  0.13984400668E+02  0.10108866115E+03  0.17177159611E+03  0.12509000000E+03 0.  0.
         25    1    3    3    0    0 -0.91208862938E+02 -0.66210479723E+02  0.10251328513E+03  0.19712779112E+03  0.12509000000E+03 0.  0.
         25    1    4    4    0    0  0.32527586063E+02  0.52226079055E+02  0.28903072736E+02  0.14236749243E+03  0.12509000000E+03 0.  0.
<mgrwt>
<rscale>  2 0.45534079E+03</rscale>
<asrwt>0</asrwt>
<pdfrwt beam="1">  1       21 0.54689110E-01 0.45534079E+03</pdfrwt>
<pdfrwt beam="2">  1       21 0.20497196E-01 0.45534079E+03</pdfrwt>
<totfact> 0.64312045E+04</totfact>
</mgrwt>
</event>
<event>
 7    0  0.4737014E-002  0.4575539E+03  0.7546771E-02  0.1025493E+00
         21   -1    0    0  502  501  0.00000000000E+00  0.00000000000E+00  0.67964721028E+02  0.67964721028E+02  0.00000000000E+00 0. -1.
         21   -1    0    0  501  502 -0.00000000000E+00 -0.00000000000E+00 -0.77008926805E+03  0.77008926805E+03  0.00000000000E+00 0. -1.
      99926    2    1    2    0    0  0.00000000000E+00 -0.71054273576E-14 -0.70212454702E+03  0.83805398908E+03  0.45755394117E+03 0.  0.
      99925    2    3    3    0    0 -0.36411638020E+02  0.39668864376E+02 -0.25404974095E+03  0.36974002802E+03  0.26318622924E+03 0.  0.
         25    1    4    4    0    0 -0.39500084470E+01  0.43925590256E+02 -0.87541299185E+02  0.15892151273E+03  0.12509000000E+03 0.  0.
         25    1    4    4    0    0 -0.32461629573E+02 -0.42567258806E+01 -0.16650844177E+03  0.21081851529E+03  0.12509000000E+03 0.  0.
         25    1    3    3    0    0  0.36411638020E+02 -0.39668864376E+02 -0.44807480607E+03  0.46831396105E+03  0.12509000000E+03 0.  0.
<mgrwt>
<rscale>  2 0.45755394E+03</rscale>
<asrwt>0</asrwt>
<pdfrwt beam="1">  1       21 0.99948115E-02 0.45755394E+03</pdfrwt>
<pdfrwt beam="2">  1       21 0.11324843E+00 0.45755394E+03</pdfrwt>
<totfact> 0.45068728E+04</totfact>
</mgrwt>
</event>
<event>
 7    0  0.4737014E-002  0.4540061E+03  0.7546771E-02  0.1026534E+00
         21   -1    0    0  502  501  0.00000000000E+00  0.00000000000E+00  0.43726805955E+03  0.43726805955E+03  0.00000000000E+00 0. -1.
         21   -1    0    0  501  502 -0.00000000000E+00 -0.00000000000E+00 -0.11784621399E+03  0.11784621399E+03  0.00000000000E+00 0. -1.
      99926    2    1    2    0    0  0.00000000000E+00  0.00000000000E+00  0.31942184556E+03  0.55511427353E+03  0.45400610267E+03 0.  0.
      99925    2    3    3    0    0 -0.95951152622E+02  0.50646016636E+02  0.16610300419E+03  0.32944677940E+03  0.26300823136E+03 0.  0.
         25    1    4    4    0    0 -0.26644558361E+02  0.26653072408E+02  0.38256083545E+02  0.13612991878E+03  0.12509000000E+03 0.  0.
         25    1    3    3    0    0  0.95951152622E+02 -0.50646016636E+02  0.15331884137E+03  0.22566749414E+03  0.12509000000E+03 0.  0.
         25    1    4    4    0    0 -0.69306594260E+02  0.23992944227E+02  0.12784692064E+03  0.19331686062E+03  0.12509000000E+03 0.  0.
<mgrwt>
<rscale>  2 0.45400610E+03</rscale>
<asrwt>0</asrwt>
<pdfrwt beam="1">  1       21 0.64304126E-01 0.45400610E+03</pdfrwt>
<pdfrwt beam="2">  1       21 0.17330326E-01 0.45400610E+03</pdfrwt>
<totfact> 0.62015986E+04</totfact>
</mgrwt>
</event>
<event>
 7    0  0.4737014E-002  0.4517119E+03  0.7546771E-02  0.1027213E+00
         21   -1    0    0  502  501  0.00000000000E+00  0.00000000000E+00  0.63263075592E+03  0.63263075592E+03  0.00000000000E+00 0. -1.
         21   -1    0    0  501  502 -0.00000000000E+00 -0.00000000000E+00 -0.80632999210E+02  0.80632999210E+02  0.00000000000E+00 0. -1.
      99926    2    1    2    0    0 -0.14210854715E-13  0.00000000000E+00  0.55199775671E+03  0.71326375513E+03  0.45171192254E+03 0.  0.
      99925    2    3    3    0    0  0.79314328767E+02 -0.63093578556E+02  0.41619691051E+03  0.50264338496E+03  0.26298087710E+03 0.  0.
         25    1    4    4    0    0  0.75950618588E+02 -0.17675768189E+02  0.19446042822E+03  0.24401494931E+03  0.12509000000E+03 0.  0.
         25    1    4    4    0    0  0.33637101792E+01 -0.45417810367E+02  0.22173648229E+03  0.25862843565E+03  0.12509000000E+03 0.  0.
         25    1    3    3    0    0 -0.79314328767E+02  0.63093578556E+02  0.13580084619E+03  0.21062037017E+03  0.12509000000E+03 0.  0.
<mgrwt>
<rscale>  2 0.45171192E+03</rscale>
<asrwt>0</asrwt>
<pdfrwt beam="1">  1       21 0.93033932E-01 0.45171192E+03</pdfrwt>
<pdfrwt beam="2">  1       21 0.11857794E-01 0.45171192E+03</pdfrwt>
<totfact> 0.53560828E+04</totfact>
</mgrwt>
</event>
<event>
 7    0  0.4737014E-002  0.4554357E+03  0.7546771E-02  0.1026113E+00
         21   -1    0    0  502  501  0.00000000000E+00  0.00000000000E+00  0.99638869355E+02  0.99638869355E+02  0.00000000000E+00 0.  1.
         21   -1    0    0  501  502 -0.00000000000E+00 -0.00000000000E+00 -0.52043355102E+03  0.52043355102E+03  0.00000000000E+00 0.  1.
      99926    2    1    2    0    0  0.00000000000E+00  0.00000000000E+00 -0.42079468167E+03  0.62007242038E+03  0.45543566219E+03 0.  0.
      99925    2    3    3    0    0 -0.33170607244E+02 -0.94548629782E+02 -0.19186411097E+03  0.34061500524E+03  0.26299622076E+03 0.  0.
         25    1    3    3    0    0  0.33170607244E+02  0.94548629782E+02 -0.22893057070E+03  0.27945741514E+03  0.12509000000E+03 0.  0.
         25    1    4    4    0    0 -0.46059974468E+02 -0.24406907118E+02 -0.11296020509E+03  0.17642203489E+03  0.12509000000E+03 0.  0.
         25    1    4    4    0    0  0.12889367224E+02 -0.70141722664E+02 -0.78903905886E+02  0.16419297034E+03  0.12509000000E+03 0.  0.
<mgrwt>
<rscale>  2 0.45543566E+03</rscale>
<asrwt>0</asrwt>
<pdfrwt beam="1">  1       21 0.14652775E-01 0.45543566E+03</pdfrwt>
<pdfrwt beam="2">  1       21 0.76534346E-01 0.45543566E+03</pdfrwt>
<totfact> 0.57262213E+04</totfact>
</mgrwt>
</event>
<event>
 7    0  0.4737014E-002  0.4587174E+03  0.7546771E-02  0.1025154E+00
         21   -1    0    0  502  501  0.00000000000E+00  0.00000000000E+00  0.30213477376E+03  0.30213477376E+03  0.00000000000E+00 0.  1.
         21   -1    0    0  501  502 -0.00000000000E+00 -0.00000000000E+00 -0.17411238537E+03  0.17411238537E+03  0.00000000000E+00 0.  1.
      99926    2    1    2    0    0  0.00000000000E+00  0.00000000000E+00  0.12802238838E+03  0.47624715913E+03  0.45871736903E+03 0.  0.
      99925    2    3    3    0    0  0.44281100142E+02 -0.83757528401E+02  0.15113249896E+03  0.31763529102E+03  0.26282124433E+03 0.  0.
         25    1    4    4    0    0  0.43629670837E+02 -0.22404400671E+02  0.10612798458E+03  0.17121963251E+03  0.12509000000E+03 0.  0.
         25    1    3    3    0    0 -0.44281100142E+02  0.83757528401E+02 -0.23110110575E+02  0.15861186811E+03  0.12509000000E+03 0.  0.
         25    1    4    4    0    0  0.65142930463E+00 -0.61353127730E+02  0.45004514374E+02  0.14641565851E+03  0.12509000000E+03 0.  0.
<mgrwt>
<rscale>  2 0.45871737E+03</rscale>
<asrwt>0</asrwt>
<pdfrwt beam="1">  1       21 0.44431584E-01 0.45871737E+03</pdfrwt>
<pdfrwt beam="2">  1       21 0.25604763E-01 0.45871737E+03</pdfrwt>
<totfact> 0.65034606E+04</totfact>
</mgrwt>
</event>
<event>
 7    0  0.4737014E-002  0.4549341E+03  0.7546771E-02  0.1026261E+00
         21   -1    0    0  502  501  0.00000000000E+00  0.00000000000E+00  0.48751906033E+02  0.48751906033E+02  0.00000000000E+00 0. -1.
         21   -1    0    0  501  502 -0.00000000000E+00 -0.00000000000E+00 -0.10613174795E+04  0.10613174795E+04  0.00000000000E+00 0. -1.
      99926    2    1    2    0    0  0.00000000000E+00  0.14210854715E-13 -0.10125655734E+04  0.11100693855E+04  0.45493406129E+03 0.  0.
      99925    2    3    3    0    0 -0.49273001315E+02 -0.76260918508E+02 -0.80200749253E+03  0.84886875403E+03  0.26290414058E+03 0.  0.
         25    1    3    3    0    0  0.49273001315E+02  0.76260918508E+02 -0.21055808092E+03  0.26120063149E+03  0.12509000000E+03 0.  0.
         25    1    4    4    0    0 -0.60924619778E+02 -0.24817592678E+02 -0.44586625662E+03  0.46773063733E+03  0.12509000000E+03 0.  0.
         25    1    4    4    0    0  0.11651618464E+02 -0.51443325830E+02 -0.35614123591E+03  0.38113811670E+03  0.12509000000E+03 0.  0.
<mgrwt>
<rscale>  2 0.45493406E+03</rscale>
<asrwt>0</asrwt>
<pdfrwt beam="1">  1       21 0.71693978E-02 0.45493406E+03</pdfrwt>
<pdfrwt beam="2">  1       21 0.15607610E+00 0.45493406E+03</pdfrwt>
<totfact> 0.35161859E+04</totfact>
</mgrwt>
</event>
<event>
 7    0  0.4737014E-002  0.4519193E+03  0.7546771E-02  0.1027151E+00
         21   -1    0    0  502  501  0.00000000000E+00  0.00000000000E+00  0.14495000037E+03  0.14495000037E+03  0.00000000000E+00 0. -1.
         21   -1    0    0  501  502 -0.00000000000E+00 -0.00000000000E+00 -0.35224395077E+03  0.35224395077E+03  0.00000000000E+00 0. -1.
      99926    2    1    2    0    0  0.00000000000E+00  0.00000000000E+00 -0.20729395039E+03  0.49719395114E+03  0.45191928835E+03 0.  0.
      99925    2    3    3    0    0  0.44896381410E+02 -0.76744633681E+02 -0.59055107800E+02  0.28382177297E+03  0.26298644299E+03 0.  0.
         25    1    4    4    0    0  0.46817695905E+02 -0.45446911959E+02 -0.63654354965E+02  0.15477953179E+03  0.12509000000E+03 0.  0.
         25    1    3    3    0    0 -0.44896381410E+02  0.76744633681E+02 -0.14823884259E+03  0.21337217817E+03  0.12509000000E+03 0.  0.
         25    1    4    4    0    0 -0.19213144954E+01 -0.31297721723E+02  0.45992471641E+01  0.12904224118E+03  0.12509000000E+03 0.  0.
<mgrwt>
<rscale>  2 0.45191929E+03</rscale>
<asrwt>0</asrwt>
<pdfrwt beam="1">  1       21 0.21316177E-01 0.45191929E+03</pdfrwt>
<pdfrwt beam="2">  1       21 0.51800580E-01 0.45191929E+03</pdfrwt>
<totfact> 0.67094095E+04</totfact>
</mgrwt>
</event>
<event>
 7    0  0.4737014E-002  0.4275010E+03  0.7546771E-02  0.1034652E+00
         21   -1    0    0  502  501  0.00000000000E+00  0.00000000000E+00  0.47641538028E+02  0.47641538028E+02  0.00000000000E+00 0. -1.
         21   -1    0    0  501  502 -0.00000000000E+00 -0.00000000000E+00 -0.95902205179E+03  0.95902205179E+03  0.00000000000E+00 0. -1.
      99926    2    1    2    0    0  0.00000000000E+00 -0.14210854715E-13 -0.91138051376E+03  0.10066635898E+04  0.42750104351E+03 0.  0.
      99925    2    3    3    0    0  0.18380288319E+02 -0.81187634405E+02 -0.62783812261E+03  0.68576942867E+03  0.26300139565E+03 0.  0.
         25    1    3    3    0    0 -0.18380288319E+02  0.81187634405E+02 -0.28354239115E+03  0.32089416115E+03  0.12509000000E+03 0.  0.
         25    1    4    4    0    0  0.39856774430E+02 -0.14588611930E+02 -0.28194494770E+03  0.31135486459E+03  0.12509000000E+03 0.  0.
         25    1    4    4    0    0 -0.21476486111E+02 -0.66599022475E+02 -0.34589317491E+03  0.37441456408E+03  0.12509000000E+03 0.  0.
<mgrwt>
<rscale>  2 0.42750104E+03</rscale>
<asrwt>0</asrwt>
<pdfrwt beam="1">  1       21 0.70061088E-02 0.42750104E+03</pdfrwt>
<pdfrwt beam="2">  1       21 0.14103265E+00 0.42750104E+03</pdfrwt>
<totfact> 0.48520086E+04</totfact>
</mgrwt>
</event>
<event>
 7    0  0.4737014E-002  0.4646782E+03  0.7546771E-02  0.1023433E+00
         21   -1    0    0  502  501  0.00000000000E+00  0.00000000000E+00  0.28300710132E+03  0.28300710132E+03  0.00000000000E+00 0. -1.
         21   -1    0    0  501  502 -0.00000000000E+00 -0.00000000000E+00 -0.19074245050E+03  0.19074245050E+03  0.00000000000E+00 0. -1.
      99926    2    1    2    0    0 -0.14210854715E-13  0.00000000000E+00  0.92264650826E+02  0.47374955182E+03  0.46467824573E+03 0.  0.
      99925    2    3    3    0    0  0.76954066448E+02 -0.45459187420E+02 -0.26953360078E+02  0.27920159298E+03  0.26313224782E+03 0.  0.
         25    1    4    4    0    0  0.13181123790E+01 -0.23209688662E+02 -0.32209813667E+02  0.13124559903E+03  0.12509000000E+03 0.  0.
         25    1    3    3    0    0 -0.76954066448E+02  0.45459187420E+02  0.11921801090E+03  0.19454795884E+03  0.12509000000E+03 0.  0.
         25    1    4    4    0    0  0.75635954069E+02 -0.22249498758E+02  0.52564535897E+01  0.14795599396E+03  0.12509000000E+03 0.  0.
<mgrwt>
<rscale>  2 0.46467825E+03</rscale>
<asrwt>0</asrwt>
<pdfrwt beam="1">  1       21 0.41618692E-01 0.46467825E+03</pdfrwt>
<pdfrwt beam="2">  1       21 0.28050360E-01 0.46467825E+03</pdfrwt>
<totfact> 0.62237824E+04</totfact>
</mgrwt>
</event>
<event>
 7    0  0.4737014E-002  0.4551421E+03  0.7546771E-02  0.1026200E+00
         21   -1    0    0  502  501  0.00000000000E+00  0.00000000000E+00  0.47240883161E+03  0.47240883161E+03  0.00000000000E+00 0.  1.
         21   -1    0    0  501  502 -0.00000000000E+00 -0.00000000000E+00 -0.10962663663E+03  0.10962663663E+03  0.00000000000E+00 0.  1.
      99926    2    1    2    0    0  0.00000000000E+00  0.00000000000E+00  0.36278219498E+03  0.58203546824E+03  0.45514213747E+03 0.  0.
      99925    2    3    3    0    0  0.52593349137E+02  0.80259483710E+02  0.30528423985E+03  0.41422257231E+03  0.26300993747E+03 0.  0.
         25    1    4    4    0    0 -0.11178938585E+02  0.52891315508E+02  0.16300681567E+03  0.21246456170E+03  0.12509000000E+03 0.  0.
         25    1    3    3    0    0 -0.52593349137E+02 -0.80259483710E+02  0.57497955135E+02  0.16781289594E+03  0.12509000000E+03 0.  0.
         25    1    4    4    0    0  0.63772287721E+02  0.27368168202E+02  0.14227742418E+03  0.20175801061E+03  0.12509000000E+03 0.  0.
<mgrwt>
<rscale>  2 0.45514214E+03</rscale>
<asrwt>0</asrwt>
<pdfrwt beam="1">  1       21 0.69471886E-01 0.45514214E+03</pdfrwt>
<pdfrwt beam="2">  1       21 0.16121564E-01 0.45514214E+03</pdfrwt>
<totfact> 0.59730739E+04</totfact>
</mgrwt>
</event>
<event>
 7    0  0.4737014E-002  0.4515882E+03  0.7546771E-02  0.1027249E+00
         21   -1    0    0  502  501  0.00000000000E+00  0.00000000000E+00  0.19321440449E+03  0.19321440449E+03  0.00000000000E+00 0.  1.
         21   -1    0    0  501  502 -0.00000000000E+00 -0.00000000000E+00 -0.26386733121E+03  0.26386733121E+03  0.00000000000E+00 0.  1.
      99926    2    1    2    0    0  0.00000000000E+00  0.71054273576E-14 -0.70652926714E+02  0.45708173570E+03  0.45158817197E+03 0.  0.
      99925    2    3    3    0    0 -0.21430382842E+02  0.63029600268E+02 -0.13327076026E+03  0.30216081072E+03  0.26288413451E+03 0.  0.
         25    1    3    3    0    0  0.21430382842E+02 -0.63029600268E+02  0.62617833549E+02  0.15492092498E+03  0.12509000000E+03 0.  0.
         25    1    4    4    0    0 -0.41716007051E+02  0.57189256824E+02 -0.60797834978E+02  0.15605999224E+03  0.12509000000E+03 0.  0.
         25    1    4    4    0    0  0.20285624209E+02  0.58403434442E+01 -0.72472925285E+02  0.14610081848E+03  0.12509000000E+03 0.  0.
<mgrwt>
<rscale>  2 0.45158817E+03</rscale>
<asrwt>0</asrwt>
<pdfrwt beam="1">  1       21 0.28413883E-01 0.45158817E+03</pdfrwt>
<pdfrwt beam="2">  1       21 0.38804019E-01 0.45158817E+03</pdfrwt>
<totfact> 0.70286722E+04</totfact>
</mgrwt>
</event>
<event>
 7    0  0.4737014E-002  0.4525747E+03  0.7546771E-02  0.1026957E+00
         21   -1    0    0  502  501  0.00000000000E+00  0.00000000000E+00  0.24739896593E+03  0.24739896593E+03  0.00000000000E+00 0.  1.
         21   -1    0    0  501  502 -0.00000000000E+00 -0.00000000000E+00 -0.20697729897E+03  0.20697729897E+03  0.00000000000E+00 0.  1.
      99926    2    1    2    0    0  0.00000000000E+00 -0.35527136788E-14  0.40421666952E+02  0.45437626490E+03  0.45257472195E+03 0.  0.
      99925    2    3    3    0    0 -0.36137956322E+02  0.30783386010E+02 -0.75079782004E+02  0.27762315587E+03  0.26302865674E+03 0.  0.
         25    1    4    4    0    0  0.11469667537E+02  0.43247828914E+02 -0.38144755983E+02  0.13821887891E+03  0.12509000000E+03 0.  0.
         25    1    4    4    0    0 -0.47607623859E+02 -0.12464442904E+02 -0.36935026021E+02  0.13940427696E+03  0.12509000000E+03 0.  0.
         25    1    3    3    0    0  0.36137956322E+02 -0.30783386010E+02  0.11550144896E+03  0.17675310903E+03  0.12509000000E+03 0.  0.
<mgrwt>
<rscale>  2 0.45257472E+03</rscale>
<asrwt>0</asrwt>
<pdfrwt beam="1">  1       21 0.36382201E-01 0.45257472E+03</pdfrwt>
<pdfrwt beam="2">  1       21 0.30437838E-01 0.45257472E+03</pdfrwt>
<totfact> 0.69935037E+04</totfact>
</mgrwt>
</event>
<event>
 7    0  0.4737014E-002  0.4615902E+03  0.7546771E-02  0.1024321E+00
         21   -1    0    0  502  501  0.00000000000E+00  0.00000000000E+00  0.14231828025E+03  0.14231828025E+03  0.00000000000E+00 0. -1.
         21   -1    0    0  501  502 -0.00000000000E+00 -0.00000000000E+00 -0.37427648487E+03  0.37427648487E+03  0.00000000000E+00 0. -1.
      99926    2    1    2    0    0  0.17763568394E-14 -0.35527136788E-14 -0.23195820462E+03  0.51659476511E+03  0.46159023241E+03 0.  0.
      99925    2    3    3    0    0  0.68006770717E+01 -0.18969669353E+02 -0.13066568161E+02  0.26367747789E+03  0.26258137706E+03 0.  0.
         25    1    4    4    0    0 -0.20309607483E+02  0.15331334504E+02 -0.26871972658E+02  0.13044976423E+03  0.12509000000E+03 0.  0.
         25    1    4    4    0    0  0.27110284555E+02 -0.34301003857E+02  0.13805404497E+02  0.13322771366E+03  0.12509000000E+03 0.  0.
         25    1    3    3    0    0 -0.68006770717E+01  0.18969669353E+02 -0.21889163646E+03  0.25291728722E+03  0.12509000000E+03 0.  0.
<mgrwt>
<rscale>  2 0.46159023E+03</rscale>
<asrwt>0</asrwt>
<pdfrwt beam="1">  1       21 0.20929159E-01 0.46159023E+03</pdfrwt>
<pdfrwt beam="2">  1       21 0.55040659E-01 0.46159023E+03</pdfrwt>
<totfact> 0.60873487E+04</totfact>
</mgrwt>
</event>
<event>
 7    0  0.4737014E-002  0.4568948E+03  0.7546771E-02  0.1025686E+00
         21   -1    0    0  502  501  0.00000000000E+00  0.00000000000E+00  0.25384789008E+03  0.25384789008E+03  0.00000000000E+00 0.  1.
         21   -1    0    0  501  502 -0.00000000000E+00 -0.00000000000E+00 -0.20558853621E+03  0.20558853621E+03  0.00000000000E+00 0.  1.
      99926    2    1    2    0    0  0.00000000000E+00  0.00000000000E+00  0.48259353871E+02  0.45943642629E+03  0.45689480689E+03 0.  0.
      99925    2    3    3    0    0 -0.24988902029E+02 -0.82248257194E+02  0.10706436789E+03  0.29666431931E+03  0.26297855130E+03 0.  0.
         25    1    4    4    0    0 -0.79380909151E+01 -0.41037760642E+01  0.70043888103E+02  0.14364368634E+03  0.12509000000E+03 0.  0.
         25    1    4    4    0    0 -0.17050811114E+02 -0.78144481130E+02  0.37020479789E+02  0.15302063297E+03  0.12509000000E+03 0.  0.
         25    1    3    3    0    0  0.24988902029E+02  0.82248257194E+02 -0.58805014021E+02  0.16277210698E+03  0.12509000000E+03 0.  0.
<mgrwt>
<rscale>  2 0.45689481E+03</rscale>
<asrwt>0</asrwt>
<pdfrwt beam="1">  1       21 0.37330572E-01 0.45689481E+03</pdfrwt>
<pdfrwt beam="2">  1       21 0.30233608E-01 0.45689481E+03</pdfrwt>
<totfact> 0.67200288E+04</totfact>
</mgrwt>
</event>
<event>
 7    0  0.4737014E-002  0.4658018E+03  0.7546771E-02  0.1023112E+00
         21   -1    0    0  502  501  0.00000000000E+00  0.00000000000E+00  0.80020050242E+02  0.80020050242E+02  0.00000000000E+00 0.  1.
         21   -1    0    0  501  502 -0.00000000000E+00 -0.00000000000E+00 -0.67786554738E+03  0.67786554738E+03  0.00000000000E+00 0.  1.
      99926    2    1    2    0    0  0.00000000000E+00  0.00000000000E+00 -0.59784549714E+03  0.75788559762E+03  0.46580182550E+03 0.  0.
      99925    2    3    3    0    0  0.16719837362E+02 -0.81731845029E+02 -0.51982056065E+03  0.58848947527E+03  0.26295779087E+03 0.  0.
         25    1    4    4    0    0  0.20852123605E+02 -0.81319745067E+02 -0.27752473488E+03  0.31577713433E+03  0.12509000000E+03 0.  0.
         25    1    3    3    0    0 -0.16719837362E+02  0.81731845029E+02 -0.78024936491E+02  0.16939612235E+03  0.12509000000E+03 0.  0.
         25    1    4    4    0    0 -0.41322862430E+01 -0.41209996196E+00 -0.24229582577E+03  0.27271234094E+03  0.12509000000E+03 0.  0.
<mgrwt>
<rscale>  2 0.46580183E+03</rscale>
<asrwt>0</asrwt>
<pdfrwt beam="1">  1       21 0.11767655E-01 0.46580183E+03</pdfrwt>
<pdfrwt beam="2">  1       21 0.99686109E-01 0.46580183E+03</pdfrwt>
<totfact> 0.45852605E+04</totfact>
</mgrwt>
</event>
<event>
 7    0  0.4737014E-002  0.4565417E+03  0.7546771E-02  0.1025789E+00
         21   -1    0    0  502  501  0.00000000000E+00  0.00000000000E+00  0.14078617325E+03  0.14078617325E+03  0.00000000000E+00 0. -1.
         21   -1    0    0  501  502 -0.00000000000E+00 -0.00000000000E+00 -0.37011862659E+03  0.37011862659E+03  0.00000000000E+00 0. -1.
      99926    2    1    2    0    0  0.00000000000E+00  0.14210854715E-13 -0.22933245334E+03  0.51090479983E+03  0.45654171807E+03 0.  0.
      99925    2    3    3    0    0  0.27899086899E+02  0.10815164753E+03 -0.11608570334E+03  0.30854998176E+03  0.26315786671E+03 0.  0.
         25    1    4    4    0    0 -0.28387687351E+00  0.14821671460E+02 -0.66158234317E+02  0.14228205298E+03  0.12509000000E+03 0.  0.
         25    1    4    4    0    0  0.28182963773E+02  0.93329976067E+02 -0.49927469023E+02  0.16626792879E+03  0.12509000000E+03 0.  0.
         25    1    3    3    0    0 -0.27899086899E+02 -0.10815164753E+03 -0.11324675000E+03  0.20235481807E+03  0.12509000000E+03 0.  0.
<mgrwt>
<rscale>  2 0.45654172E+03</rscale>
<asrwt>0</asrwt>
<pdfrwt beam="1">  1       21 0.20703849E-01 0.45654172E+03</pdfrwt>
<pdfrwt beam="2">  1       21 0.54429210E-01 0.45654172E+03</pdfrwt>
<totfact> 0.63727836E+04</totfact>
</mgrwt>
</event>
<event>
 7    0  0.4737014E-002  0.4367900E+03  0.7546771E-02  0.1031736E+00
         21   -1    0    0  502  501  0.00000000000E+00  0.00000000000E+00  0.52173305353E+02  0.52173305353E+02  0.00000000000E+00 0.  1.
         21   -1    0    0  501  502 -0.00000000000E+00 -0.00000000000E+00 -0.91419123142E+03  0.91419123142E+03  0.00000000000E+00 0.  1.
      99926    2    1    2    0    0  0.00000000000E+00  0.19984014443E-14 -0.86201792606E+03  0.96636453677E+03  0.43679001027E+03 0.  0.
      99925    2    3    3    0    0 -0.10933111615E+02 -0.19630373043E+01 -0.76111992463E+03  0.80527046103E+03  0.26274243908E+03 0.  0.
         25    1    4    4    0    0  0.19538807290E+02 -0.23598105764E+02 -0.31131136629E+03  0.33689896181E+03  0.12509000000E+03 0.  0.
         25    1    3    3    0    0  0.10933111615E+02  0.19630373043E+01 -0.10089800144E+03  0.16109407574E+03  0.12509000000E+03 0.  0.
         25    1    4    4    0    0 -0.30471918904E+02  0.21635068460E+02 -0.44980855834E+03  0.46837149922E+03  0.12509000000E+03 0.  0.
<mgrwt>
<rscale>  2 0.43679001E+03</rscale>
<asrwt>0</asrwt>
<pdfrwt beam="1">  1       21 0.76725454E-02 0.43679001E+03</pdfrwt>
<pdfrwt beam="2">  1       21 0.13443988E+00 0.43679001E+03</pdfrwt>
<totfact> 0.46801369E+04</totfact>
</mgrwt>
</event>
<event>
 7    0  0.4737014E-002  0.4546844E+03  0.7546771E-02  0.1026334E+00
         21   -1    0    0  502  501  0.00000000000E+00  0.00000000000E+00  0.21250606088E+03  0.21250606088E+03  0.00000000000E+00 0.  1.
         21   -1    0    0  501  502 -0.00000000000E+00 -0.00000000000E+00 -0.24321411458E+03  0.24321411458E+03  0.00000000000E+00 0.  1.
      99926    2    1    2    0    0  0.00000000000E+00  0.00000000000E+00 -0.30708053700E+02  0.45572017546E+03  0.45468438917E+03 0.  0.
      99925    2    3    3    0    0 -0.31627261571E+02 -0.99775553545E+02  0.23015794792E+02  0.28399596413E+03  0.26299911801E+03 0.  0.
         25    1    4    4    0    0  0.64381413219E+01 -0.12548703240E+02  0.10599028812E+02  0.12632801403E+03  0.12509000000E+03 0.  0.
         25    1    3    3    0    0  0.31627261571E+02  0.99775553545E+02 -0.53723848492E+02  0.17172421133E+03  0.12509000000E+03 0.  0.
         25    1    4    4    0    0 -0.38065402893E+02 -0.87226850305E+02  0.12416765980E+02  0.15766795010E+03  0.12509000000E+03 0.  0.
<mgrwt>
<rscale>  2 0.45468439E+03</rscale>
<asrwt>0</asrwt>
<pdfrwt beam="1">  1       21 0.31250892E-01 0.45468439E+03</pdfrwt>
<pdfrwt beam="2">  1       21 0.35766781E-01 0.45468439E+03</pdfrwt>
<totfact> 0.68665852E+04</totfact>
</mgrwt>
</event>
<event>
 7    0  0.4737014E-002  0.4306071E+03  0.7546771E-02  0.1033668E+00
         21   -1    0    0  502  501  0.00000000000E+00  0.00000000000E+00  0.14680942316E+03  0.14680942316E+03  0.00000000000E+00 0. -1.
         21   -1    0    0  501  502 -0.00000000000E+00 -0.00000000000E+00 -0.31575369162E+03  0.31575369162E+03  0.00000000000E+00 0. -1.
      99926    2    1    2    0    0  0.00000000000E+00  0.17763568394E-14 -0.16894426846E+03  0.46256311478E+03  0.43060709389E+03 0.  0.
      99925    2    3    3    0    0  0.75147486067E+02  0.11758892423E+02 -0.15560292033E+03  0.31555659831E+03  0.26377695447E+03 0.  0.
         25    1    4    4    0    0  0.62388465651E+02 -0.27974027438E+02 -0.85096379728E+02  0.16602339835E+03  0.12509000000E+03 0.  0.
         25    1    4    4    0    0  0.12759020416E+02  0.39732919861E+02 -0.70506540604E+02  0.14953319996E+03  0.12509000000E+03 0.  0.
         25    1    3    3    0    0 -0.75147486067E+02 -0.11758892423E+02 -0.13341348127E+02  0.14700651646E+03  0.12509000000E+03 0.  0.
<mgrwt>
<rscale>  2 0.43060709E+03</rscale>
<asrwt>0</asrwt>
<pdfrwt beam="1">  1       21 0.21589621E-01 0.43060709E+03</pdfrwt>
<pdfrwt beam="2">  1       21 0.46434366E-01 0.43060709E+03</pdfrwt>
<totfact> 0.82919227E+04</totfact>
</mgrwt>
</event>
<event>
 7    0  0.4737014E-002  0.4555151E+03  0.7546771E-02  0.1026090E+00
         21   -1    0    0  502  501  0.00000000000E+00  0.00000000000E+00  0.16606507848E+03  0.16606507848E+03  0.00000000000E+00 0.  1.
         21   -1    0    0  501  502 -0.00000000000E+00 -0.00000000000E+00 -0.31236855282E+03  0.31236855282E+03  0.00000000000E+00 0.  1.
      99926    2    1    2    0    0 -0.14210854715E-13 -0.71054273576E-14 -0.14630347433E+03  0.47843363130E+03  0.45551512923E+03 0.  0.
      99925    2    3    3    0    0  0.90428275536E+02  0.49055511319E+02 -0.41703592598E+02  0.28563228388E+03  0.26317844849E+03 0.  0.
         25    1    4    4    0    0  0.81606050326E+02  0.40179351525E+02 -0.53130955563E+01  0.15475679249E+03  0.12509000000E+03 0.  0.
         25    1    3    3    0    0 -0.90428275536E+02 -0.49055511319E+02 -0.10459988174E+03  0.19280134742E+03  0.12509000000E+03 0.  0.
         25    1    4    4    0    0  0.88222252093E+01  0.88761597947E+01 -0.36390497042E+02  0.13087549139E+03  0.12509000000E+03 0.  0.
<mgrwt>
<rscale>  2 0.45551513E+03</rscale>
<asrwt>0</asrwt>
<pdfrwt beam="1">  1       21 0.24421335E-01 0.45551513E+03</pdfrwt>
<pdfrwt beam="2">  1       21 0.45936552E-01 0.45551513E+03</pdfrwt>
<totfact> 0.66541817E+04</totfact>
</mgrwt>
</event>
<event>
 7    0  0.4737014E-002  0.4663320E+03  0.7546771E-02  0.1022961E+00
         21   -1    0    0  502  501  0.00000000000E+00  0.00000000000E+00  0.11098942240E+04  0.11098942240E+04  0.00000000000E+00 0.  1.
         21   -1    0    0  501  502 -0.00000000000E+00 -0.00000000000E+00 -0.48983386308E+02  0.48983386308E+02  0.00000000000E+00 0.  1.
      99926    2    1    2    0    0  0.00000000000E+00  0.00000000000E+00  0.10609108377E+04  0.11588776104E+04  0.46633197419E+03 0.  0.
      99925    2    3    3    0    0  0.92177441345E+01 -0.11877443643E+03  0.74181197872E+03  0.79602237272E+03  0.26301002364E+03 0.  0.
         25    1    4    4    0    0 -0.46089292515E+01 -0.17862632190E+02  0.29379147192E+03  0.31984567049E+03  0.12509000000E+03 0.  0.
         25    1    3    3    0    0 -0.92177441345E+01  0.11877443643E+03  0.31909885902E+03  0.36285523764E+03  0.12509000000E+03 0.  0.
         25    1    4    4    0    0  0.13826673386E+02 -0.10091180423E+03  0.44802050681E+03  0.47617670223E+03  0.12509000000E+03 0.  0.
<mgrwt>
<rscale>  2 0.46633197E+03</rscale>
<asrwt>0</asrwt>
<pdfrwt beam="1">  1       21 0.16321972E+00 0.46633197E+03</pdfrwt>
<pdfrwt beam="2">  1       21 0.72034399E-02 0.46633197E+03</pdfrwt>
<totfact> 0.30686503E+04</totfact>
</mgrwt>
</event>
<event>
 7    0  0.4737014E-002  0.4610126E+03  0.7546771E-02  0.1024488E+00
         21   -1    0    0  502  501  0.00000000000E+00  0.00000000000E+00  0.40691659462E+03  0.40691659462E+03  0.00000000000E+00 0.  1.
         21   -1    0    0  501  502 -0.00000000000E+00 -0.00000000000E+00 -0.13057502876E+03  0.13057502876E+03  0.00000000000E+00 0.  1.
      99926    2    1    2    0    0  0.00000000000E+00  0.00000000000E+00  0.27634156586E+03  0.53749162339E+03  0.46101256402E+03 0.  0.
      99925    2    3    3    0    0  0.11151126243E+03 -0.15372567074E+02  0.12882106430E+03  0.31370403671E+03  0.26295299689E+03 0.  0.
         25    1    4    4    0    0  0.45916193989E+02 -0.13905694075E+02  0.20140547306E+02  0.13547994296E+03  0.12509000000E+03 0.  0.
         25    1    3    3    0    0 -0.11151126243E+03  0.15372567074E+02  0.14752050156E+03  0.22378758667E+03  0.12509000000E+03 0.  0.
         25    1    4    4    0    0  0.65595068443E+02 -0.14668729993E+01  0.10868051700E+03  0.17822409375E+03  0.12509000000E+03 0.  0.
<mgrwt>
<rscale>  2 0.46101256E+03</rscale>
<asrwt>0</asrwt>
<pdfrwt beam="1">  1       21 0.59840675E-01 0.46101256E+03</pdfrwt>
<pdfrwt beam="2">  1       21 0.19202210E-01 0.46101256E+03</pdfrwt>
<totfact> 0.59801392E+04</totfact>
</mgrwt>
</event>
<event>
 7    0  0.4737014E-002  0.4622354E+03  0.7546771E-02  0.1024135E+00
         21   -1    0    0  502  501  0.00000000000E+00  0.00000000000E+00  0.31955645034E+03  0.31955645034E+03  0.00000000000E+00 0.  1.
         21   -1    0    0  501  502 -0.00000000000E+00 -0.00000000000E+00 -0.16715482436E+03  0.16715482436E+03  0.00000000000E+00 0.  1.
      99926    2    1    2    0    0  0.00000000000E+00  0.00000000000E+00  0.15240162597E+03  0.48671127470E+03  0.46223544793E+03 0.  0.
      99925    2    3    3    0    0  0.39027661250E+02 -0.10171525655E+03  0.42675781136E+02  0.28782331407E+03  0.26296746200E+03 0.  0.
         25    1    3    3    0    0 -0.39027661250E+02  0.10171525655E+03  0.10972584484E+03  0.19888796063E+03  0.12509000000E+03 0.  0.
         25    1    4    4    0    0  0.52913862301E+02 -0.64778458413E+02  0.19884313750E+01  0.15049115408E+03  0.12509000000E+03 0.  0.
         25    1    4    4    0    0 -0.13886201051E+02 -0.36936798138E+02  0.40687349761E+02  0.13733215999E+03  0.12509000000E+03 0.  0.
<mgrwt>
<rscale>  2 0.46223545E+03</rscale>
<asrwt>0</asrwt>
<pdfrwt beam="1">  1       21 0.46993596E-01 0.46223545E+03</pdfrwt>
<pdfrwt beam="2">  1       21 0.24581592E-01 0.46223545E+03</pdfrwt>
<totfact> 0.62544567E+04</totfact>
</mgrwt>
</event>
<event>
 7    0  0.4737014E-002  0.4507113E+03  0.7546771E-02  0.1027510E+00
         21   -1    0    0  502  501  0.00000000000E+00  0.00000000000E+00  0.90883471859E+02  0.90883471859E+02  0.00000000000E+00 0. -1.
         21   -1    0    0  501  502 -0.00000000000E+00 -0.00000000000E+00 -0.55879422781E+03  0.55879422781E+03  0.00000000000E+00 0. -1.
      99926    2    1    2    0    0  0.00000000000E+00  0.00000000000E+00 -0.46791075595E+03  0.64967769967E+03  0.45071125781E+03 0.  0.
      99925    2    3    3    0    0  0.74767030740E+02  0.43413216360E+02 -0.39147163265E+03  0.47948585524E+03  0.26302439043E+03 0.  0.
         25    1    4    4    0    0  0.23426675997E+02 -0.72932350836E+01 -0.22918150120E+03  0.26224734320E+03  0.12509000000E+03 0.  0.
         25    1    4    4    0    0  0.51340354743E+02  0.50706451444E+02 -0.16229013145E+03  0.21723851203E+03  0.12509000000E+03 0.  0.
         25    1    3    3    0    0 -0.74767030740E+02 -0.43413216360E+02 -0.76439123301E+02  0.17019184443E+03  0.12509000000E+03 0.  0.
<mgrwt>
<rscale>  2 0.45071126E+03</rscale>
<asrwt>0</asrwt>
<pdfrwt beam="1">  1       21 0.13365217E-01 0.45071126E+03</pdfrwt>
<pdfrwt beam="2">  1       21 0.82175619E-01 0.45071126E+03</pdfrwt>
<totfact> 0.57645764E+04</totfact>
</mgrwt>
</event>
<event>
 7    0  0.4737014E-002  0.4465645E+03  0.7546771E-02  0.1028752E+00
         21   -1    0    0  502  501  0.00000000000E+00  0.00000000000E+00  0.17424502448E+02  0.17424502448E+02  0.00000000000E+00 0.  1.
         21   -1    0    0  501  502 -0.00000000000E+00 -0.00000000000E+00 -0.28611981852E+04  0.28611981852E+04  0.00000000000E+00 0.  1.
      99926    2    1    2    0    0 -0.71054273576E-14  0.00000000000E+00 -0.28437736828E+04  0.28786226877E+04  0.44656446246E+03 0.  0.
      99925    2    3    3    0    0 -0.40953839401E+02 -0.96424156257E+02 -0.17978313657E+04  0.18200303801E+04  0.26332134393E+03 0.  0.
         25    1    4    4    0    0 -0.51592589824E+02 -0.39572693719E+02 -0.74548372519E+03  0.75869709768E+03  0.12509000000E+03 0.  0.
         25    1    4    4    0    0  0.10638750423E+02 -0.56851462538E+02 -0.10523476405E+04  0.10613332824E+04  0.12509000000E+03 0.  0.
         25    1    3    3    0    0  0.40953839401E+02  0.96424156257E+02 -0.10459423171E+04  0.10585923076E+04  0.12509000000E+03 0.  0.
<mgrwt>
<rscale>  2 0.44656446E+03</rscale>
<asrwt>0</asrwt>
<pdfrwt beam="1">  1       21 0.25624250E-02 0.44656446E+03</pdfrwt>
<pdfrwt beam="2">  1       21 0.42076475E+00 0.44656446E+03</pdfrwt>
<totfact> 0.42539927E+03</totfact>
</mgrwt>
</event>
<event>
 7    0  0.4737014E-002  0.4528423E+03  0.7546771E-02  0.1026878E+00
         21   -1    0    0  502  501  0.00000000000E+00  0.00000000000E+00  0.31338895804E+02  0.31338895804E+02  0.00000000000E+00 0.  1.
         21   -1    0    0  501  502 -0.00000000000E+00 -0.00000000000E+00 -0.16358754087E+04  0.16358754087E+04  0.00000000000E+00 0.  1.
      99926    2    1    2    0    0  0.00000000000E+00 -0.14210854715E-13 -0.16045365129E+04  0.16672143045E+04  0.45284226386E+03 0.  0.
      99925    2    3    3    0    0 -0.27508341787E+02  0.10761865515E+03 -0.10115786143E+04  0.10511095558E+04  0.26306182073E+03 0.  0.
         25    1    4    4    0    0 -0.48740553236E+01  0.82959244672E+02 -0.43582587657E+03  0.46097472326E+03  0.12509000000E+03 0.  0.
         25    1    4    4    0    0 -0.22634286463E+02  0.24659410473E+02 -0.57575273776E+03  0.59013483255E+03  0.12509000000E+03 0.  0.
         25    1    3    3    0    0  0.27508341787E+02 -0.10761865515E+03 -0.59295789861E+03  0.61610474874E+03  0.12509000000E+03 0.  0.
<mgrwt>
<rscale>  2 0.45284226E+03</rscale>
<asrwt>0</asrwt>
<pdfrwt beam="1">  1       21 0.46086581E-02 0.45284226E+03</pdfrwt>
<pdfrwt beam="2">  1       21 0.24057007E+00 0.45284226E+03</pdfrwt>
<totfact> 0.20290469E+04</totfact>
</mgrwt>
</event>
<event>
 7    0  0.4737014E-002  0.4508755E+03  0.7546771E-02  0.1027461E+00
         21   -1    0    0  502  501  0.00000000000E+00  0.00000000000E+00  0.57529645881E+02  0.57529645881E+02  0.00000000000E+00 0.  1.
         21   -1    0    0  501  502 -0.00000000000E+00 -0.00000000000E+00 -0.88340844745E+03  0.88340844745E+03  0.00000000000E+00 0.  1.
      99926    2    1    2    0    0  0.00000000000E+00  0.14210854715E-13 -0.82587880157E+03  0.94093809333E+03  0.45087548237E+03 0.  0.
      99925    2    3    3    0    0  0.16773089243E+02 -0.10224802019E+03 -0.44977438732E+03  0.53125769024E+03  0.26306223560E+03 0.  0.
         25    1    3    3    0    0 -0.16773089243E+02  0.10224802019E+03 -0.37610441425E+03  0.40968040309E+03  0.12509000000E+03 0.  0.
         25    1    4    4    0    0  0.10657339379E+02 -0.17009115581E+02 -0.15820570983E+03  0.20268064441E+03  0.12509000000E+03 0.  0.
         25    1    4    4    0    0  0.61157498632E+01 -0.85238904610E+02 -0.29156867749E+03  0.32857704583E+03  0.12509000000E+03 0.  0.
<mgrwt>
<rscale>  2 0.45087548E+03</rscale>
<asrwt>0</asrwt>
<pdfrwt beam="1">  1       21 0.84602419E-02 0.45087548E+03</pdfrwt>
<pdfrwt beam="2">  1       21 0.12991301E+00 0.45087548E+03</pdfrwt>
<totfact> 0.42876330E+04</totfact>
</mgrwt>
</event>
<event>
 7    0  0.4737014E-002  0.4675326E+03  0.7546771E-02  0.1022619E+00
         21   -1    0    0  502  501  0.00000000000E+00  0.00000000000E+00  0.24081485797E+03  0.24081485797E+03  0.00000000000E+00 0. -1.
         21   -1    0    0  501  502 -0.00000000000E+00 -0.00000000000E+00 -0.22692408183E+03  0.22692408183E+03  0.00000000000E+00 0. -1.
      99926    2    1    2    0    0  0.00000000000E+00  0.00000000000E+00  0.13890776138E+02  0.46773893980E+03  0.46753263217E+03 0.  0.
      99925    2    3    3    0    0 -0.75266662544E+02 -0.91699934401E+02 -0.32317123150E+02  0.28925469255E+03  0.26182041986E+03 0.  0.
         25    1    4    4    0    0 -0.19578004511E+01 -0.34982746803E+02  0.16068491218E+01  0.12991426258E+03  0.12509000000E+03 0.  0.
         25    1    3    3    0    0  0.75266662544E+02  0.91699934401E+02  0.46207899287E+02  0.17848424725E+03  0.12509000000E+03 0.  0.
         25    1    4    4    0    0 -0.73308862093E+02 -0.56717187598E+02 -0.33923972272E+02  0.15934042998E+03  0.12509000000E+03 0.  0.
<mgrwt>
<rscale>  2 0.46753263E+03</rscale>
<asrwt>0</asrwt>
<pdfrwt beam="1">  1       21 0.35413950E-01 0.46753263E+03</pdfrwt>
<pdfrwt beam="2">  1       21 0.33371188E-01 0.46753263E+03</pdfrwt>
<totfact> 0.61263279E+04</totfact>
</mgrwt>
</event>
<event>
 7    0  0.4737014E-002  0.4560119E+03  0.7546771E-02  0.1025944E+00
         21   -1    0    0  502  501  0.00000000000E+00  0.00000000000E+00  0.43131112835E+03  0.43131112835E+03  0.00000000000E+00 0.  1.
         21   -1    0    0  501  502 -0.00000000000E+00 -0.00000000000E+00 -0.12053181427E+03  0.12053181427E+03  0.00000000000E+00 0.  1.
      99926    2    1    2    0    0 -0.35527136788E-14 -0.35527136788E-14  0.31077931408E+03  0.55184294262E+03  0.45601189815E+03 0.  0.
      99925    2    3    3    0    0 -0.24195019183E+02 -0.23011835404E+02  0.63579167663E+02  0.27279032391E+03  0.26316782998E+03 0.  0.
         25    1    4    4    0    0  0.77429184969E+01 -0.27956206406E+02  0.64260261361E+02  0.14359105666E+03  0.12509000000E+03 0.  0.
         25    1    3    3    0    0  0.24195019183E+02  0.23011835404E+02  0.24720014641E+03  0.27905261871E+03  0.12509000000E+03 0.  0.
         25    1    4    4    0    0 -0.31937937680E+02  0.49443710021E+01 -0.68109369754E+00  0.12919926724E+03  0.12509000000E+03 0.  0.
<mgrwt>
<rscale>  2 0.45601190E+03</rscale>
<asrwt>0</asrwt>
<pdfrwt beam="1">  1       21 0.63428107E-01 0.45601190E+03</pdfrwt>
<pdfrwt beam="2">  1       21 0.17725267E-01 0.45601190E+03</pdfrwt>
<totfact> 0.61253046E+04</totfact>
</mgrwt>
</event>
<event>
 7    0  0.4737014E-002  0.4603875E+03  0.7546771E-02  0.1024669E+00
         21   -1    0    0  502  501  0.00000000000E+00  0.00000000000E+00  0.30878282916E+04  0.30878282916E+04  0.00000000000E+00 0. -1.
         21   -1    0    0  501  502 -0.00000000000E+00 -0.00000000000E+00 -0.17160656130E+02  0.17160656130E+02  0.00000000000E+00 0. -1.
      99926    2    1    2    0    0 -0.14210854715E-13  0.00000000000E+00  0.30706676355E+04  0.31049889478E+04  0.46038748681E+03 0.  0.
      99925    2    3    3    0    0  0.67476432202E+02 -0.96749639542E+02  0.18651904811E+04  0.18873123735E+04  0.26286670135E+03 0.  0.
         25    1    3    3    0    0 -0.67476432202E+02  0.96749639542E+02  0.12054771544E+04  0.12176765743E+04  0.12509000000E+03 0.  0.
         25    1    4    4    0    0  0.52334317509E+02 -0.31494226278E+02  0.11310477855E+04  0.11395821024E+04  0.12509000000E+03 0.  0.
         25    1    4    4    0    0  0.15142114694E+02 -0.65255413263E+02  0.73414269558E+03  0.74773027100E+03  0.12509000000E+03 0.  0.
<mgrwt>
<rscale>  2 0.46038749E+03</rscale>
<asrwt>0</asrwt>
<pdfrwt beam="1">  1       21 0.45409201E+00 0.46038749E+03</pdfrwt>
<pdfrwt beam="2">  1       21 0.25236280E-02 0.46038749E+03</pdfrwt>
<totfact> 0.25939032E+03</totfact>
</mgrwt>
</event>
<event>
 7    0  0.4737014E-002  0.4157792E+03  0.7546771E-02  0.1038449E+00
         21   -1    0    0  502  501  0.00000000000E+00  0.00000000000E+00  0.19147183298E+03  0.19147183298E+03  0.00000000000E+00 0.  1.
         21   -1    0    0  501  502 -0.00000000000E+00 -0.00000000000E+00 -0.22571510424E+03  0.22571510424E+03  0.00000000000E+00 0.  1.
      99926    2    1    2    0    0  0.17763568394E-14  0.00000000000E+00 -0.34243271264E+02  0.41718693722E+03  0.41577919496E+03 0.  0.
      99925    2    3    3    0    0 -0.14859643269E+02  0.42278892260E+02 -0.76846892166E+02  0.27764880500E+03  0.26301159738E+03 0.  0.
         25    1    4    4    0    0 -0.24735491367E+02  0.52498562113E+02 -0.19356029522E+02  0.13924836637E+03  0.12509000000E+03 0.  0.
         25    1    4    4    0    0  0.98758480985E+01 -0.10219669853E+02 -0.57490862644E+02  0.13840043864E+03  0.12509000000E+03 0.  0.
         25    1    3    3    0    0  0.14859643269E+02 -0.42278892260E+02  0.42603620902E+02  0.13953813222E+03  0.12509000000E+03 0.  0.
<mgrwt>
<rscale>  2 0.41577919E+03</rscale>
<asrwt>0</asrwt>
<pdfrwt beam="1">  1       21 0.28157622E-01 0.41577919E+03</pdfrwt>
<pdfrwt beam="2">  1       21 0.33193398E-01 0.41577919E+03</pdfrwt>
<totfact> 0.98928392E+04</totfact>
</mgrwt>
</event>
<event>
 7    0  0.4737014E-002  0.4027741E+03  0.7546771E-02  0.1042823E+00
         21   -1    0    0  502  501  0.00000000000E+00  0.00000000000E+00  0.26318175592E+03  0.26318175592E+03  0.00000000000E+00 0.  1.
         21   -1    0    0  501  502 -0.00000000000E+00 -0.00000000000E+00 -0.15410163308E+03  0.15410163308E+03  0.00000000000E+00 0.  1.
      99926    2    1    2    0    0  0.00000000000E+00  0.00000000000E+00  0.10908012283E+03  0.41728338900E+03  0.40277407257E+03 0.  0.
      99925    2    3    3    0    0  0.37537350862E+02 -0.12482120421E+02  0.10538535808E+03  0.28603547311E+03  0.26295505726E+03 0.  0.
         25    1    4    4    0    0  0.20644799164E+02 -0.42601346328E+02  0.34318396497E+02  0.13808092873E+03  0.12509000000E+03 0.  0.
         25    1    3    3    0    0 -0.37537350862E+02  0.12482120421E+02  0.36947647541E+01  0.13124791589E+03  0.12509000000E+03 0.  0.
         25    1    4    4    0    0  0.16892551698E+02  0.30119225907E+02  0.71066961583E+02  0.14795454437E+03  0.12509000000E+03 0.  0.
<mgrwt>
<rscale>  2 0.40277407E+03</rscale>
<asrwt>0</asrwt>
<pdfrwt beam="1">  1       21 0.38703199E-01 0.40277407E+03</pdfrwt>
<pdfrwt beam="2">  1       21 0.22662005E-01 0.40277407E+03</pdfrwt>
<totfact> 0.11084313E+05</totfact>
</mgrwt>
</event>
<event>
 7    0  0.4737014E-002  0.4551751E+03  0.7546771E-02  0.1026190E+00
         21   -1    0    0  502  501  0.00000000000E+00  0.00000000000E+00  0.45244411541E+02  0.45244411541E+02  0.00000000000E+00 0. -1.
         21   -1    0    0  501  502 -0.00000000000E+00 -0.00000000000E+00 -0.11448065221E+04  0.11448065221E+04  0.00000000000E+00 0. -1.
      99926    2    1    2    0    0  0.44408920985E-15  0.00000000000E+00 -0.10995621105E+04  0.11900509336E+04  0.45517511979E+03 0.  0.
      99925    2    3    3    0    0 -0.31041130050E+01 -0.88324347671E+02 -0.50631467986E+03  0.57735129431E+03  0.26300025872E+03 0.  0.
         25    1    3    3    0    0  0.31041130050E+01  0.88324347671E+02 -0.59324743066E+03  0.61269963930E+03  0.12509000000E+03 0.  0.
         25    1    4    4    0    0  0.47074339766E+01 -0.70675313933E+02 -0.20353212991E+03  0.24917864262E+03  0.12509000000E+03 0.  0.
         25    1    4    4    0    0 -0.78115469816E+01 -0.17649033738E+02 -0.30278254996E+03  0.32817265169E+03  0.12509000000E+03 0.  0.
<mgrwt>
<rscale>  2 0.45517512E+03</rscale>
<asrwt>0</asrwt>
<pdfrwt beam="1">  1       21 0.66535895E-02 0.45517512E+03</pdfrwt>
<pdfrwt beam="2">  1       21 0.16835391E+00 0.45517512E+03</pdfrwt>
<totfact> 0.32428604E+04</totfact>
</mgrwt>
</event>
<event>
 7    0  0.4737014E-002  0.4431636E+03  0.7546771E-02  0.1029781E+00
         21   -1    0    0  502  501  0.00000000000E+00  0.00000000000E+00  0.37240216070E+02  0.37240216070E+02  0.00000000000E+00 0.  1.
         21   -1    0    0  501  502 -0.00000000000E+00 -0.00000000000E+00 -0.13184267808E+04  0.13184267808E+04  0.00000000000E+00 0.  1.
      99926    2    1    2    0    0  0.35527136788E-14  0.00000000000E+00 -0.12811865647E+04  0.13556669969E+04  0.44316361849E+03 0.  0.
      99925    2    3    3    0    0  0.18513826647E+02  0.98869561605E+02 -0.76830440793E+03  0.81825322066E+03  0.26292340690E+03 0.  0.
         25    1    4    4    0    0  0.36818556601E+02  0.40820202087E+02 -0.29851105518E+03  0.32829598409E+03  0.12509000000E+03 0.  0.
         25    1    3    3    0    0 -0.18513826647E+02 -0.98869561605E+02 -0.51288215679E+03  0.53741377619E+03  0.12509000000E+03 0.  0.
         25    1    4    4    0    0 -0.18304729954E+02  0.58049359518E+02 -0.46979335275E+03  0.48995723657E+03  0.12509000000E+03 0.  0.
<mgrwt>
<rscale>  2 0.44316362E+03</rscale>
<asrwt>0</asrwt>
<pdfrwt beam="1">  1       21 0.54765026E-02 0.44316362E+03</pdfrwt>
<pdfrwt beam="2">  1       21 0.19388628E+00 0.44316362E+03</pdfrwt>
<totfact> 0.30224355E+04</totfact>
</mgrwt>
</event>
<event>
 7    0  0.4737014E-002  0.4331922E+03  0.7546771E-02  0.1032856E+00
         21   -1    0    0  502  501  0.00000000000E+00  0.00000000000E+00  0.68340454673E+02  0.68340454673E+02  0.00000000000E+00 0.  1.
         21   -1    0    0  501  502 -0.00000000000E+00 -0.00000000000E+00 -0.68647300813E+03  0.68647300813E+03  0.00000000000E+00 0.  1.
      99926    2    1    2    0    0 -0.14210854715E-13 -0.26645352591E-14 -0.61813255345E+03  0.75481346280E+03  0.43319223214E+03 0.  0.
      99925    2    3    3    0    0  0.68857611915E+02 -0.39065327873E+01 -0.50256166122E+03  0.57107241962E+03  0.26229535529E+03 0.  0.
         25    1    4    4    0    0  0.44976779050E+02 -0.28035844967E+02 -0.31536737073E+03  0.34338463256E+03  0.12509000000E+03 0.  0.
         25    1    4    4    0    0  0.23880832866E+02  0.24129312180E+02 -0.18719429049E+03  0.22768778706E+03  0.12509000000E+03 0.  0.
         25    1    3    3    0    0 -0.68857611915E+02  0.39065327873E+01 -0.11557089223E+03  0.18374104318E+03  0.12509000000E+03 0.  0.
<mgrwt>
<rscale>  2 0.43319223E+03</rscale>
<asrwt>0</asrwt>
<pdfrwt beam="1">  1       21 0.10050067E-01 0.43319223E+03</pdfrwt>
<pdfrwt beam="2">  1       21 0.10095191E+00 0.43319223E+03</pdfrwt>
<totfact> 0.59595857E+04</totfact>
</mgrwt>
</event>
<event>
 7    0  0.4737014E-002  0.4517957E+03  0.7546771E-02  0.1027188E+00
         21   -1    0    0  502  501  0.00000000000E+00  0.00000000000E+00  0.69568007396E+02  0.69568007396E+02  0.00000000000E+00 0. -1.
         21   -1    0    0  501  502 -0.00000000000E+00 -0.00000000000E+00 -0.73352455652E+03  0.73352455652E+03  0.00000000000E+00 0. -1.
      99926    2    1    2    0    0  0.14210854715E-13 -0.71054273576E-14 -0.66395654912E+03  0.80309256392E+03  0.45179571389E+03 0.  0.
      99925    2    3    3    0    0 -0.83327672726E+02  0.48707963408E+02 -0.51294642300E+03  0.58453471566E+03  0.26315553234E+03 0.  0.
         25    1    3    3    0    0  0.83327672726E+02 -0.48707963408E+02 -0.15101012612E+03  0.21855784825E+03  0.12509000000E+03 0.  0.
         25    1    4    4    0    0 -0.58386714638E+02 -0.10791335339E+02 -0.28007496649E+03  0.31243392313E+03  0.12509000000E+03 0.  0.
         25    1    4    4    0    0 -0.24940958088E+02  0.59499298747E+02 -0.23287145651E+03  0.27210079254E+03  0.12509000000E+03 0.  0.
<mgrwt>
<rscale>  2 0.45179571E+03</rscale>
<asrwt>0</asrwt>
<pdfrwt beam="1">  1       21 0.10230589E-01 0.45179571E+03</pdfrwt>
<pdfrwt beam="2">  1       21 0.10787126E+00 0.45179571E+03</pdfrwt>
<totfact> 0.48831988E+04</totfact>
</mgrwt>
</event>
<event>
 7    0  0.4737014E-002  0.4541115E+03  0.7546771E-02  0.1026503E+00
         21   -1    0    0  502  501  0.00000000000E+00  0.00000000000E+00  0.50838725964E+02  0.50838725964E+02  0.00000000000E+00 0. -1.
         21   -1    0    0  501  502 -0.00000000000E+00 -0.00000000000E+00 -0.10140755072E+04  0.10140755072E+04  0.00000000000E+00 0. -1.
      99926    2    1    2    0    0  0.00000000000E+00 -0.14210854715E-13 -0.96323678125E+03  0.10649142332E+04  0.45411147010E+03 0.  0.
      99925    2    3    3    0    0  0.44685458689E+02 -0.84126580796E+02 -0.74622674641E+03  0.79693114577E+03  0.26300346430E+03 0.  0.
         25    1    4    4    0    0  0.20472986396E+02  0.36106093188E+00 -0.34830374330E+03  0.37065115572E+03  0.12509000000E+03 0.  0.
         25    1    3    3    0    0 -0.44685458689E+02  0.84126580796E+02 -0.21701003485E+03  0.26798308741E+03  0.12509000000E+03 0.  0.
         25    1    4    4    0    0  0.24212472293E+02 -0.84487641728E+02 -0.39792300310E+03  0.42627999005E+03  0.12509000000E+03 0.  0.
<mgrwt>
<rscale>  2 0.45411147E+03</rscale>
<asrwt>0</asrwt>
<pdfrwt beam="1">  1       21 0.74762833E-02 0.45411147E+03</pdfrwt>
<pdfrwt beam="2">  1       21 0.14912875E+00 0.45411147E+03</pdfrwt>
<totfact> 0.36990692E+04</totfact>
</mgrwt>
</event>
<event>
 7    0  0.4737014E-002  0.4653572E+03  0.7546771E-02  0.1023239E+00
         21   -1    0    0  502  501  0.00000000000E+00  0.00000000000E+00  0.43068975674E+02  0.43068975674E+02  0.00000000000E+00 0.  1.
         21   -1    0    0  501  502 -0.00000000000E+00 -0.00000000000E+00 -0.12570376837E+04  0.12570376837E+04  0.00000000000E+00 0.  1.
      99926    2    1    2    0    0  0.00000000000E+00  0.00000000000E+00 -0.12139687080E+04  0.13001066594E+04  0.46535717646E+03 0.  0.
      99925    2    3    3    0    0 -0.33882039813E+02  0.67553097375E+02 -0.48656198712E+03  0.55816362969E+03  0.26285482040E+03 0.  0.
         25    1    4    4    0    0 -0.50318247072E+02  0.58498230853E+02 -0.26621139735E+03  0.30408877845E+03  0.12509000000E+03 0.  0.
         25    1    4    4    0    0  0.16436207259E+02  0.90548665222E+01 -0.22035058978E+03  0.25407485124E+03  0.12509000000E+03 0.  0.
         25    1    3    3    0    0  0.33882039813E+02 -0.67553097375E+02 -0.72740672090E+03  0.74194302969E+03  0.12509000000E+03 0.  0.
<mgrwt>
<rscale>  2 0.46535718E+03</rscale>
<asrwt>0</asrwt>
<pdfrwt beam="1">  1       21 0.63336728E-02 0.46535718E+03</pdfrwt>
<pdfrwt beam="2">  1       21 0.18485848E+00 0.46535718E+03</pdfrwt>
<totfact> 0.26879508E+04</totfact>
</mgrwt>
</event>
<event>
 7    0  0.4737014E-002  0.4560329E+03  0.7546771E-02  0.1025938E+00
         21   -1    0    0  502  501  0.00000000000E+00  0.00000000000E+00  0.77343644193E+03  0.77343644193E+03  0.00000000000E+00 0. -1.
         21   -1    0    0  501  502 -0.00000000000E+00 -0.00000000000E+00 -0.67221414834E+02  0.67221414834E+02  0.00000000000E+00 0. -1.
      99926    2    1    2    0    0  0.00000000000E+00  0.00000000000E+00  0.70621502710E+03  0.84065785677E+03  0.45603285807E+03 0.  0.
      99925    2    3    3    0    0 -0.91728909092E+02 -0.65396485042E+02  0.40978258878E+03  0.49976111051E+03  0.26296103227E+03 0.  0.
         25    1    3    3    0    0  0.91728909092E+02  0.65396485042E+02  0.29643243832E+03  0.34089674626E+03  0.12509000000E+03 0.  0.
         25    1    4    4    0    0 -0.74525274203E+01 -0.47711305437E+02  0.18481777562E+03  0.22833533918E+03  0.12509000000E+03 0.  0.
         25    1    4    4    0    0 -0.84276381672E+02 -0.17685179605E+02  0.22496481316E+03  0.27142577133E+03  0.12509000000E+03 0.  0.
<mgrwt>
<rscale>  2 0.45603286E+03</rscale>
<asrwt>0</asrwt>
<pdfrwt beam="1">  1       21 0.11374065E+00 0.45603286E+03</pdfrwt>
<pdfrwt beam="2">  1       21 0.98855026E-02 0.45603286E+03</pdfrwt>
<totfact> 0.45490484E+04</totfact>
</mgrwt>
</event>
<event>
 7    0  0.4737014E-002  0.4700941E+03  0.7546771E-02  0.1021894E+00
         21   -1    0    0  502  501  0.00000000000E+00  0.00000000000E+00  0.19381346850E+04  0.19381346850E+04  0.00000000000E+00 0.  1.
         21   -1    0    0  501  502 -0.00000000000E+00 -0.00000000000E+00 -0.28505308460E+02  0.28505308460E+02  0.00000000000E+00 0.  1.
      99926    2    1    2    0    0  0.00000000000E+00  0.00000000000E+00  0.19096293766E+04  0.19666399935E+04  0.47009414816E+03 0.  0.
      99925    2    3    3    0    0 -0.60075812422E+02  0.33368255274E+02  0.16318885322E+04  0.16543740357E+04  0.26300327866E+03 0.  0.
         25    1    3    3    0    0  0.60075812422E+02 -0.33368255274E+02  0.27774084435E+03  0.31226595783E+03  0.12509000000E+03 0.  0.
         25    1    4    4    0    0  0.31989546103E+01  0.20076037361E+02  0.92053657651E+03  0.92921922999E+03  0.12509000000E+03 0.  0.
         25    1    4    4    0    0 -0.63274767032E+02  0.13292217913E+02  0.71135195571E+03  0.72515480567E+03  0.12509000000E+03 0.  0.
<mgrwt>
<rscale>  2 0.47009415E+03</rscale>
<asrwt>0</asrwt>
<pdfrwt beam="1">  1       21 0.28501972E+00 0.47009415E+03</pdfrwt>
<pdfrwt beam="2">  1       21 0.41919585E-02 0.47009415E+03</pdfrwt>
<totfact> 0.12707224E+04</totfact>
</mgrwt>
</event>
<event>
 7    0  0.4737014E-002  0.4613190E+03  0.7546771E-02  0.1024399E+00
         21   -1    0    0  502  501  0.00000000000E+00  0.00000000000E+00  0.35172735701E+02  0.35172735701E+02  0.00000000000E+00 0.  1.
         21   -1    0    0  501  502 -0.00000000000E+00 -0.00000000000E+00 -0.15126434916E+04  0.15126434916E+04  0.00000000000E+00 0.  1.
      99926    2    1    2    0    0 -0.71054273576E-14  0.00000000000E+00 -0.14774707559E+04  0.15478162273E+04  0.46131902081E+03 0.  0.
      99925    2    3    3    0    0  0.46603228959E+02 -0.48212210843E+02 -0.59480018422E+03  0.65380776849E+03  0.26302292820E+03 0.  0.
         25    1    4    4    0    0  0.18754224133E+02  0.81446972681E+01 -0.22271068429E+03  0.25625302732E+03  0.12509000000E+03 0.  0.
         25    1    4    4    0    0  0.27849004825E+02 -0.56356908111E+02 -0.37208949993E+03  0.39755474116E+03  0.12509000000E+03 0.  0.
         25    1    3    3    0    0 -0.46603228959E+02  0.48212210843E+02 -0.88267057172E+03  0.89400845886E+03  0.12509000000E+03 0.  0.
<mgrwt>
<rscale>  2 0.46131902E+03</rscale>
<asrwt>0</asrwt>
<pdfrwt beam="1">  1       21 0.51724602E-02 0.46131902E+03</pdfrwt>
<pdfrwt beam="2">  1       21 0.22244761E+00 0.46131902E+03</pdfrwt>
<totfact> 0.21553869E+04</totfact>
</mgrwt>
</event>
<event>
 7    0  0.4737014E-002  0.4556802E+03  0.7546771E-02  0.1026042E+00
         21   -1    0    0  502  501  0.00000000000E+00  0.00000000000E+00  0.70303200006E+02  0.70303200006E+02  0.00000000000E+00 0. -1.
         21   -1    0    0  501  502 -0.00000000000E+00 -0.00000000000E+00 -0.73838913158E+03  0.73838913158E+03  0.00000000000E+00 0. -1.
      99926    2    1    2    0    0  0.00000000000E+00  0.00000000000E+00 -0.66808593157E+03  0.80869233158E+03  0.45568023350E+03 0.  0.
      99925    2    3    3    0    0 -0.87722821789E+02  0.24764317546E+02 -0.30031893984E+03  0.40968276630E+03  0.26332477758E+03 0.  0.
         25    1    4    4    0    0 -0.32589251583E+02  0.19717022010E+02 -0.89812225341E+02  0.15863342711E+03  0.12509000000E+03 0.  0.
         25    1    3    3    0    0  0.87722821789E+02 -0.24764317546E+02 -0.36776699173E+03  0.39900956529E+03  0.12509000000E+03 0.  0.
         25    1    4    4    0    0 -0.55133570206E+02  0.50472955357E+01 -0.21050671450E+03  0.25104933919E+03  0.12509000000E+03 0.  0.
<mgrwt>
<rscale>  2 0.45568023E+03</rscale>
<asrwt>0</asrwt>
<pdfrwt beam="1">  1       21 0.10338706E-01 0.45568023E+03</pdfrwt>
<pdfrwt beam="2">  1       21 0.10858663E+00 0.45568023E+03</pdfrwt>
<totfact> 0.47095346E+04</totfact>
</mgrwt>
</event>
<event>
 7    0  0.4737014E-002  0.4587813E+03  0.7546771E-02  0.1025135E+00
         21   -1    0    0  502  501  0.00000000000E+00  0.00000000000E+00  0.12049238385E+03  0.12049238385E+03  0.00000000000E+00 0.  1.
         21   -1    0    0  501  502 -0.00000000000E+00 -0.00000000000E+00 -0.43670862712E+03  0.43670862712E+03  0.00000000000E+00 0.  1.
      99926    2    1    2    0    0 -0.14210854715E-13  0.00000000000E+00 -0.31621624327E+03  0.55720101096E+03  0.45878127045E+03 0.  0.
      99925    2    3    3    0    0  0.71131017699E+02 -0.87021751033E+02 -0.23376165546E+03  0.36990799459E+03  0.26373283085E+03 0.  0.
         25    1    4    4    0    0  0.73408929706E+02 -0.33679251413E+02 -0.10156049398E+03  0.18023652508E+03  0.12509000000E+03 0.  0.
         25    1    3    3    0    0 -0.71131017699E+02  0.87021751033E+02 -0.82454587810E+02  0.18729301637E+03  0.12509000000E+03 0.  0.
         25    1    4    4    0    0 -0.22779120069E+01 -0.53342499619E+02 -0.13220116148E+03  0.18967146951E+03  0.12509000000E+03 0.  0.
<mgrwt>
<rscale>  2 0.45878127E+03</rscale>
<asrwt>0</asrwt>
<pdfrwt beam="1">  1       21 0.17719468E-01 0.45878127E+03</pdfrwt>
<pdfrwt beam="2">  1       21 0.64221858E-01 0.45878127E+03</pdfrwt>
<totfact> 0.59590590E+04</totfact>
</mgrwt>
</event>
<event>
 7    0  0.4737014E-002  0.4588157E+03  0.7546771E-02  0.1025125E+00
         21   -1    0    0  502  501  0.00000000000E+00  0.00000000000E+00  0.10253570734E+03  0.10253570734E+03  0.00000000000E+00 0. -1.
         21   -1    0    0  501  502 -0.00000000000E+00 -0.00000000000E+00 -0.51326480273E+03  0.51326480273E+03  0.00000000000E+00 0. -1.
      99926    2    1    2    0    0  0.71054273576E-14  0.00000000000E+00 -0.41072909538E+03  0.61580051007E+03  0.45881573470E+03 0.  0.
      99925    2    3    3    0    0  0.34212116270E+02  0.66818254433E+02 -0.37761043805E+03  0.46620271066E+03  0.26290716323E+03 0.  0.
         25    1    3    3    0    0 -0.34212116270E+02 -0.66818254433E+02 -0.33118657329E+02  0.14959779941E+03  0.12509000000E+03 0.  0.
         25    1    4    4    0    0 -0.11682277325E+02  0.29924289276E+01 -0.17461170765E+03  0.21513295141E+03  0.12509000000E+03 0.  0.
         25    1    4    4    0    0  0.45894393595E+02  0.63825825505E+02 -0.20299873040E+03  0.25106975925E+03  0.12509000000E+03 0.  0.
<mgrwt>
<rscale>  2 0.45881573E+03</rscale>
<asrwt>0</asrwt>
<pdfrwt beam="1">  1       21 0.15078781E-01 0.45881573E+03</pdfrwt>
<pdfrwt beam="2">  1       21 0.75480117E-01 0.45881573E+03</pdfrwt>
<totfact> 0.56009050E+04</totfact>
</mgrwt>
</event>
<event>
 7    0  0.4737014E-002  0.4511185E+03  0.7546771E-02  0.1027389E+00
         21   -1    0    0  502  501  0.00000000000E+00  0.00000000000E+00  0.93317646341E+02  0.93317646341E+02  0.00000000000E+00 0.  1.
         21   -1    0    0  501  502 -0.00000000000E+00 -0.00000000000E+00 -0.54520202741E+03  0.54520202741E+03  0.00000000000E+00 0.  1.
      99926    2    1    2    0    0  0.17763568394E-14  0.00000000000E+00 -0.45188438107E+03  0.63851967376E+03  0.45111847658E+03 0.  0.
      99925    2    3    3    0    0 -0.84862845532E+01  0.76571834237E+02 -0.39557444991E+03  0.48118697127E+03  0.26291917594E+03 0.  0.
         25    1    3    3    0    0  0.84862845532E+01 -0.76571834237E+02 -0.56309931163E+02  0.15733270249E+03  0.12509000000E+03 0.  0.
         25    1    4    4    0    0  0.22537932105E+02  0.64869303268E+01 -0.18311984565E+03  0.22300319419E+03  0.12509000000E+03 0.  0.
         25    1    4    4    0    0 -0.31024216658E+02  0.70084903910E+02 -0.21245460426E+03  0.25818377708E+03  0.12509000000E+03 0.  0.
<mgrwt>
<rscale>  2 0.45111848E+03</rscale>
<asrwt>0</asrwt>
<pdfrwt beam="1">  1       21 0.13723183E-01 0.45111848E+03</pdfrwt>
<pdfrwt beam="2">  1       21 0.80176769E-01 0.45111848E+03</pdfrwt>
<totfact> 0.58127963E+04</totfact>
</mgrwt>
</event>
<event>
 7    0  0.4737014E-002  0.4518394E+03  0.7546771E-02  0.1027175E+00
         21   -1    0    0  502  501  0.00000000000E+00  0.00000000000E+00  0.43898392316E+03  0.43898392316E+03  0.00000000000E+00 0. -1.
         21   -1    0    0  501  502 -0.00000000000E+00 -0.00000000000E+00 -0.11626782779E+03  0.11626782779E+03  0.00000000000E+00 0. -1.
      99926    2    1    2    0    0  0.00000000000E+00  0.71054273576E-14  0.32271609537E+03  0.55525175094E+03  0.45183938376E+03 0.  0.
      99925    2    3    3    0    0 -0.84858310197E+02  0.53419182618E+02  0.25931291651E+03  0.38285101698E+03  0.26320556729E+03 0.  0.
         25    1    4    4    0    0 -0.31855884645E+02  0.64793434277E+02  0.11812109320E+03  0.18658265533E+03  0.12509000000E+03 0.  0.
         25    1    3    3    0    0  0.84858310197E+02 -0.53419182618E+02  0.63403178855E+02  0.17240073396E+03  0.12509000000E+03 0.  0.
         25    1    4    4    0    0 -0.53002425552E+02 -0.11374251659E+02  0.14119182331E+03  0.19626836165E+03  0.12509000000E+03 0.  0.
<mgrwt>
<rscale>  2 0.45183938E+03</rscale>
<asrwt>0</asrwt>
<pdfrwt beam="1">  1       21 0.64556459E-01 0.45183938E+03</pdfrwt>
<pdfrwt beam="2">  1       21 0.17098210E-01 0.45183938E+03</pdfrwt>
<totfact> 0.63083339E+04</totfact>
</mgrwt>
</event>
<event>
 7    0  0.4737014E-002  0.4498934E+03  0.7546771E-02  0.1027754E+00
         21   -1    0    0  502  501  0.00000000000E+00  0.00000000000E+00  0.10678012847E+03  0.10678012847E+03  0.00000000000E+00 0. -1.
         21   -1    0    0  501  502 -0.00000000000E+00 -0.00000000000E+00 -0.47388044626E+03  0.47388044626E+03  0.00000000000E+00 0. -1.
      99926    2    1    2    0    0  0.00000000000E+00  0.00000000000E+00 -0.36710031778E+03  0.58066057473E+03  0.44989338707E+03 0.  0.
      99925    2    3    3    0    0  0.45387957239E+02  0.97730876296E+02 -0.24673827830E+03  0.37634239274E+03  0.26294947756E+03 0.  0.
         25    1    4    4    0    0  0.96694453063E+01  0.26987872848E+02 -0.15859427323E+03  0.20401346783E+03  0.12509000000E+03 0.  0.
         25    1    4    4    0    0  0.35718511933E+02  0.70743003448E+02 -0.88144005068E+02  0.17232892491E+03  0.12509000000E+03 0.  0.
         25    1    3    3    0    0 -0.45387957239E+02 -0.97730876296E+02 -0.12036203949E+03  0.20431818199E+03  0.12509000000E+03 0.  0.
<mgrwt>
<rscale>  2 0.44989339E+03</rscale>
<asrwt>0</asrwt>
<pdfrwt beam="1">  1       21 0.15702960E-01 0.44989339E+03</pdfrwt>
<pdfrwt beam="2">  1       21 0.69688299E-01 0.44989339E+03</pdfrwt>
<totfact> 0.62364513E+04</totfact>
</mgrwt>
</event>
<event>
 7    0  0.4737014E-002  0.4430581E+03  0.7546771E-02  0.1029813E+00
         21   -1    0    0  502  501  0.00000000000E+00  0.00000000000E+00  0.18255650203E+02  0.18255650203E+02  0.00000000000E+00 0. -1.
         21   -1    0    0  501  502 -0.00000000000E+00 -0.00000000000E+00 -0.26882152823E+04  0.26882152823E+04  0.00000000000E+00 0. -1.
      99926    2    1    2    0    0  0.35527136788E-14  0.00000000000E+00 -0.26699596321E+04  0.27064709325E+04  0.44305809039E+03 0.  0.
      99925    2    3    3    0    0  0.31194847100E+02  0.95964999322E+02 -0.17079466321E+04  0.17311253938E+04  0.26368737441E+03 0.  0.
         25    1    4    4    0    0 -0.47159737312E+01  0.75553201396E+02 -0.74524576705E+03  0.75945328234E+03  0.12509000000E+03 0.  0.
         25    1    4    4    0    0  0.35910820831E+02  0.20411797926E+02 -0.96270086509E+03  0.97167211151E+03  0.12509000000E+03 0.  0.
         25    1    3    3    0    0 -0.31194847100E+02 -0.95964999322E+02 -0.96201299995E+03  0.97534553864E+03  0.12509000000E+03 0.  0.
<mgrwt>
<rscale>  2 0.44305809E+03</rscale>
<asrwt>0</asrwt>
<pdfrwt beam="1">  1       21 0.26846550E-02 0.44305809E+03</pdfrwt>
<pdfrwt beam="2">  1       21 0.39532570E+00 0.44305809E+03</pdfrwt>
<totfact> 0.57581219E+03</totfact>
</mgrwt>
</event>
<event>
 7    0  0.4737014E-002  0.4557809E+03  0.7546771E-02  0.1026012E+00
         21   -1    0    0  502  501  0.00000000000E+00  0.00000000000E+00  0.17311456050E+03  0.17311456050E+03  0.00000000000E+00 0. -1.
         21   -1    0    0  501  502 -0.00000000000E+00 -0.00000000000E+00 -0.29999822899E+03  0.29999822899E+03  0.00000000000E+00 0. -1.
      99926    2    1    2    0    0  0.00000000000E+00  0.00000000000E+00 -0.12688366849E+03  0.47311278950E+03  0.45578091914E+03 0.  0.
      99925    2    3    3    0    0  0.67604423023E+02  0.73629871141E+02 -0.13628988945E+03  0.31271422021E+03  0.26310365566E+03 0.  0.
         25    1    4    4    0    0  0.45217216955E+02  0.78191571280E+02 -0.75050019501E+02  0.17157660696E+03  0.12509000000E+03 0.  0.
         25    1    3    3    0    0 -0.67604423023E+02 -0.73629871141E+02  0.94062209541E+01  0.16039856929E+03  0.12509000000E+03 0.  0.
         25    1    4    4    0    0  0.22387206068E+02 -0.45617001397E+01 -0.61239869945E+02  0.14113761325E+03  0.12509000000E+03 0.  0.
<mgrwt>
<rscale>  2 0.45578092E+03</rscale>
<asrwt>0</asrwt>
<pdfrwt beam="1">  1       21 0.25458024E-01 0.45578092E+03</pdfrwt>
<pdfrwt beam="2">  1       21 0.44117386E-01 0.45578092E+03</pdfrwt>
<totfact> 0.66790186E+04</totfact>
</mgrwt>
</event>
<event>
 6    0  0.4737014E-002  0.4572002E+03  0.7546771E-02  0.1025596E+00
         21   -1    0    0  502  501  0.00000000000E+00  0.00000000000E+00  0.15788931038E+04  0.15788931038E+04  0.00000000000E+00 0.  1.
         21   -1    0    0  501  502 -0.00000000000E+00 -0.00000000000E+00 -0.33097881249E+02  0.33097881249E+02  0.00000000000E+00 0.  1.
      99926    2    1    2    0    0  0.00000000000E+00  0.00000000000E+00  0.15457952226E+04  0.16119909851E+04  0.45720024696E+03 0.  0.
         25    1    3    3    0    0  0.66650271824E+01  0.97767246399E+02  0.77003492406E+03  0.78625959418E+03  0.12509000000E+03 0.  0.
         25    1    3    3    0    0  0.19530008572E+02 -0.87671519925E+02  0.39438588871E+03  0.42338570353E+03  0.12509000000E+03 0.  0.
         25    1    3    3    0    0 -0.26195035754E+02 -0.10095726474E+02  0.38137440981E+03  0.40234568738E+03  0.12509000000E+03 0.  0.
<mgrwt>
<rscale>  2 0.45720025E+03</rscale>
<asrwt>0</asrwt>
<pdfrwt beam="1">  1       21 0.23219011E+00 0.45720025E+03</pdfrwt>
<pdfrwt beam="2">  1       21 0.48673365E-02 0.45720025E+03</pdfrwt>
<totfact> 0.20802505E+04</totfact>
</mgrwt>
</event>
<event>
 7    0  0.4737014E-002  0.4593676E+03  0.7546771E-02  0.1024965E+00
         21   -1    0    0  502  501  0.00000000000E+00  0.00000000000E+00  0.94994765182E+03  0.94994765182E+03  0.00000000000E+00 0. -1.
         21   -1    0    0  501  502 -0.00000000000E+00 -0.00000000000E+00 -0.55534261303E+02  0.55534261303E+02  0.00000000000E+00 0. -1.
      99926    2    1    2    0    0  0.00000000000E+00  0.00000000000E+00  0.89441339052E+03  0.10054819131E+04  0.45936757013E+03 0.  0.
      99925    2    3    3    0    0 -0.79674184198E+02 -0.85884239598E+02  0.55497809972E+03  0.62523475275E+03  0.26304700460E+03 0.  0.
         25    1    4    4    0    0 -0.62161605001E+02 -0.78421093382E+02  0.28109452399E+03  0.32353604520E+03  0.12509000000E+03 0.  0.
         25    1    4    4    0    0 -0.17512579197E+02 -0.74631462156E+01  0.27388357573E+03  0.30169870755E+03  0.12509000000E+03 0.  0.
         25    1    3    3    0    0  0.79674184198E+02  0.85884239598E+02  0.33943529079E+03  0.38024716038E+03  0.12509000000E+03 0.  0.
<mgrwt>
<rscale>  2 0.45936757E+03</rscale>
<asrwt>0</asrwt>
<pdfrwt beam="1">  1       21 0.13969817E+00 0.45936757E+03</pdfrwt>
<pdfrwt beam="2">  1       21 0.81668037E-02 0.45936757E+03</pdfrwt>
<totfact> 0.37653492E+04</totfact>
</mgrwt>
</event>
<event>
 7    0  0.4737014E-002  0.4543123E+03  0.7546771E-02  0.1026444E+00
         21   -1    0    0  502  501  0.00000000000E+00  0.00000000000E+00  0.25623935765E+03  0.25623935765E+03  0.00000000000E+00 0. -1.
         21   -1    0    0  501  502 -0.00000000000E+00 -0.00000000000E+00 -0.20137388374E+03  0.20137388374E+03  0.00000000000E+00 0. -1.
      99926    2    1    2    0    0 -0.71054273576E-14  0.00000000000E+00  0.54865473915E+02  0.45761324139E+03  0.45431229179E+03 0.  0.
      99925    2    3    3    0    0  0.32375897122E+02 -0.27304280540E+02  0.13956278294E+03  0.30072199018E+03  0.26298711479E+03 0.  0.
         25    1    3    3    0    0 -0.32375897122E+02  0.27304280540E+02 -0.84697309028E+02  0.15689125121E+03  0.12509000000E+03 0.  0.
         25    1    4    4    0    0 -0.69436778180E+01 -0.44929111629E+02  0.82854144560E+02  0.15677741261E+03  0.12509000000E+03 0.  0.
         25    1    4    4    0    0  0.39319574940E+02  0.17624831089E+02  0.56708638383E+02  0.14394457757E+03  0.12509000000E+03 0.  0.
<mgrwt>
<rscale>  2 0.45431229E+03</rscale>
<asrwt>0</asrwt>
<pdfrwt beam="1">  1       21 0.37682259E-01 0.45431229E+03</pdfrwt>
<pdfrwt beam="2">  1       21 0.29613806E-01 0.45431229E+03</pdfrwt>
<totfact> 0.68730986E+04</totfact>
</mgrwt>
</event>
<event>
 7    0  0.4737014E-002  0.4456725E+03  0.7546771E-02  0.1029020E+00
         21   -1    0    0  502  501  0.00000000000E+00  0.00000000000E+00  0.40101444165E+03  0.40101444165E+03  0.00000000000E+00 0.  1.
         21   -1    0    0  501  502 -0.00000000000E+00 -0.00000000000E+00 -0.12382594283E+03  0.12382594283E+03  0.00000000000E+00 0.  1.
      99926    2    1    2    0    0  0.00000000000E+00  0.00000000000E+00  0.27718849883E+03  0.52484038448E+03  0.44567248658E+03 0.  0.
      99925    2    3    3    0    0  0.43416054561E+02  0.73410076087E+02  0.10546383478E+03  0.29590619873E+03  0.26299023734E+03 0.  0.
         25    1    4    4    0    0 -0.80686531890E+01  0.35134847972E+02  0.80685993913E+02  0.15315775664E+03  0.12509000000E+03 0.  0.
         25    1    3    3    0    0 -0.43416054561E+02 -0.73410076087E+02  0.17172466404E+03  0.22893418575E+03  0.12509000000E+03 0.  0.
         25    1    4    4    0    0  0.51484707750E+02  0.38275228114E+02  0.24777840870E+02  0.14274844208E+03  0.12509000000E+03 0.  0.
<mgrwt>
<rscale>  2 0.44567249E+03</rscale>
<asrwt>0</asrwt>
<pdfrwt beam="1">  1       21 0.58972712E-01 0.44567249E+03</pdfrwt>
<pdfrwt beam="2">  1       21 0.18209698E-01 0.44567249E+03</pdfrwt>
<totfact> 0.68478738E+04</totfact>
</mgrwt>
</event>
<event>
 7    0  0.4737014E-002  0.4611529E+03  0.7546771E-02  0.1024447E+00
         21   -1    0    0  502  501  0.00000000000E+00  0.00000000000E+00  0.16172206468E+03  0.16172206468E+03  0.00000000000E+00 0. -1.
         21   -1    0    0  501  502 -0.00000000000E+00 -0.00000000000E+00 -0.32874609059E+03  0.32874609059E+03  0.00000000000E+00 0. -1.
      99926    2    1    2    0    0  0.00000000000E+00  0.00000000000E+00 -0.16702402591E+03  0.49046815527E+03  0.46115288800E+03 0.  0.
      99925    2    3    3    0    0  0.92885442916E+02 -0.74116585817E+02 -0.11170883219E+03  0.30928246998E+03  0.26278472035E+03 0.  0.
         25    1    3    3    0    0 -0.92885442916E+02  0.74116585817E+02 -0.55315193722E+02  0.18118568529E+03  0.12509000000E+03 0.  0.
         25    1    4    4    0    0  0.15336495695E+02 -0.53369667591E+02 -0.31705725942E+02  0.14048590917E+03  0.12509000000E+03 0.  0.
         25    1    4    4    0    0  0.77548947221E+02 -0.20746918226E+02 -0.80003106244E+02  0.16879656081E+03  0.12509000000E+03 0.  0.
<mgrwt>
<rscale>  2 0.46115289E+03</rscale>
<asrwt>0</asrwt>
<pdfrwt beam="1">  1       21 0.23782657E-01 0.46115289E+03</pdfrwt>
<pdfrwt beam="2">  1       21 0.48345013E-01 0.46115289E+03</pdfrwt>
<totfact> 0.62820639E+04</totfact>
</mgrwt>
</event>
<event>
 7    0  0.4737014E-002  0.4569393E+03  0.7546771E-02  0.1025673E+00
         21   -1    0    0  502  501  0.00000000000E+00  0.00000000000E+00  0.31618595385E+03  0.31618595385E+03  0.00000000000E+00 0.  1.
         21   -1    0    0  501  502 -0.00000000000E+00 -0.00000000000E+00 -0.16508763319E+03  0.16508763319E+03  0.00000000000E+00 0.  1.
      99926    2    1    2    0    0  0.14210854715E-13  0.00000000000E+00  0.15109832066E+03  0.48127358704E+03  0.45693934289E+03 0.  0.
      99925    2    3    3    0    0  0.78829154175E+02 -0.81432874210E+02  0.11551793370E+03  0.30876613623E+03  0.26295776339E+03 0.  0.
         25    1    4    4    0    0  0.77796949056E+02 -0.30476950432E+02  0.49048175252E+02  0.15822275875E+03  0.12509000000E+03 0.  0.
         25    1    3    3    0    0 -0.78829154175E+02  0.81432874210E+02  0.35580386956E+02  0.17250745081E+03  0.12509000000E+03 0.  0.
         25    1    4    4    0    0  0.10322051182E+01 -0.50955923778E+02  0.66469758448E+02  0.15054337748E+03  0.12509000000E+03 0.  0.
<mgrwt>
<rscale>  2 0.45693934E+03</rscale>
<asrwt>0</asrwt>
<pdfrwt beam="1">  1       21 0.46497934E-01 0.45693934E+03</pdfrwt>
<pdfrwt beam="2">  1       21 0.24277593E-01 0.45693934E+03</pdfrwt>
<totfact> 0.65591987E+04</totfact>
</mgrwt>
</event>
<event>
 7    0  0.4737014E-002  0.4645169E+03  0.7546771E-02  0.1023479E+00
         21   -1    0    0  502  501  0.00000000000E+00  0.00000000000E+00  0.23103960119E+03  0.23103960119E+03  0.00000000000E+00 0. -1.
         21   -1    0    0  501  502 -0.00000000000E+00 -0.00000000000E+00 -0.23348373545E+03  0.23348373545E+03  0.00000000000E+00 0. -1.
      99926    2    1    2    0    0  0.00000000000E+00 -0.35527136788E-14 -0.24441342557E+01  0.46452333664E+03  0.46451690657E+03 0.  0.
      99925    2    3    3    0    0  0.11287856857E+03 -0.25313690076E+02 -0.40181725903E+02  0.29001262616E+03  0.26288856592E+03 0.  0.
         25    1    4    4    0    0  0.25474903497E+02 -0.30988510551E+02 -0.39953790089E+02  0.13730648906E+03  0.12509000000E+03 0.  0.
         25    1    3    3    0    0 -0.11287856857E+03  0.25313690076E+02  0.37737591648E+02  0.17451071048E+03  0.12509000000E+03 0.  0.
         25    1    4    4    0    0  0.87403665075E+02  0.56748204742E+01 -0.22793581389E+00  0.15270613711E+03  0.12509000000E+03 0.  0.
<mgrwt>
<rscale>  2 0.46451691E+03</rscale>
<asrwt>0</asrwt>
<pdfrwt beam="1">  1       21 0.33976412E-01 0.46451691E+03</pdfrwt>
<pdfrwt beam="2">  1       21 0.34335843E-01 0.46451691E+03</pdfrwt>
<totfact> 0.62937049E+04</totfact>
</mgrwt>
</event>
<event>
 7    0  0.4737014E-002  0.4484383E+03  0.7546771E-02  0.1028189E+00
         21   -1    0    0  502  501  0.00000000000E+00  0.00000000000E+00  0.49970086919E+03  0.49970086919E+03  0.00000000000E+00 0.  1.
         21   -1    0    0  501  502 -0.00000000000E+00 -0.00000000000E+00 -0.10060864009E+03  0.10060864009E+03  0.00000000000E+00 0.  1.
      99926    2    1    2    0    0 -0.17763568394E-14  0.00000000000E+00  0.39909222910E+03  0.60030950928E+03  0.44843828963E+03 0.  0.
      99925    2    3    3    0    0  0.97999622362E+01  0.22192581295E+02  0.11319663453E+03  0.28730415945E+03  0.26294800255E+03 0.  0.
         25    1    4    4    0    0 -0.12341444429E+02  0.44367034482E+02  0.74319768674E+02  0.15261612338E+03  0.12509000000E+03 0.  0.
         25    1    4    4    0    0  0.22141406665E+02 -0.22174453186E+02  0.38876865852E+02  0.13468803607E+03  0.12509000000E+03 0.  0.
         25    1    3    3    0    0 -0.97999622362E+01 -0.22192581295E+02  0.28589559457E+03  0.31300534983E+03  0.12509000000E+03 0.  0.
<mgrwt>
<rscale>  2 0.44843829E+03</rscale>
<asrwt>0</asrwt>
<pdfrwt beam="1">  1       21 0.73485421E-01 0.44843829E+03</pdfrwt>
<pdfrwt beam="2">  1       21 0.14795388E-01 0.44843829E+03</pdfrwt>
<totfact> 0.61801453E+04</totfact>
</mgrwt>
</event>
<event>
 7    0  0.4737014E-002  0.4291975E+03  0.7546771E-02  0.1034114E+00
         21   -1    0    0  502  501  0.00000000000E+00  0.00000000000E+00  0.38133186835E+03  0.38133186835E+03  0.00000000000E+00 0.  1.
         21   -1    0    0  501  502 -0.00000000000E+00 -0.00000000000E+00 -0.12076785786E+03  0.12076785786E+03  0.00000000000E+00 0.  1.
      99926    2    1    2    0    0  0.35527136788E-14  0.00000000000E+00  0.26056401049E+03  0.50209972621E+03  0.42919754368E+03 0.  0.
      99925    2    3    3    0    0 -0.22279701033E+02 -0.75317547409E+02  0.21135730136E+03  0.34641438217E+03  0.26298649644E+03 0.  0.
         25    1    4    4    0    0  0.27635233492E+02 -0.25649251993E+02  0.93066138858E+02  0.16040699661E+03  0.12509000000E+03 0.  0.
         25    1    3    3    0    0  0.22279701033E+02  0.75317547409E+02  0.49206709131E+02  0.15568534404E+03  0.12509000000E+03 0.  0.
         25    1    4    4    0    0 -0.49914934526E+02 -0.49668295416E+02  0.11829116250E+03  0.18600738557E+03  0.12509000000E+03 0.  0.
<mgrwt>
<rscale>  2 0.42919754E+03</rscale>
<asrwt>0</asrwt>
<pdfrwt beam="1">  1       21 0.56078216E-01 0.42919754E+03</pdfrwt>
<pdfrwt beam="2">  1       21 0.17759979E-01 0.42919754E+03</pdfrwt>
<totfact> 0.80350763E+04</totfact>
</mgrwt>
</event>
<event>
 7    0  0.4737014E-002  0.4549249E+03  0.7546771E-02  0.1026264E+00
         21   -1    0    0  502  501  0.00000000000E+00  0.00000000000E+00  0.49159770432E+03  0.49159770432E+03  0.00000000000E+00 0. -1.
         21   -1    0    0  501  502 -0.00000000000E+00 -0.00000000000E+00 -0.10524694664E+03  0.10524694664E+03  0.00000000000E+00 0. -1.
      99926    2    1    2    0    0  0.00000000000E+00  0.14210854715E-13  0.38635075768E+03  0.59684465097E+03  0.45492486130E+03 0.  0.
      99925    2    3    3    0    0  0.34857224310E+02 -0.10757420311E+03  0.24530388003E+03  0.37700615330E+03  0.26300648435E+03 0.  0.
         25    1    4    4    0    0  0.14295848094E+02 -0.12014483977E+02  0.92783481883E+02  0.15685981547E+03  0.12509000000E+03 0.  0.
         25    1    3    3    0    0 -0.34857224310E+02  0.10757420311E+03  0.14104687765E+03  0.21983849766E+03  0.12509000000E+03 0.  0.
         25    1    4    4    0    0  0.20561376216E+02 -0.95559719128E+02  0.15252039815E+03  0.22014633784E+03  0.12509000000E+03 0.  0.
<mgrwt>
<rscale>  2 0.45492486E+03</rscale>
<asrwt>0</asrwt>
<pdfrwt beam="1">  1       21 0.72293779E-01 0.45492486E+03</pdfrwt>
<pdfrwt beam="2">  1       21 0.15477492E-01 0.45492486E+03</pdfrwt>
<totfact> 0.58907877E+04</totfact>
</mgrwt>
</event>
<event>
 7    0  0.4737014E-002  0.4597796E+03  0.7546771E-02  0.1024845E+00
         21   -1    0    0  502  501  0.00000000000E+00  0.00000000000E+00  0.16425135717E+04  0.16425135717E+04  0.00000000000E+00 0.  1.
         21   -1    0    0  501  502 -0.00000000000E+00 -0.00000000000E+00 -0.32175885062E+02  0.32175885062E+02  0.00000000000E+00 0.  1.
      99926    2    1    2    0    0  0.00000000000E+00  0.00000000000E+00  0.16103376867E+04  0.16746894568E+04  0.45977963372E+03 0.  0.
      99925    2    3    3    0    0 -0.34153726947E+02  0.73123773894E+02  0.13202345070E+04  0.13486205586E+04  0.26314386638E+03 0.  0.
         25    1    4    4    0    0 -0.51959472933E+02  0.27721612070E+02  0.57502963732E+03  0.59141767516E+03  0.12509000000E+03 0.  0.
         25    1    3    3    0    0  0.34153726947E+02 -0.73123773894E+02  0.29010317971E+03  0.32606889817E+03  0.12509000000E+03 0.  0.
         25    1    4    4    0    0  0.17805745986E+02  0.45402161823E+02  0.74520486965E+03  0.75720288347E+03  0.12509000000E+03 0.  0.
<mgrwt>
<rscale>  2 0.45977963E+03</rscale>
<asrwt>0</asrwt>
<pdfrwt beam="1">  1       21 0.24154606E+00 0.45977963E+03</pdfrwt>
<pdfrwt beam="2">  1       21 0.47317489E-02 0.45977963E+03</pdfrwt>
<totfact> 0.19075699E+04</totfact>
</mgrwt>
</event>
<event>
 7    0  0.4737014E-002  0.4423596E+03  0.7546771E-02  0.1030025E+00
         21   -1    0    0  502  501  0.00000000000E+00  0.00000000000E+00  0.61514093653E+02  0.61514093653E+02  0.00000000000E+00 0.  1.
         21   -1    0    0  501  502 -0.00000000000E+00 -0.00000000000E+00 -0.79527304173E+03  0.79527304173E+03  0.00000000000E+00 0.  1.
      99926    2    1    2    0    0  0.00000000000E+00  0.00000000000E+00 -0.73375894807E+03  0.85678713538E+03  0.44235958391E+03 0.  0.
      99925    2    3    3    0    0  0.82594070193E+02  0.40585452881E+02 -0.38701080406E+03  0.47685195289E+03  0.26294764326E+03 0.  0.
         25    1    4    4    0    0  0.78539103134E+02  0.11814254717E+02 -0.23552157492E+03  0.27825507666E+03  0.12509000000E+03 0.  0.
         25    1    4    4    0    0  0.40549670589E+01  0.28771198164E+02 -0.15148922914E+03  0.19859687623E+03  0.12509000000E+03 0.  0.
         25    1    3    3    0    0 -0.82594070193E+02 -0.40585452881E+02 -0.34674814402E+03  0.37993518249E+03  0.12509000000E+03 0.  0.
<mgrwt>
<rscale>  2 0.44235958E+03</rscale>
<asrwt>0</asrwt>
<pdfrwt beam="1">  1       21 0.90461908E-02 0.44235958E+03</pdfrwt>
<pdfrwt beam="2">  1       21 0.11695191E+00 0.44235958E+03</pdfrwt>
<totfact> 0.49904110E+04</totfact>
</mgrwt>
</event>
<event>
 7    0  0.4737014E-002  0.4523511E+03  0.7546771E-02  0.1027023E+00
         21   -1    0    0  502  501  0.00000000000E+00  0.00000000000E+00  0.32202899688E+03  0.32202899688E+03  0.00000000000E+00 0. -1.
         21   -1    0    0  501  502 -0.00000000000E+00 -0.00000000000E+00 -0.15885333272E+03  0.15885333272E+03  0.00000000000E+00 0. -1.
      99926    2    1    2    0    0  0.00000000000E+00  0.00000000000E+00  0.16317566416E+03  0.48088232960E+03  0.45235109986E+03 0.  0.
      99925    2    3    3    0    0 -0.75769139204E+02 -0.65085204086E+02  0.52333169722E+02  0.28617585072E+03  0.26302245272E+03 0.  0.
         25    1    4    4    0    0 -0.55528910923E+02 -0.76274957187E+01 -0.12508156447E+01  0.13707921534E+03  0.12509000000E+03 0.  0.
         25    1    3    3    0    0  0.75769139204E+02  0.65085204086E+02  0.11084249444E+03  0.19470647889E+03  0.12509000000E+03 0.  0.
         25    1    4    4    0    0 -0.20240228281E+02 -0.57457708368E+02  0.53583985366E+02  0.14909663537E+03  0.12509000000E+03 0.  0.
<mgrwt>
<rscale>  2 0.45235110E+03</rscale>
<asrwt>0</asrwt>
<pdfrwt beam="1">  1       21 0.47357205E-01 0.45235110E+03</pdfrwt>
<pdfrwt beam="2">  1       21 0.23360784E-01 0.45235110E+03</pdfrwt>
<totfact> 0.68055710E+04</totfact>
</mgrwt>
</event>
<event>
 7    0  0.4737014E-002  0.4507568E+03  0.7546771E-02  0.1027497E+00
         21   -1    0    0  502  501  0.00000000000E+00  0.00000000000E+00  0.62590220389E+02  0.62590220389E+02  0.00000000000E+00 0. -1.
         21   -1    0    0  501  502 -0.00000000000E+00 -0.00000000000E+00 -0.81155536969E+03  0.81155536969E+03  0.00000000000E+00 0. -1.
      99926    2    1    2    0    0  0.00000000000E+00 -0.66613381478E-15 -0.74896514930E+03  0.87414559008E+03  0.45075682777E+03 0.  0.
      99925    2    3    3    0    0  0.73660293129E+02  0.17123855812E+01 -0.31671248460E+03  0.41816461976E+03  0.26291839090E+03 0.  0.
         25    1    3    3    0    0 -0.73660293129E+02 -0.17123855812E+01 -0.43225266470E+03  0.45598097032E+03  0.12509000000E+03 0.  0.
         25    1    4    4    0    0  0.63817902249E+01 -0.14722384491E+02 -0.11334839515E+03  0.16956663185E+03  0.12509000000E+03 0.  0.
         25    1    4    4    0    0  0.67278502904E+02  0.16434770073E+02 -0.20336408945E+03  0.24859798792E+03  0.12509000000E+03 0.  0.
<mgrwt>
<rscale>  2 0.45075683E+03</rscale>
<asrwt>0</asrwt>
<pdfrwt beam="1">  1       21 0.92044437E-02 0.45075683E+03</pdfrwt>
<pdfrwt beam="2">  1       21 0.11934638E+00 0.45075683E+03</pdfrwt>
<totfact> 0.45876264E+04</totfact>
</mgrwt>
</event>
<event>
 7    0  0.4737014E-002  0.4567219E+03  0.7546771E-02  0.1025736E+00
         21   -1    0    0  502  501  0.00000000000E+00  0.00000000000E+00  0.64514251579E+03  0.64514251579E+03  0.00000000000E+00 0. -1.
         21   -1    0    0  501  502 -0.00000000000E+00 -0.00000000000E+00 -0.80832867109E+02  0.80832867109E+02  0.00000000000E+00 0. -1.
      99926    2    1    2    0    0  0.00000000000E+00  0.00000000000E+00  0.56430964868E+03  0.72597538290E+03  0.45672188143E+03 0.  0.
      99925    2    3    3    0    0 -0.14096038650E+02  0.99711433900E+02  0.26705438050E+03  0.38811554373E+03  0.26301057924E+03 0.  0.
         25    1    4    4    0    0  0.79925394116E+01  0.82388487490E+02  0.11362373301E+03  0.18817439879E+03  0.12509000000E+03 0.  0.
         25    1    3    3    0    0  0.14096038650E+02 -0.99711433900E+02  0.29725526818E+03  0.33785983916E+03  0.12509000000E+03 0.  0.
         25    1    4    4    0    0 -0.22088578061E+02  0.17322946409E+02  0.15343064749E+03  0.19994114495E+03  0.12509000000E+03 0.  0.
<mgrwt>
<rscale>  2 0.45672188E+03</rscale>
<asrwt>0</asrwt>
<pdfrwt beam="1">  1       21 0.94873896E-01 0.45672188E+03</pdfrwt>
<pdfrwt beam="2">  1       21 0.11887187E-01 0.45672188E+03</pdfrwt>
<totfact> 0.50823561E+04</totfact>
</mgrwt>
</event>
<event>
 7    0  0.4737014E-002  0.4474473E+03  0.7546771E-02  0.1028486E+00
         21   -1    0    0  502  501  0.00000000000E+00  0.00000000000E+00  0.10472344165E+03  0.10472344165E+03  0.00000000000E+00 0.  1.
         21   -1    0    0  501  502 -0.00000000000E+00 -0.00000000000E+00 -0.47794722184E+03  0.47794722184E+03  0.00000000000E+00 0.  1.
      99926    2    1    2    0    0  0.00000000000E+00  0.00000000000E+00 -0.37322378019E+03  0.58267066349E+03  0.44744732873E+03 0.  0.
      99925    2    3    3    0    0  0.51727901190E+02  0.46507467044E+02 -0.13265965425E+03  0.30274687557E+03  0.26309383601E+03 0.  0.
         25    1    4    4    0    0  0.15501148253E+02  0.58460841675E+02 -0.48199696767E+02  0.14706690476E+03  0.12509000000E+03 0.  0.
         25    1    3    3    0    0 -0.51727901190E+02 -0.46507467044E+02 -0.24056412594E+03  0.27992378792E+03  0.12509000000E+03 0.  0.
         25    1    4    4    0    0  0.36226752937E+02 -0.11953374631E+02 -0.84459957484E+02  0.15567997081E+03  0.12509000000E+03 0.  0.
<mgrwt>
<rscale>  2 0.44744733E+03</rscale>
<asrwt>0</asrwt>
<pdfrwt beam="1">  1       21 0.15400506E-01 0.44744733E+03</pdfrwt>
<pdfrwt beam="2">  1       21 0.70286356E-01 0.44744733E+03</pdfrwt>
<totfact> 0.63462725E+04</totfact>
</mgrwt>
</event>
<event>
 7    0  0.4737014E-002  0.4591585E+03  0.7546771E-02  0.1025026E+00
         21   -1    0    0  502  501  0.00000000000E+00  0.00000000000E+00  0.13819757913E+04  0.13819757913E+04  0.00000000000E+00 0.  1.
         21   -1    0    0  501  502 -0.00000000000E+00 -0.00000000000E+00 -0.38138605543E+02  0.38138605543E+02  0.00000000000E+00 0.  1.
      99926    2    1    2    0    0 -0.35527136788E-14  0.00000000000E+00  0.13438371858E+04  0.14201143969E+04  0.45915848930E+03 0.  0.
      99925    2    3    3    0    0  0.22568396122E+02  0.17333449618E+02  0.49139308468E+03  0.55807133844E+03  0.26299557817E+03 0.  0.
         25    1    4    4    0    0 -0.29029322105E+02  0.41632199238E+01  0.23125751186E+03  0.26455165627E+03  0.12509000000E+03 0.  0.
         25    1    3    3    0    0 -0.22568396122E+02 -0.17333449618E+02  0.85244410111E+03  0.86204305844E+03  0.12509000000E+03 0.  0.
         25    1    4    4    0    0  0.51597718227E+02  0.13170229694E+02  0.26013557282E+03  0.29351968217E+03  0.12509000000E+03 0.  0.
<mgrwt>
<rscale>  2 0.45915849E+03</rscale>
<asrwt>0</asrwt>
<pdfrwt beam="1">  1       21 0.20323170E+00 0.45915849E+03</pdfrwt>
<pdfrwt beam="2">  1       21 0.56086194E-02 0.45915849E+03</pdfrwt>
<totfact> 0.24983790E+04</totfact>
</mgrwt>
</event>
<event>
 7    0  0.4737014E-002  0.4568650E+03  0.7546771E-02  0.1025694E+00
         21   -1    0    0  502  501  0.00000000000E+00  0.00000000000E+00  0.24229214609E+02  0.24229214609E+02  0.00000000000E+00 0. -1.
         21   -1    0    0  501  502 -0.00000000000E+00 -0.00000000000E+00 -0.21536562785E+04  0.21536562785E+04  0.00000000000E+00 0. -1.
      99926    2    1    2    0    0  0.00000000000E+00  0.00000000000E+00 -0.21294270639E+04  0.21778854931E+04  0.45686496984E+03 0.  0.
      99925    2    3    3    0    0  0.36950015607E+02 -0.44214088877E+02 -0.18116796245E+04  0.18315747473E+04  0.26298822009E+03 0.  0.
         25    1    4    4    0    0 -0.21002484502E+02 -0.31613729959E+02 -0.85923066322E+03  0.86911758295E+03  0.12509000000E+03 0.  0.
         25    1    3    3    0    0 -0.36950015607E+02  0.44214088877E+02 -0.31774743946E+03  0.34631074585E+03  0.12509000000E+03 0.  0.
         25    1    4    4    0    0  0.57952500109E+02 -0.12600358918E+02 -0.95244896123E+03  0.96245716432E+03  0.12509000000E+03 0.  0.
<mgrwt>
<rscale>  2 0.45686497E+03</rscale>
<asrwt>0</asrwt>
<pdfrwt beam="1">  1       21 0.35631211E-02 0.45686497E+03</pdfrwt>
<pdfrwt beam="2">  1       21 0.31671404E+00 0.45686497E+03</pdfrwt>
<totfact> 0.10858836E+04</totfact>
</mgrwt>
</event>
<event>
 7    0  0.4737014E-002  0.4555999E+03  0.7546771E-02  0.1026065E+00
         21   -1    0    0  502  501  0.00000000000E+00  0.00000000000E+00  0.47168512686E+03  0.47168512686E+03  0.00000000000E+00 0. -1.
         21   -1    0    0  501  502 -0.00000000000E+00 -0.00000000000E+00 -0.11001579778E+03  0.11001579778E+03  0.00000000000E+00 0. -1.
      99926    2    1    2    0    0  0.88817841970E-15  0.00000000000E+00  0.36166932908E+03  0.58170092464E+03  0.45559989259E+03 0.  0.
      99925    2    3    3    0    0 -0.42698155337E+01  0.78908682682E+02  0.33168949579E+03  0.43073367643E+03  0.26318960251E+03 0.  0.
         25    1    4    4    0    0 -0.16558723647E+02  0.67823496325E+02  0.13368792289E+03  0.19594434620E+03  0.12509000000E+03 0.  0.
         25    1    4    4    0    0  0.12288908114E+02  0.11085186357E+02  0.19800157290E+03  0.23478933023E+03  0.12509000000E+03 0.  0.
         25    1    3    3    0    0  0.42698155337E+01 -0.78908682682E+02  0.29979833295E+02  0.15096724821E+03  0.12509000000E+03 0.  0.
<mgrwt>
<rscale>  2 0.45559989E+03</rscale>
<asrwt>0</asrwt>
<pdfrwt beam="1">  1       21 0.69365459E-01 0.45559989E+03</pdfrwt>
<pdfrwt beam="2">  1       21 0.16178794E-01 0.45559989E+03</pdfrwt>
<totfact> 0.59536155E+04</totfact>
</mgrwt>
</event>
<event>
 7    0  0.4737014E-002  0.4634236E+03  0.7546771E-02  0.1023793E+00
         21   -1    0    0  502  501  0.00000000000E+00  0.00000000000E+00  0.74188692177E+03  0.74188692177E+03  0.00000000000E+00 0.  1.
         21   -1    0    0  501  502 -0.00000000000E+00 -0.00000000000E+00 -0.72369999422E+02  0.72369999422E+02  0.00000000000E+00 0.  1.
      99926    2    1    2    0    0  0.00000000000E+00  0.00000000000E+00  0.66951692234E+03  0.81425692119E+03  0.46342359068E+03 0.  0.
      99925    2    3    3    0    0 -0.35526714204E+02 -0.82619118906E+02  0.27686870385E+03  0.39246526904E+03  0.26321975990E+03 0.  0.
         25    1    4    4    0    0 -0.21684016634E+02 -0.73732181690E+02  0.18610563223E+03  0.23704313034E+03  0.12509000000E+03 0.  0.
         25    1    4    4    0    0 -0.13842697571E+02 -0.88869372157E+01  0.90763071620E+02  0.15542213870E+03  0.12509000000E+03 0.  0.
         25    1    3    3    0    0  0.35526714204E+02  0.82619118906E+02  0.39264821850E+03  0.42179165215E+03  0.12509000000E+03 0.  0.
<mgrwt>
<rscale>  2 0.46342359E+03</rscale>
<asrwt>0</asrwt>
<pdfrwt beam="1">  1       21 0.10910101E+00 0.46342359E+03</pdfrwt>
<pdfrwt beam="2">  1       21 0.10642647E-01 0.46342359E+03</pdfrwt>
<totfact> 0.44095199E+04</totfact>
</mgrwt>
</event>
<event>
 7    0  0.4737014E-002  0.4782167E+03  0.7546771E-02  0.1019626E+00
         21   -1    0    0  502  501  0.00000000000E+00  0.00000000000E+00  0.11792325628E+04  0.11792325628E+04  0.00000000000E+00 0.  1.
         21   -1    0    0  501  502 -0.00000000000E+00 -0.00000000000E+00 -0.48483054655E+02  0.48483054655E+02  0.00000000000E+00 0.  1.
      99926    2    1    2    0    0  0.00000000000E+00  0.00000000000E+00  0.11307495082E+04  0.12277156175E+04  0.47821667388E+03 0.  0.
      99925    2    3    3    0    0  0.67594817895E+01  0.73725238188E+02  0.41138271513E+03  0.49381017918E+03  0.26292898930E+03 0.  0.
         25    1    4    4    0    0  0.35918768027E+02  0.61493435318E+02  0.22604337471E+03  0.26798267824E+03  0.12509000000E+03 0.  0.
         25    1    3    3    0    0 -0.67594817895E+01 -0.73725238188E+02  0.71936679302E+03  0.73390543829E+03  0.12509000000E+03 0.  0.
         25    1    4    4    0    0 -0.29159286238E+02  0.12231802870E+02  0.18533934042E+03  0.22582750094E+03  0.12509000000E+03 0.  0.
<mgrwt>
<rscale>  2 0.47821667E+03</rscale>
<asrwt>0</asrwt>
<pdfrwt beam="1">  1       21 0.17341654E+00 0.47821667E+03</pdfrwt>
<pdfrwt beam="2">  1       21 0.71298617E-02 0.47821667E+03</pdfrwt>
<totfact> 0.26218335E+04</totfact>
</mgrwt>
</event>
<event>
 7    0  0.4737014E-002  0.4499720E+03  0.7546771E-02  0.1027730E+00
         21   -1    0    0  502  501  0.00000000000E+00  0.00000000000E+00  0.40362065982E+02  0.40362065982E+02  0.00000000000E+00 0. -1.
         21   -1    0    0  501  502 -0.00000000000E+00 -0.00000000000E+00 -0.12541156627E+04  0.12541156627E+04  0.00000000000E+00 0. -1.
      99926    2    1    2    0    0  0.17763568394E-14  0.00000000000E+00 -0.12137535968E+04  0.12944777287E+04  0.44997199526E+03 0.  0.
      99925    2    3    3    0    0  0.85830599822E+01  0.15772405471E+02 -0.45988675644E+03  0.53009225089E+03  0.26302001447E+03 0.  0.
         25    1    4    4    0    0  0.81312677082E+01 -0.20145193644E+02 -0.16863857370E+03  0.21108866142E+03  0.12509000000E+03 0.  0.
         25    1    4    4    0    0  0.45179227393E+00  0.35917599115E+02 -0.29124818274E+03  0.31900358947E+03  0.12509000000E+03 0.  0.
         25    1    3    3    0    0 -0.85830599822E+01 -0.15772405471E+02 -0.75386684032E+03  0.76438547784E+03  0.12509000000E+03 0.  0.
<mgrwt>
<rscale>  2 0.44997200E+03</rscale>
<asrwt>0</asrwt>
<pdfrwt beam="1">  1       21 0.59355989E-02 0.44997200E+03</pdfrwt>
<pdfrwt beam="2">  1       21 0.18442874E+00 0.44997200E+03</pdfrwt>
<totfact> 0.30448910E+04</totfact>
</mgrwt>
</event>
<event>
 7    0  0.4737014E-002  0.4529832E+03  0.7546771E-02  0.1026836E+00
         21   -1    0    0  502  501  0.00000000000E+00  0.00000000000E+00  0.16799745218E+03  0.16799745218E+03  0.00000000000E+00 0. -1.
         21   -1    0    0  501  502 -0.00000000000E+00 -0.00000000000E+00 -0.30535255041E+03  0.30535255041E+03  0.00000000000E+00 0. -1.
      99926    2    1    2    0    0  0.35527136788E-14  0.00000000000E+00 -0.13735509822E+03  0.47335000259E+03  0.45298322479E+03 0.  0.
      99925    2    3    3    0    0  0.22730295094E+02  0.10853617409E+03 -0.77528691068E+02  0.29580148951E+03  0.26304192795E+03 0.  0.
         25    1    4    4    0    0  0.27580140528E+02  0.94122485516E+02 -0.34599702458E+02  0.16267868312E+03  0.12509000000E+03 0.  0.
         25    1    4    4    0    0 -0.48498454343E+01  0.14413688576E+02 -0.42928988611E+02  0.13312280639E+03  0.12509000000E+03 0.  0.
         25    1    3    3    0    0 -0.22730295094E+02 -0.10853617409E+03 -0.59826407155E+02  0.17754851307E+03  0.12509000000E+03 0.  0.
<mgrwt>
<rscale>  2 0.45298322E+03</rscale>
<asrwt>0</asrwt>
<pdfrwt beam="1">  1       21 0.24705508E-01 0.45298322E+03</pdfrwt>
<pdfrwt beam="2">  1       21 0.44904786E-01 0.45298322E+03</pdfrwt>
<totfact> 0.68273614E+04</totfact>
</mgrwt>
</event>
<event>
 7    0  0.4737014E-002  0.4503145E+03  0.7546771E-02  0.1027628E+00
         21   -1    0    0  502  501  0.00000000000E+00  0.00000000000E+00  0.17895144918E+03  0.17895144918E+03  0.00000000000E+00 0.  1.
         21   -1    0    0  501  502 -0.00000000000E+00 -0.00000000000E+00 -0.28329352132E+03  0.28329352132E+03  0.00000000000E+00 0.  1.
      99926    2    1    2    0    0  0.00000000000E+00  0.00000000000E+00 -0.10434207214E+03  0.46224497050E+03  0.45031449536E+03 0.  0.
      99925    2    3    3    0    0 -0.10120587679E+03  0.31018768899E+02 -0.38154314526E+02  0.28551602301E+03  0.26240970668E+03 0.  0.
         25    1    4    4    0    0 -0.56857038922E+02  0.21038176893E+02 -0.58613837132E+02  0.15085893333E+03  0.12509000000E+03 0.  0.
         25    1    3    3    0    0  0.10120587679E+03 -0.31018768899E+02 -0.66187757611E+02  0.17672894748E+03  0.12509000000E+03 0.  0.
         25    1    4    4    0    0 -0.44348837867E+02  0.99805920058E+01  0.20459522606E+02  0.13465708968E+03  0.12509000000E+03 0.  0.
<mgrwt>
<rscale>  2 0.45031450E+03</rscale>
<asrwt>0</asrwt>
<pdfrwt beam="1">  1       21 0.26316390E-01 0.45031450E+03</pdfrwt>
<pdfrwt beam="2">  1       21 0.41660811E-01 0.45031450E+03</pdfrwt>
<totfact> 0.70604979E+04</totfact>
</mgrwt>
</event>
<event>
 7    0  0.4737014E-002  0.4577263E+03  0.7546771E-02  0.1025443E+00
         21   -1    0    0  502  501  0.00000000000E+00  0.00000000000E+00  0.95986241899E+02  0.95986241899E+02  0.00000000000E+00 0.  1.
         21   -1    0    0  501  502 -0.00000000000E+00 -0.00000000000E+00 -0.54568594111E+03  0.54568594111E+03  0.00000000000E+00 0.  1.
      99926    2    1    2    0    0  0.14210854715E-13 -0.62172489379E-14 -0.44969969921E+03  0.64167218301E+03  0.45772630575E+03 0.  0.
      99925    2    3    3    0    0  0.69148328306E+02  0.51153527565E+01 -0.15192425749E+03  0.31133087476E+03  0.26275135666E+03 0.  0.
         25    1    3    3    0    0 -0.69148328306E+02 -0.51153527565E+01 -0.29777544172E+03  0.33034130824E+03  0.12509000000E+03 0.  0.
         25    1    4    4    0    0  0.42630130196E+02 -0.35632459167E+02 -0.65810518645E+02  0.15187340982E+03  0.12509000000E+03 0.  0.
         25    1    4    4    0    0  0.26518198110E+02  0.40747811923E+02 -0.86113738845E+02  0.15945746494E+03  0.12509000000E+03 0.  0.
<mgrwt>
<rscale>  2 0.45772631E+03</rscale>
<asrwt>0</asrwt>
<pdfrwt beam="1">  1       21 0.14115624E-01 0.45772631E+03</pdfrwt>
<pdfrwt beam="2">  1       21 0.80247934E-01 0.45772631E+03</pdfrwt>
<totfact> 0.54991153E+04</totfact>
</mgrwt>
</event>
<event>
 7    0  0.4737014E-002  0.4097398E+03  0.7546771E-02  0.1040458E+00
         21   -1    0    0  502  501  0.00000000000E+00  0.00000000000E+00  0.30478240706E+03  0.30478240706E+03  0.00000000000E+00 0. -1.
         21   -1    0    0  501  502 -0.00000000000E+00 -0.00000000000E+00 -0.13771027975E+03  0.13771027975E+03  0.00000000000E+00 0. -1.
      99926    2    1    2    0    0  0.71054273576E-14  0.00000000000E+00  0.16707212731E+03  0.44249268681E+03  0.40973977370E+03 0.  0.
      99925    2    3    3    0    0  0.45457502958E+02  0.34156071090E+02  0.84019486203E+02  0.28193655624E+03  0.26305118497E+03 0.  0.
         25    1    4    4    0    0 -0.58484690931E+01 -0.11581274461E+02  0.49031485196E+02  0.13498120295E+03  0.12509000000E+03 0.  0.
         25    1    3    3    0    0 -0.45457502958E+02 -0.34156071090E+02  0.83052641110E+02  0.16055613057E+03  0.12509000000E+03 0.  0.
         25    1    4    4    0    0  0.51305972051E+02  0.45737345551E+02  0.34988001008E+02  0.14695535329E+03  0.12509000000E+03 0.  0.
<mgrwt>
<rscale>  2 0.40973977E+03</rscale>
<asrwt>0</asrwt>
<pdfrwt beam="1">  1       21 0.44820942E-01 0.40973977E+03</pdfrwt>
<pdfrwt beam="2">  1       21 0.20251512E-01 0.40973977E+03</pdfrwt>
<totfact> 0.10132409E+05</totfact>
</mgrwt>
</event>
<event>
 7    0  0.4737014E-002  0.4538301E+03  0.7546771E-02  0.1026586E+00
         21   -1    0    0  502  501  0.00000000000E+00  0.00000000000E+00  0.11520858989E+04  0.11520858989E+04  0.00000000000E+00 0.  1.
         21   -1    0    0  501  502 -0.00000000000E+00 -0.00000000000E+00 -0.44693238094E+02  0.44693238094E+02  0.00000000000E+00 0.  1.
      99926    2    1    2    0    0  0.00000000000E+00  0.00000000000E+00  0.11073926608E+04  0.11967791370E+04  0.45383014172E+03 0.  0.
      99925    2    3    3    0    0 -0.45380143938E+02 -0.10122810226E+03  0.65400569261E+03  0.71354654581E+03  0.26290443305E+03 0.  0.
         25    1    4    4    0    0 -0.58175526122E+00 -0.16162739945E+02  0.25520245619E+03  0.28467064188E+03  0.12509000000E+03 0.  0.
         25    1    3    3    0    0  0.45380143938E+02  0.10122810226E+03  0.45338696817E+03  0.48323259116E+03  0.12509000000E+03 0.  0.
         25    1    4    4    0    0 -0.44798388676E+02 -0.85065362319E+02  0.39880323642E+03  0.42887590393E+03  0.12509000000E+03 0.  0.
<mgrwt>
<rscale>  2 0.45383014E+03</rscale>
<asrwt>0</asrwt>
<pdfrwt beam="1">  1       21 0.16942438E+00 0.45383014E+03</pdfrwt>
<pdfrwt beam="2">  1       21 0.65725358E-02 0.45383014E+03</pdfrwt>
<totfact> 0.32553862E+04</totfact>
</mgrwt>
</event>
<event>
 7    0  0.4737014E-002  0.4513380E+03  0.7546771E-02  0.1027324E+00
         21   -1    0    0  502  501  0.00000000000E+00  0.00000000000E+00  0.16163094773E+03  0.16163094773E+03  0.00000000000E+00 0.  1.
         21   -1    0    0  501  502 -0.00000000000E+00 -0.00000000000E+00 -0.31507892562E+03  0.31507892562E+03  0.00000000000E+00 0.  1.
      99926    2    1    2    0    0  0.00000000000E+00  0.14210854715E-13 -0.15344797789E+03  0.47670987335E+03  0.45133803455E+03 0.  0.
      99925    2    3    3    0    0  0.38264377469E+02 -0.10140979355E+03 -0.79633012820E+02  0.29548000280E+03  0.26309486219E+03 0.  0.
         25    1    3    3    0    0 -0.38264377469E+02  0.10140979355E+03 -0.73814965070E+02  0.18122987055E+03  0.12509000000E+03 0.  0.
         25    1    4    4    0    0  0.56564618592E+02 -0.51313037652E+02 -0.23809853611E+02  0.14848232601E+03  0.12509000000E+03 0.  0.
         25    1    4    4    0    0 -0.18300241123E+02 -0.50096755896E+02 -0.55823159209E+02  0.14699767679E+03  0.12509000000E+03 0.  0.
<mgrwt>
<rscale>  2 0.45133803E+03</rscale>
<asrwt>0</asrwt>
<pdfrwt beam="1">  1       21 0.23769257E-01 0.45133803E+03</pdfrwt>
<pdfrwt beam="2">  1       21 0.46335136E-01 0.45133803E+03</pdfrwt>
<totfact> 0.68921952E+04</totfact>
</mgrwt>
</event>
<event>
 7    0  0.4737014E-002  0.4557100E+03  0.7546771E-02  0.1026033E+00
         21   -1    0    0  502  501  0.00000000000E+00  0.00000000000E+00  0.77146424520E+02  0.77146424520E+02  0.00000000000E+00 0. -1.
         21   -1    0    0  501  502 -0.00000000000E+00 -0.00000000000E+00 -0.67297864215E+03  0.67297864215E+03  0.00000000000E+00 0. -1.
      99926    2    1    2    0    0  0.00000000000E+00  0.00000000000E+00 -0.59583221763E+03  0.75012506667E+03  0.45570997803E+03 0.  0.
      99925    2    3    3    0    0 -0.37027214181E+02  0.50170969633E+02 -0.21780449998E+03  0.34708585741E+03  0.26294800136E+03 0.  0.
         25    1    4    4    0    0 -0.16254177836E+02 -0.12160049118E+02 -0.80917083576E+02  0.15035673449E+03  0.12509000000E+03 0.  0.
         25    1    3    3    0    0  0.37027214181E+02 -0.50170969633E+02 -0.37802771765E+03  0.40303920926E+03  0.12509000000E+03 0.  0.
         25    1    4    4    0    0 -0.20773036345E+02  0.62331018751E+02 -0.13688741640E+03  0.19672912292E+03  0.12509000000E+03 0.  0.
<mgrwt>
<rscale>  2 0.45570998E+03</rscale>
<asrwt>0</asrwt>
<pdfrwt beam="1">  1       21 0.11345063E-01 0.45570998E+03</pdfrwt>
<pdfrwt beam="2">  1       21 0.98967445E-01 0.45570998E+03</pdfrwt>
<totfact> 0.49985043E+04</totfact>
</mgrwt>
</event>
<event>
 7    0  0.4737014E-002  0.4529602E+03  0.7546771E-02  0.1026843E+00
         21   -1    0    0  502  501  0.00000000000E+00  0.00000000000E+00  0.40887314682E+03  0.40887314682E+03  0.00000000000E+00 0. -1.
         21   -1    0    0  501  502 -0.00000000000E+00 -0.00000000000E+00 -0.12545026894E+03  0.12545026894E+03  0.00000000000E+00 0. -1.
      99926    2    1    2    0    0  0.00000000000E+00  0.00000000000E+00  0.28342287788E+03  0.53432341576E+03  0.45296024652E+03 0.  0.
      99925    2    3    3    0    0  0.69991956066E+02 -0.46472356399E+02  0.26503188432E+03  0.38251995543E+03  0.26271859998E+03 0.  0.
         25    1    4    4    0    0  0.72851719598E+02 -0.10347993127E+02  0.12857647044E+03  0.19389138934E+03  0.12509000000E+03 0.  0.
         25    1    3    3    0    0 -0.69991956066E+02  0.46472356399E+02  0.18390993559E+02  0.15180346033E+03  0.12509000000E+03 0.  0.
         25    1    4    4    0    0 -0.28597635313E+01 -0.36124363272E+02  0.13645541388E+03  0.18862856609E+03  0.12509000000E+03 0.  0.
<mgrwt>
<rscale>  2 0.45296025E+03</rscale>
<asrwt>0</asrwt>
<pdfrwt beam="1">  1       21 0.60128404E-01 0.45296025E+03</pdfrwt>
<pdfrwt beam="2">  1       21 0.18448569E-01 0.45296025E+03</pdfrwt>
<totfact> 0.63940538E+04</totfact>
</mgrwt>
</event>
<event>
 7    0  0.4737014E-002  0.4520953E+03  0.7546771E-02  0.1027099E+00
         21   -1    0    0  502  501  0.00000000000E+00  0.00000000000E+00  0.29214130530E+03  0.29214130530E+03  0.00000000000E+00 0.  1.
         21   -1    0    0  501  502 -0.00000000000E+00 -0.00000000000E+00 -0.17490693026E+03  0.17490693026E+03  0.00000000000E+00 0.  1.
      99926    2    1    2    0    0 -0.71054273576E-14  0.00000000000E+00  0.11723437504E+03  0.46704823555E+03  0.45209529487E+03 0.  0.
      99925    2    3    3    0    0  0.48351997589E+02  0.93828450314E+02  0.10735142643E+03  0.30307605946E+03  0.26303816321E+03 0.  0.
         25    1    4    4    0    0  0.20152117873E+02  0.44211910054E+02  0.99209756638E+01  0.13456126747E+03  0.12509000000E+03 0.  0.
         25    1    4    4    0    0  0.28199879716E+02  0.49616540259E+02  0.97430450766E+02  0.16851479199E+03  0.12509000000E+03 0.  0.
         25    1    3    3    0    0 -0.48351997589E+02 -0.93828450314E+02  0.98829486067E+01  0.16397217609E+03  0.12509000000E+03 0.  0.
<mgrwt>
<rscale>  2 0.45209529E+03</rscale>
<asrwt>0</asrwt>
<pdfrwt beam="1">  1       21 0.42961956E-01 0.45209529E+03</pdfrwt>
<pdfrwt beam="2">  1       21 0.25721607E-01 0.45209529E+03</pdfrwt>
<totfact> 0.69237601E+04</totfact>
</mgrwt>
</event>
<event>
 7    0  0.4737014E-002  0.4298798E+03  0.7546771E-02  0.1033898E+00
         21   -1    0    0  502  501  0.00000000000E+00  0.00000000000E+00  0.10693513626E+03  0.10693513626E+03  0.00000000000E+00 0. -1.
         21   -1    0    0  501  502 -0.00000000000E+00 -0.00000000000E+00 -0.43202966801E+03  0.43202966801E+03  0.00000000000E+00 0. -1.
      99926    2    1    2    0    0  0.00000000000E+00 -0.88817841970E-15 -0.32509453175E+03  0.53896480427E+03  0.42987975722E+03 0.  0.
      99925    2    3    3    0    0  0.71323010472E+02  0.14444064469E+01 -0.27324404435E+03  0.38591239731E+03  0.26301523243E+03 0.  0.
         25    1    3    3    0    0 -0.71323010472E+02 -0.14444064469E+01 -0.51850487408E+02  0.15305240696E+03  0.12509000000E+03 0.  0.
         25    1    4    4    0    0  0.58170317263E+02 -0.25276847786E+02 -0.11081289527E+03  0.17874482007E+03  0.12509000000E+03 0.  0.
         25    1    4    4    0    0  0.13152693208E+02  0.26721254233E+02 -0.16243114908E+03  0.20716757723E+03  0.12509000000E+03 0.  0.
<mgrwt>
<rscale>  2 0.42987976E+03</rscale>
<asrwt>0</asrwt>
<pdfrwt beam="1">  1       21 0.15725755E-01 0.42987976E+03</pdfrwt>
<pdfrwt beam="2">  1       21 0.63533776E-01 0.42987976E+03</pdfrwt>
<totfact> 0.76761211E+04</totfact>
</mgrwt>
</event>
<event>
 7    0  0.4737014E-002  0.4505149E+03  0.7546771E-02  0.1027569E+00
         21   -1    0    0  502  501  0.00000000000E+00  0.00000000000E+00  0.30595838816E+03  0.30595838816E+03  0.00000000000E+00 0. -1.
         21   -1    0    0  501  502 -0.00000000000E+00 -0.00000000000E+00 -0.16584257462E+03  0.16584257462E+03  0.00000000000E+00 0. -1.
      99926    2    1    2    0    0  0.14210854715E-13  0.00000000000E+00  0.14011581354E+03  0.47180096278E+03  0.45051493568E+03 0.  0.
      99925    2    3    3    0    0  0.66919973707E+02  0.73986518923E+02  0.42965830471E+02  0.28461678830E+03  0.26307482915E+03 0.  0.
         25    1    4    4    0    0  0.72727725393E+02  0.54492149589E+02  0.22719054240E+02  0.15627661352E+03  0.12509000000E+03 0.  0.
         25    1    4    4    0    0 -0.58077516861E+01  0.19494369334E+02  0.20246776232E+02  0.12834017478E+03  0.12509000000E+03 0.  0.
         25    1    3    3    0    0 -0.66919973707E+02 -0.73986518923E+02  0.97149983072E+02  0.18718417448E+03  0.12509000000E+03 0.  0.
<mgrwt>
<rscale>  2 0.45051494E+03</rscale>
<asrwt>0</asrwt>
<pdfrwt beam="1">  1       21 0.44993881E-01 0.45051494E+03</pdfrwt>
<pdfrwt beam="2">  1       21 0.24388614E-01 0.45051494E+03</pdfrwt>
<totfact> 0.69751673E+04</totfact>
</mgrwt>
</event>
<event>
 7    0  0.4737014E-002  0.4538290E+03  0.7546771E-02  0.1026586E+00
         21   -1    0    0  502  501  0.00000000000E+00  0.00000000000E+00  0.35863221559E+03  0.35863221559E+03  0.00000000000E+00 0. -1.
         21   -1    0    0  501  502 -0.00000000000E+00 -0.00000000000E+00 -0.14357378050E+03  0.14357378050E+03  0.00000000000E+00 0. -1.
      99926    2    1    2    0    0  0.00000000000E+00  0.00000000000E+00  0.21505843509E+03  0.50220599608E+03  0.45382896778E+03 0.  0.
      99925    2    3    3    0    0 -0.68620539995E+02 -0.19806162627E+02  0.22998189048E+03  0.35739135522E+03  0.26407545939E+03 0.  0.
         25    1    3    3    0    0  0.68620539995E+02  0.19806162627E+02 -0.14923455394E+02  0.14481464086E+03  0.12509000000E+03 0.  0.
         25    1    4    4    0    0 -0.73899850829E+02 -0.28002209328E+02  0.11891366813E+03  0.18982434050E+03  0.12509000000E+03 0.  0.
         25    1    4    4    0    0  0.52793108339E+01  0.81960467012E+01  0.11106822236E+03  0.16756701472E+03  0.12509000000E+03 0.  0.
<mgrwt>
<rscale>  2 0.45382897E+03</rscale>
<asrwt>0</asrwt>
<pdfrwt beam="1">  1       21 0.52740031E-01 0.45382897E+03</pdfrwt>
<pdfrwt beam="2">  1       21 0.21113791E-01 0.45382897E+03</pdfrwt>
<totfact> 0.65724767E+04</totfact>
</mgrwt>
</event>
<event>
 7    0  0.4737014E-002  0.4603661E+03  0.7546771E-02  0.1024675E+00
         21   -1    0    0  502  501  0.00000000000E+00  0.00000000000E+00  0.17906608603E+04  0.17906608603E+04  0.00000000000E+00 0. -1.
         21   -1    0    0  501  502 -0.00000000000E+00 -0.00000000000E+00 -0.29589207674E+02  0.29589207674E+02  0.00000000000E+00 0. -1.
      99926    2    1    2    0    0  0.00000000000E+00  0.00000000000E+00  0.17610716526E+04  0.18202500679E+04  0.46036609809E+03 0.  0.
      99925    2    3    3    0    0 -0.67366956949E+02 -0.93864105796E+02  0.10034447202E+04  0.10437226350E+04  0.26288182739E+03 0.  0.
         25    1    4    4    0    0 -0.46115722326E+02 -0.68614382040E+02  0.65748512986E+03  0.67436547759E+03  0.12509000000E+03 0.  0.
         25    1    4    4    0    0 -0.21251234623E+02 -0.25249723756E+02  0.34595959031E+03  0.36935715744E+03  0.12509000000E+03 0.  0.
         25    1    3    3    0    0  0.67366956949E+02  0.93864105796E+02  0.75762693242E+03  0.77652743291E+03  0.12509000000E+03 0.  0.
<mgrwt>
<rscale>  2 0.46036610E+03</rscale>
<asrwt>0</asrwt>
<pdfrwt beam="1">  1       21 0.26333241E+00 0.46036610E+03</pdfrwt>
<pdfrwt beam="2">  1       21 0.43513553E-02 0.46036610E+03</pdfrwt>
<totfact> 0.16188627E+04</totfact>
</mgrwt>
</event>
<event>
 7    0  0.4737014E-002  0.4549322E+03  0.7546771E-02  0.1026261E+00
         21   -1    0    0  502  501  0.00000000000E+00  0.00000000000E+00  0.51790071056E+02  0.51790071056E+02  0.00000000000E+00 0. -1.
         21   -1    0    0  501  502 -0.00000000000E+00 -0.00000000000E+00 -0.99904923308E+03  0.99904923308E+03  0.00000000000E+00 0. -1.
      99926    2    1    2    0    0  0.00000000000E+00  0.00000000000E+00 -0.94725916202E+03  0.10508393041E+04  0.45493221811E+03 0.  0.
      99925    2    3    3    0    0  0.59788494064E+02 -0.68627447288E+02 -0.75107506826E+03  0.80099916066E+03  0.26306179251E+03 0.  0.
         25    1    4    4    0    0 -0.67705934711E+01 -0.16218019962E+02 -0.30903002882E+03  0.33385016388E+03  0.12509000000E+03 0.  0.
         25    1    3    3    0    0 -0.59788494064E+02  0.68627447288E+02 -0.19618409376E+03  0.24984014347E+03  0.12509000000E+03 0.  0.
         25    1    4    4    0    0  0.66559087535E+02 -0.52409427326E+02 -0.44204503944E+03  0.46714899678E+03  0.12509000000E+03 0.  0.
<mgrwt>
<rscale>  2 0.45493222E+03</rscale>
<asrwt>0</asrwt>
<pdfrwt beam="1">  1       21 0.76161879E-02 0.45493222E+03</pdfrwt>
<pdfrwt beam="2">  1       21 0.14691899E+00 0.45493222E+03</pdfrwt>
<totfact> 0.37266320E+04</totfact>
</mgrwt>
</event>
<event>
 7    0  0.4737014E-002  0.4523277E+03  0.7546771E-02  0.1027030E+00
         21   -1    0    0  502  501  0.00000000000E+00  0.00000000000E+00  0.52697074989E+03  0.52697074989E+03  0.00000000000E+00 0. -1.
         21   -1    0    0  501  502 -0.00000000000E+00 -0.00000000000E+00 -0.97064365310E+02  0.97064365310E+02  0.00000000000E+00 0. -1.
      99926    2    1    2    0    0  0.17763568394E-14  0.00000000000E+00  0.42990638458E+03  0.62403511520E+03  0.45232767492E+03 0.  0.
      99925    2    3    3    0    0 -0.87459305154E+01 -0.43064621929E+02  0.13169467074E+03  0.29767827471E+03  0.26332074733E+03 0.  0.
         25    1    4    4    0    0 -0.43610091690E+01  0.33222801689E+01  0.10060315925E+03  0.16061930051E+03  0.12509000000E+03 0.  0.
         25    1    3    3    0    0  0.87459305154E+01  0.43064621929E+02  0.29821171384E+03  0.32635684049E+03  0.12509000000E+03 0.  0.
         25    1    4    4    0    0 -0.43849213464E+01 -0.46386902098E+02  0.31091511489E+02  0.13705897420E+03  0.12509000000E+03 0.  0.
<mgrwt>
<rscale>  2 0.45232767E+03</rscale>
<asrwt>0</asrwt>
<pdfrwt beam="1">  1       21 0.77495698E-01 0.45232767E+03</pdfrwt>
<pdfrwt beam="2">  1       21 0.14274172E-01 0.45232767E+03</pdfrwt>
<totfact> 0.58446138E+04</totfact>
</mgrwt>
</event>
<event>
 7    0  0.4737014E-002  0.4520959E+03  0.7546771E-02  0.1027099E+00
         21   -1    0    0  502  501  0.00000000000E+00  0.00000000000E+00  0.12129038008E+03  0.12129038008E+03  0.00000000000E+00 0. -1.
         21   -1    0    0  501  502 -0.00000000000E+00 -0.00000000000E+00 -0.42128390077E+03  0.42128390077E+03  0.00000000000E+00 0. -1.
      99926    2    1    2    0    0 -0.14210854715E-13 -0.71054273576E-14 -0.29999352069E+03  0.54257428086E+03  0.45209593870E+03 0.  0.
      99925    2    3    3    0    0 -0.94592034151E+02 -0.53527936997E+02 -0.21286974023E+03  0.35535528025E+03  0.26296569346E+03 0.  0.
         25    1    4    4    0    0 -0.16384075015E+02 -0.29224062467E+02 -0.13385887097E+03  0.18624765550E+03  0.12509000000E+03 0.  0.
         25    1    4    4    0    0 -0.78207959136E+02 -0.24303874530E+02 -0.79010869257E+02  0.16910762475E+03  0.12509000000E+03 0.  0.
         25    1    3    3    0    0  0.94592034151E+02  0.53527936997E+02 -0.87123780466E+02  0.18721900060E+03  0.12509000000E+03 0.  0.
<mgrwt>
<rscale>  2 0.45209594E+03</rscale>
<asrwt>0</asrwt>
<pdfrwt beam="1">  1       21 0.17836821E-01 0.45209594E+03</pdfrwt>
<pdfrwt beam="2">  1       21 0.61953515E-01 0.45209594E+03</pdfrwt>
<totfact> 0.63813794E+04</totfact>
</mgrwt>
</event>
<event>
 7    0  0.4737014E-002  0.4513219E+03  0.7546771E-02  0.1027329E+00
         21   -1    0    0  502  501  0.00000000000E+00  0.00000000000E+00  0.44539767852E+03  0.44539767852E+03  0.00000000000E+00 0.  1.
         21   -1    0    0  501  502 -0.00000000000E+00 -0.00000000000E+00 -0.11433121627E+03  0.11433121627E+03  0.00000000000E+00 0.  1.
      99926    2    1    2    0    0  0.00000000000E+00  0.00000000000E+00  0.33106646225E+03  0.55972889479E+03  0.45132187321E+03 0.  0.
      99925    2    3    3    0    0  0.37735487237E+02 -0.86471547305E+02  0.13984756125E+03  0.31251750410E+03  0.26307518790E+03 0.  0.
         25    1    3    3    0    0 -0.37735487237E+02  0.86471547305E+02  0.19121890100E+03  0.24721139070E+03  0.12509000000E+03 0.  0.
         25    1    4    4    0    0 -0.53703616110E+01 -0.75630957908E+02  0.64407435257E+02  0.15982712033E+03  0.12509000000E+03 0.  0.
         25    1    4    4    0    0  0.43105848848E+02 -0.10840589397E+02  0.75440125997E+02  0.15269038376E+03  0.12509000000E+03 0.  0.
<mgrwt>
<rscale>  2 0.45132187E+03</rscale>
<asrwt>0</asrwt>
<pdfrwt beam="1">  1       21 0.65499658E-01 0.45132187E+03</pdfrwt>
<pdfrwt beam="2">  1       21 0.16813414E-01 0.45132187E+03</pdfrwt>
<totfact> 0.63042363E+04</totfact>
</mgrwt>
</event>
<event>
 7    0  0.4737014E-002  0.4570331E+03  0.7546771E-02  0.1025645E+00
         21   -1    0    0  502  501  0.00000000000E+00  0.00000000000E+00  0.21270184224E+02  0.21270184224E+02  0.00000000000E+00 0.  1.
         21   -1    0    0  501  502 -0.00000000000E+00 -0.00000000000E+00 -0.24550710458E+04  0.24550710458E+04  0.00000000000E+00 0.  1.
      99926    2    1    2    0    0  0.00000000000E+00 -0.14210854715E-13 -0.24338008616E+04  0.24763412300E+04  0.45703309913E+03 0.  0.
      99925    2    3    3    0    0  0.36492283830E+02  0.97321336551E+02 -0.17964003940E+04  0.18185190706E+04  0.26297168110E+03 0.  0.
         25    1    4    4    0    0 -0.38446176453E+01  0.11403080119E+02 -0.77772148483E+03  0.78780900439E+03  0.12509000000E+03 0.  0.
         25    1    4    4    0    0  0.40336901475E+02  0.85918256432E+02 -0.10186789092E+04  0.10307100662E+04  0.12509000000E+03 0.  0.
         25    1    3    3    0    0 -0.36492283830E+02 -0.97321336551E+02 -0.63740046753E+03  0.65782215943E+03  0.12509000000E+03 0.  0.
<mgrwt>
<rscale>  2 0.45703310E+03</rscale>
<asrwt>0</asrwt>
<pdfrwt beam="1">  1       21 0.31279685E-02 0.45703310E+03</pdfrwt>
<pdfrwt beam="2">  1       21 0.36103984E+00 0.45703310E+03</pdfrwt>
<totfact> 0.72614720E+03</totfact>
</mgrwt>
</event>
<event>
 7    0  0.4737014E-002  0.4558691E+03  0.7546771E-02  0.1025986E+00
         21   -1    0    0  502  501  0.00000000000E+00  0.00000000000E+00  0.53208443892E+02  0.53208443892E+02  0.00000000000E+00 0.  1.
         21   -1    0    0  501  502 -0.00000000000E+00 -0.00000000000E+00 -0.97642680588E+03  0.97642680588E+03  0.00000000000E+00 0.  1.
      99926    2    1    2    0    0  0.00000000000E+00  0.00000000000E+00 -0.92321836199E+03  0.10296352498E+04  0.45586906416E+03 0.  0.
      99925    2    3    3    0    0 -0.11381683113E+03  0.33942925789E+01 -0.57303881796E+03  0.64074064525E+03  0.26307659591E+03 0.  0.
         25    1    4    4    0    0 -0.81283522656E+02  0.16866054389E+02 -0.23814360158E+03  0.28151617702E+03  0.12509000000E+03 0.  0.
         25    1    3    3    0    0  0.11381683113E+03 -0.33942925789E+01 -0.35017954403E+03  0.38889460452E+03  0.12509000000E+03 0.  0.
         25    1    4    4    0    0 -0.32533308475E+02 -0.13471761810E+02 -0.33489521637E+03  0.35922446823E+03  0.12509000000E+03 0.  0.
<mgrwt>
<rscale>  2 0.45586906E+03</rscale>
<asrwt>0</asrwt>
<pdfrwt beam="1">  1       21 0.78247715E-02 0.45586906E+03</pdfrwt>
<pdfrwt beam="2">  1       21 0.14359217E+00 0.45586906E+03</pdfrwt>
<totfact> 0.37776672E+04</totfact>
</mgrwt>
</event>
<event>
 7    0  0.4737014E-002  0.4303861E+03  0.7546771E-02  0.1033738E+00
         21   -1    0    0  502  501  0.00000000000E+00  0.00000000000E+00  0.24298771736E+03  0.24298771736E+03  0.00000000000E+00 0.  1.
         21   -1    0    0  501  502 -0.00000000000E+00 -0.00000000000E+00 -0.19057771666E+03  0.19057771666E+03  0.00000000000E+00 0.  1.
      99926    2    1    2    0    0  0.00000000000E+00 -0.14210854715E-13  0.52410000704E+02  0.43356543402E+03  0.43038607948E+03 0.  0.
      99925    2    3    3    0    0  0.42854314794E+02 -0.65990779889E+02  0.73832734057E+02  0.28424123327E+03  0.26296488500E+03 0.  0.
         25    1    4    4    0    0  0.24674524449E+02  0.40256471284E+01  0.53455205924E+02  0.13831126177E+03  0.12509000000E+03 0.  0.
         25    1    3    3    0    0 -0.42854314794E+02  0.65990779889E+02 -0.21422733353E+02  0.14932420075E+03  0.12509000000E+03 0.  0.
         25    1    4    4    0    0  0.18179790345E+02 -0.70016427017E+02  0.20377528133E+02  0.14592997150E+03  0.12509000000E+03 0.  0.
<mgrwt>
<rscale>  2 0.43038608E+03</rscale>
<asrwt>0</asrwt>
<pdfrwt beam="1">  1       21 0.35733488E-01 0.43038608E+03</pdfrwt>
<pdfrwt beam="2">  1       21 0.28026135E-01 0.43038608E+03</pdfrwt>
<totfact> 0.85795925E+04</totfact>
</mgrwt>
</event>
<event>
 7    0  0.4737014E-002  0.4582266E+03  0.7546771E-02  0.1025297E+00
         21   -1    0    0  502  501  0.00000000000E+00  0.00000000000E+00  0.17230724156E+03  0.17230724156E+03  0.00000000000E+00 0.  1.
         21   -1    0    0  501  502 -0.00000000000E+00 -0.00000000000E+00 -0.30464705512E+03  0.30464705512E+03  0.00000000000E+00 0.  1.
      99926    2    1    2    0    0  0.00000000000E+00  0.00000000000E+00 -0.13233981356E+03  0.47695429668E+03  0.45822655409E+03 0.  0.
      99925    2    3    3    0    0  0.72628174932E+01  0.61081224496E+02 -0.18580508759E+03  0.32765691516E+03  0.26277720406E+03 0.  0.
         25    1    3    3    0    0 -0.72628174932E+01 -0.61081224496E+02  0.53465274026E+02  0.14929738153E+03  0.12509000000E+03 0.  0.
         25    1    4    4    0    0  0.31457155498E+02  0.55883246678E+02 -0.11621397538E+03  0.18238883208E+03  0.12509000000E+03 0.  0.
         25    1    4    4    0    0 -0.24194338005E+02  0.51979778179E+01 -0.69591112202E+02  0.14526808308E+03  0.12509000000E+03 0.  0.
<mgrwt>
<rscale>  2 0.45822655E+03</rscale>
<asrwt>0</asrwt>
<pdfrwt beam="1">  1       21 0.25339301E-01 0.45822655E+03</pdfrwt>
<pdfrwt beam="2">  1       21 0.44801037E-01 0.45822655E+03</pdfrwt>
<totfact> 0.65236023E+04</totfact>
</mgrwt>
</event>
<event>
 7    0  0.4737014E-002  0.4557624E+03  0.7546771E-02  0.1026017E+00
         21   -1    0    0  502  501  0.00000000000E+00  0.00000000000E+00  0.76019556440E+02  0.76019556440E+02  0.00000000000E+00 0. -1.
         21   -1    0    0  501  502 -0.00000000000E+00 -0.00000000000E+00 -0.68311157780E+03  0.68311157780E+03  0.00000000000E+00 0. -1.
      99926    2    1    2    0    0  0.35527136788E-14 -0.14210854715E-13 -0.60709202136E+03  0.75913113424E+03  0.45576239048E+03 0.  0.
      99925    2    3    3    0    0  0.26834895453E+02 -0.10914477313E+03 -0.35037094706E+03  0.45223390192E+03  0.26291254893E+03 0.  0.
         25    1    3    3    0    0 -0.26834895453E+02  0.10914477313E+03 -0.25672107430E+03  0.30689723232E+03  0.12509000000E+03 0.  0.
         25    1    4    4    0    0  0.28385110186E+02 -0.90809394367E+02 -0.22251252850E+03  0.27241768303E+03  0.12509000000E+03 0.  0.
         25    1    4    4    0    0 -0.15502147333E+01 -0.18335378767E+02 -0.12785841856E+03  0.17981621889E+03  0.12509000000E+03 0.  0.
<mgrwt>
<rscale>  2 0.45576239E+03</rscale>
<asrwt>0</asrwt>
<pdfrwt beam="1">  1       21 0.11179346E-01 0.45576239E+03</pdfrwt>
<pdfrwt beam="2">  1       21 0.10045759E+00 0.45576239E+03</pdfrwt>
<totfact> 0.49507587E+04</totfact>
</mgrwt>
</event>
<event>
 7    0  0.4737014E-002  0.4588244E+03  0.7546771E-02  0.1025123E+00
         21   -1    0    0  502  501  0.00000000000E+00  0.00000000000E+00  0.11596958548E+03  0.11596958548E+03  0.00000000000E+00 0.  1.
         21   -1    0    0  501  502 -0.00000000000E+00 -0.00000000000E+00 -0.45382556270E+03  0.45382556270E+03  0.00000000000E+00 0.  1.
      99926    2    1    2    0    0  0.00000000000E+00 -0.14210854715E-13 -0.33785597722E+03  0.56979514818E+03  0.45882442127E+03 0.  0.
      99925    2    3    3    0    0  0.32590592340E+02 -0.73083201447E+02 -0.31736322268E+03  0.41989263943E+03  0.26303443214E+03 0.  0.
         25    1    4    4    0    0  0.54215584660E+02 -0.52822973690E+02 -0.17636062589E+03  0.22908551816E+03  0.12509000000E+03 0.  0.
         25    1    3    3    0    0 -0.32590592340E+02  0.73083201447E+02 -0.20492754534E+02  0.14990250876E+03  0.12509000000E+03 0.  0.
         25    1    4    4    0    0 -0.21624992320E+02 -0.20260227757E+02 -0.14100259679E+03  0.19080712126E+03  0.12509000000E+03 0.  0.
<mgrwt>
<rscale>  2 0.45882442E+03</rscale>
<asrwt>0</asrwt>
<pdfrwt beam="1">  1       21 0.17054351E-01 0.45882442E+03</pdfrwt>
<pdfrwt beam="2">  1       21 0.66739053E-01 0.45882442E+03</pdfrwt>
<totfact> 0.58779124E+04</totfact>
</mgrwt>
</event>
<event>
 7    0  0.4737014E-002  0.4559793E+03  0.7546771E-02  0.1025954E+00
         21   -1    0    0  502  501  0.00000000000E+00  0.00000000000E+00  0.24648040851E+03  0.24648040851E+03  0.00000000000E+00 0. -1.
         21   -1    0    0  501  502 -0.00000000000E+00 -0.00000000000E+00 -0.21088606560E+03  0.21088606560E+03  0.00000000000E+00 0. -1.
      99926    2    1    2    0    0  0.00000000000E+00  0.00000000000E+00  0.35594342912E+02  0.45736647412E+03  0.45597931357E+03 0.  0.
      99925    2    3    3    0    0  0.62250023456E+02  0.58434059259E+02  0.98237840254E+02  0.29347223822E+03  0.26303170274E+03 0.  0.
         25    1    4    4    0    0  0.53243165826E+02  0.12255833024E+02  0.18241676028E+02  0.13771458526E+03  0.12509000000E+03 0.  0.
         25    1    4    4    0    0  0.90068576300E+01  0.46178226235E+02  0.79996164226E+02  0.15575765295E+03  0.12509000000E+03 0.  0.
         25    1    3    3    0    0 -0.62250023456E+02 -0.58434059259E+02 -0.62643497343E+02  0.16389423590E+03  0.12509000000E+03 0.  0.
<mgrwt>
<rscale>  2 0.45597931E+03</rscale>
<asrwt>0</asrwt>
<pdfrwt beam="1">  1       21 0.36247119E-01 0.45597931E+03</pdfrwt>
<pdfrwt beam="2">  1       21 0.31012657E-01 0.45597931E+03</pdfrwt>
<totfact> 0.67841167E+04</totfact>
</mgrwt>
</event>
<event>
 7    0  0.4737014E-002  0.4473195E+03  0.7546771E-02  0.1028524E+00
         21   -1    0    0  502  501  0.00000000000E+00  0.00000000000E+00  0.51943098102E+03  0.51943098102E+03  0.00000000000E+00 0.  1.
         21   -1    0    0  501  502 -0.00000000000E+00 -0.00000000000E+00 -0.96304781011E+02  0.96304781011E+02  0.00000000000E+00 0.  1.
      99926    2    1    2    0    0  0.00000000000E+00  0.53290705182E-14  0.42312620001E+03  0.61573576203E+03  0.44731951389E+03 0.  0.
      99925    2    3    3    0    0 -0.14144548820E+02 -0.14086986656E+02  0.41124158824E+03  0.48850658475E+03  0.26290783175E+03 0.  0.
         25    1    4    4    0    0 -0.21083035743E+02 -0.44022029258E+02  0.22606355511E+03  0.26293473051E+03  0.12509000000E+03 0.  0.
         25    1    4    4    0    0  0.69384869229E+01  0.29935042601E+02  0.18517803313E+03  0.22557185425E+03  0.12509000000E+03 0.  0.
         25    1    3    3    0    0  0.14144548820E+02  0.14086986656E+02  0.11884611773E+02  0.12722917728E+03  0.12509000000E+03 0.  0.
<mgrwt>
<rscale>  2 0.44731951E+03</rscale>
<asrwt>0</asrwt>
<pdfrwt beam="1">  1       21 0.76386908E-01 0.44731951E+03</pdfrwt>
<pdfrwt beam="2">  1       21 0.14162468E-01 0.44731951E+03</pdfrwt>
<totfact> 0.61357775E+04</totfact>
</mgrwt>
</event>
<event>
 7    0  0.4737014E-002  0.4523658E+03  0.7546771E-02  0.1027019E+00
         21   -1    0    0  502  501  0.00000000000E+00  0.00000000000E+00  0.17662967518E+03  0.17662967518E+03  0.00000000000E+00 0. -1.
         21   -1    0    0  501  502 -0.00000000000E+00 -0.00000000000E+00 -0.28963820923E+03  0.28963820923E+03  0.00000000000E+00 0. -1.
      99926    2    1    2    0    0  0.14210854715E-13  0.00000000000E+00 -0.11300853405E+03  0.46626788441E+03  0.45236579365E+03 0.  0.
      99925    2    3    3    0    0 -0.97852704024E+02  0.38710700857E+02 -0.36392244616E+02  0.28573746051E+03  0.26314982581E+03 0.  0.
         25    1    4    4    0    0 -0.72262342877E+02 -0.42792980541E+01 -0.43193292609E+02  0.15084206050E+03  0.12509000000E+03 0.  0.
         25    1    3    3    0    0  0.97852704024E+02 -0.38710700857E+02 -0.76616289439E+02  0.18053042390E+03  0.12509000000E+03 0.  0.
         25    1    4    4    0    0 -0.25590361146E+02  0.42989998911E+02  0.68010479929E+01  0.13489540001E+03  0.12509000000E+03 0.  0.
<mgrwt>
<rscale>  2 0.45236579E+03</rscale>
<asrwt>0</asrwt>
<pdfrwt beam="1">  1       21 0.25974952E-01 0.45236579E+03</pdfrwt>
<pdfrwt beam="2">  1       21 0.42593854E-01 0.45236579E+03</pdfrwt>
<totfact> 0.69148025E+04</totfact>
</mgrwt>
</event>
<event>
 7    0  0.4737014E-002  0.4566826E+03  0.7546771E-02  0.1025748E+00
         21   -1    0    0  502  501  0.00000000000E+00  0.00000000000E+00  0.51500149375E+02  0.51500149375E+02  0.00000000000E+00 0. -1.
         21   -1    0    0  501  502 -0.00000000000E+00 -0.00000000000E+00 -0.10124193382E+04  0.10124193382E+04  0.00000000000E+00 0. -1.
      99926    2    1    2    0    0  0.71054273576E-14  0.14210854715E-13 -0.96091918887E+03  0.10639194876E+04  0.45668259064E+03 0.  0.
      99925    2    3    3    0    0 -0.39022732469E+02 -0.10771371113E+03 -0.61984366951E+03  0.68299293929E+03  0.26296038348E+03 0.  0.
         25    1    4    4    0    0 -0.51080728909E+02 -0.69299485985E+02 -0.27815520521E+03  0.31690611529E+03  0.12509000000E+03 0.  0.
         25    1    4    4    0    0  0.12057996441E+02 -0.38414225141E+02 -0.34168846430E+03  0.36608682400E+03  0.12509000000E+03 0.  0.
         25    1    3    3    0    0  0.39022732469E+02  0.10771371113E+03 -0.34107551936E+03  0.38092654832E+03  0.12509000000E+03 0.  0.
<mgrwt>
<rscale>  2 0.45668259E+03</rscale>
<asrwt>0</asrwt>
<pdfrwt beam="1">  1       21 0.75735526E-02 0.45668259E+03</pdfrwt>
<pdfrwt beam="2">  1       21 0.14888517E+00 0.45668259E+03</pdfrwt>
<totfact> 0.36291859E+04</totfact>
</mgrwt>
</event>
<event>
 7    0  0.4737014E-002  0.4370927E+03  0.7546771E-02  0.1031643E+00
         21   -1    0    0  502  501  0.00000000000E+00  0.00000000000E+00  0.16333215055E+03  0.16333215055E+03  0.00000000000E+00 0.  1.
         21   -1    0    0  501  502 -0.00000000000E+00 -0.00000000000E+00 -0.29242562234E+03  0.29242562234E+03  0.00000000000E+00 0.  1.
      99926    2    1    2    0    0 -0.14210854715E-13  0.35527136788E-14 -0.12909347179E+03  0.45575777289E+03  0.43709269394E+03 0.  0.
      99925    2    3    3    0    0  0.87289155459E+02 -0.96598393898E+01 -0.43692705748E+02  0.28067634013E+03  0.26297803371E+03 0.  0.
         25    1    4    4    0    0  0.46321353764E+02 -0.32200013856E+02 -0.52309997406E+02  0.14685486929E+03  0.12509000000E+03 0.  0.
         25    1    3    3    0    0 -0.87289155459E+02  0.96598393898E+01 -0.85400766045E+02  0.17508143276E+03  0.12509000000E+03 0.  0.
         25    1    4    4    0    0  0.40967801695E+02  0.22540174466E+02  0.86172916587E+01  0.13382147083E+03  0.12509000000E+03 0.  0.
<mgrwt>
<rscale>  2 0.43709269E+03</rscale>
<asrwt>0</asrwt>
<pdfrwt beam="1">  1       21 0.24019434E-01 0.43709269E+03</pdfrwt>
<pdfrwt beam="2">  1       21 0.43003768E-01 0.43709269E+03</pdfrwt>
<totfact> 0.79173301E+04</totfact>
</mgrwt>
</event>
<event>
 6    0  0.4737014E-002  0.4562386E+03  0.7546771E-02  0.1025878E+00
         21   -1    0    0  502  501  0.00000000000E+00  0.00000000000E+00  0.18907172290E+03  0.18907172290E+03  0.00000000000E+00 0.  1.
         21   -1    0    0  501  502 -0.00000000000E+00 -0.00000000000E+00 -0.27523102257E+03  0.27523102257E+03  0.00000000000E+00 0.  1.
      99926    2    1    2    0    0  0.00000000000E+00  0.00000000000E+00 -0.86159299678E+02  0.46430274547E+03  0.45623855002E+03 0.  0.
         25    1    3    3    0    0  0.55184168897E+02  0.92162739047E+02  0.51933160925E+00  0.16488493191E+03  0.12509000000E+03 0.  0.
         25    1    3    3    0    0 -0.64840003968E+02 -0.42461850240E+02 -0.71539345172E+02  0.16362341167E+03  0.12509000000E+03 0.  0.
         25    1    3    3    0    0  0.96558350705E+01 -0.49700888807E+02 -0.15139286116E+02  0.13579440188E+03  0.12509000000E+03 0.  0.
<mgrwt>
<rscale>  2 0.45623855E+03</rscale>
<asrwt>0</asrwt>
<pdfrwt beam="1">  1       21 0.27804666E-01 0.45623855E+03</pdfrwt>
<pdfrwt beam="2">  1       21 0.40475150E-01 0.45623855E+03</pdfrwt>
<totfact> 0.67197914E+04</totfact>
</mgrwt>
</event>
<event>
 7    0  0.4737014E-002  0.4517133E+03  0.7546771E-02  0.1027212E+00
         21   -1    0    0  502  501  0.00000000000E+00  0.00000000000E+00  0.14583825421E+03  0.14583825421E+03  0.00000000000E+00 0.  1.
         21   -1    0    0  501  502 -0.00000000000E+00 -0.00000000000E+00 -0.34977942369E+03  0.34977942369E+03  0.00000000000E+00 0.  1.
      99926    2    1    2    0    0  0.00000000000E+00  0.00000000000E+00 -0.20394116948E+03  0.49561767789E+03  0.45171327414E+03 0.  0.
      99925    2    3    3    0    0  0.72971776851E+02  0.31526117670E+02 -0.45137436833E+02  0.27839679972E+03  0.26296123969E+03 0.  0.
         25    1    4    4    0    0  0.56954151519E+02  0.45411676204E+02 -0.44784623242E+02  0.15152282432E+03  0.12509000000E+03 0.  0.
         25    1    3    3    0    0 -0.72971776851E+02 -0.31526117670E+02 -0.15880373264E+03  0.21722087817E+03  0.12509000000E+03 0.  0.
         25    1    4    4    0    0  0.16017625331E+02 -0.13885558535E+02 -0.35281359142E+00  0.12687397540E+03  0.12509000000E+03 0.  0.
<mgrwt>
<rscale>  2 0.45171327E+03</rscale>
<asrwt>0</asrwt>
<pdfrwt beam="1">  1       21 0.21446803E-01 0.45171327E+03</pdfrwt>
<pdfrwt beam="2">  1       21 0.51438149E-01 0.45171327E+03</pdfrwt>
<totfact> 0.67318995E+04</totfact>
</mgrwt>
</event>
<event>
 7    0  0.4737014E-002  0.4299170E+03  0.7546771E-02  0.1033886E+00
         21   -1    0    0  502  501  0.00000000000E+00  0.00000000000E+00  0.96295904803E+03  0.96295904803E+03  0.00000000000E+00 0.  1.
         21   -1    0    0  501  502 -0.00000000000E+00 -0.00000000000E+00 -0.47984542551E+02  0.47984542551E+02  0.00000000000E+00 0.  1.
      99926    2    1    2    0    0 -0.14210854715E-13 -0.71054273576E-14  0.91497450548E+03  0.10109435906E+04  0.42991696601E+03 0.  0.
      99925    2    3    3    0    0 -0.73244824448E+02 -0.39756275966E+02  0.65395749758E+03  0.70974141214E+03  0.26292032571E+03 0.  0.
         25    1    4    4    0    0 -0.40077799431E+02 -0.48385347515E+02  0.26454183177E+03  0.29929460523E+03  0.12509000000E+03 0.  0.
         25    1    3    3    0    0  0.73244824448E+02  0.39756275966E+02  0.26101700790E+03  0.30120217844E+03  0.12509000000E+03 0.  0.
         25    1    4    4    0    0 -0.33167025017E+02  0.86290715497E+01  0.38941566581E+03  0.41044680691E+03  0.12509000000E+03 0.  0.
<mgrwt>
<rscale>  2 0.42991697E+03</rscale>
<asrwt>0</asrwt>
<pdfrwt beam="1">  1       21 0.14161161E+00 0.42991697E+03</pdfrwt>
<pdfrwt beam="2">  1       21 0.70565510E-02 0.42991697E+03</pdfrwt>
<totfact> 0.47362339E+04</totfact>
</mgrwt>
</event>
<event>
 7    0  0.4737014E-002  0.4534515E+03  0.7546771E-02  0.1026698E+00
         21   -1    0    0  502  501  0.00000000000E+00  0.00000000000E+00  0.28060320480E+03  0.28060320480E+03  0.00000000000E+00 0.  1.
         21   -1    0    0  501  502 -0.00000000000E+00 -0.00000000000E+00 -0.18319304509E+03  0.18319304509E+03  0.00000000000E+00 0.  1.
      99926    2    1    2    0    0  0.00000000000E+00  0.00000000000E+00  0.97410159711E+02  0.46379624989E+03  0.45345145517E+03 0.  0.
      99925    2    3    3    0    0 -0.85615190142E+02 -0.61919259920E+02  0.98296707562E+02  0.30005178555E+03  0.26306819603E+03 0.  0.
         25    1    4    4    0    0 -0.11409117445E+02 -0.20423587726E+02  0.72979072026E+02  0.14669950222E+03  0.12509000000E+03 0.  0.
         25    1    4    4    0    0 -0.74206072697E+02 -0.41495672194E+02  0.25317635536E+02  0.15335228334E+03  0.12509000000E+03 0.  0.
         25    1    3    3    0    0  0.85615190142E+02  0.61919259920E+02 -0.88654785088E+00  0.16374446433E+03  0.12509000000E+03 0.  0.
<mgrwt>
<rscale>  2 0.45345146E+03</rscale>
<asrwt>0</asrwt>
<pdfrwt beam="1">  1       21 0.41265177E-01 0.45345146E+03</pdfrwt>
<pdfrwt beam="2">  1       21 0.26940154E-01 0.45345146E+03</pdfrwt>
<totfact> 0.68740994E+04</totfact>
</mgrwt>
</event>
<event>
 7    0  0.4737014E-002  0.4594336E+03  0.7546771E-02  0.1024946E+00
         21   -1    0    0  502  501  0.00000000000E+00  0.00000000000E+00  0.22268628991E+03  0.22268628991E+03  0.00000000000E+00 0. -1.
         21   -1    0    0  501  502 -0.00000000000E+00 -0.00000000000E+00 -0.23696927634E+03  0.23696927634E+03  0.00000000000E+00 0. -1.
      99926    2    1    2    0    0  0.00000000000E+00  0.00000000000E+00 -0.14282986425E+02  0.45965556625E+03  0.45943360335E+03 0.  0.
      99925    2    3    3    0    0 -0.10839036613E+03  0.14459040698E+02  0.31825704176E+02  0.28722861135E+03  0.26368516152E+03 0.  0.
         25    1    4    4    0    0 -0.96417467964E+01  0.36033109045E+01  0.85656363952E+01  0.12580471119E+03  0.12509000000E+03 0.  0.
         25    1    3    3    0    0  0.10839036613E+03 -0.14459040698E+02 -0.46108690601E+02  0.17242695490E+03  0.12509000000E+03 0.  0.
         25    1    4    4    0    0 -0.98748619334E+02  0.10855729793E+02  0.23260067781E+02  0.16142390016E+03  0.12509000000E+03 0.  0.
<mgrwt>
<rscale>  2 0.45943360E+03</rscale>
<asrwt>0</asrwt>
<pdfrwt beam="1">  1       21 0.32747984E-01 0.45943360E+03</pdfrwt>
<pdfrwt beam="2">  1       21 0.34848423E-01 0.45943360E+03</pdfrwt>
<totfact> 0.65845749E+04</totfact>
</mgrwt>
</event>
<event>
 7    0  0.4737014E-002  0.4602688E+03  0.7546771E-02  0.1024703E+00
         21   -1    0    0  502  501  0.00000000000E+00  0.00000000000E+00  0.28066318588E+03  0.28066318588E+03  0.00000000000E+00 0. -1.
         21   -1    0    0  501  502 -0.00000000000E+00 -0.00000000000E+00 -0.18870251916E+03  0.18870251916E+03  0.00000000000E+00 0. -1.
      99926    2    1    2    0    0  0.00000000000E+00 -0.35527136788E-14  0.91960666725E+02  0.46936570504E+03  0.46026883540E+03 0.  0.
      99925    2    3    3    0    0 -0.82356944461E+02 -0.27931763001E+02  0.13889066794E+03  0.30995183237E+03  0.26309061378E+03 0.  0.
         25    1    4    4    0    0 -0.53725655177E+02  0.24752094993E+02  0.69827989795E+02  0.15499215622E+03  0.12509000000E+03 0.  0.
         25    1    3    3    0    0  0.82356944461E+02  0.27931763001E+02 -0.46930001216E+02  0.15941387267E+03  0.12509000000E+03 0.  0.
         25    1    4    4    0    0 -0.28631289284E+02 -0.52683857994E+02  0.69062678147E+02  0.15495967615E+03  0.12509000000E+03 0.  0.
<mgrwt>
<rscale>  2 0.46026884E+03</rscale>
<asrwt>0</asrwt>
<pdfrwt beam="1">  1       21 0.41273998E-01 0.46026884E+03</pdfrwt>
<pdfrwt beam="2">  1       21 0.27750370E-01 0.46026884E+03</pdfrwt>
<totfact> 0.64733383E+04</totfact>
</mgrwt>
</event>
<event>
 7    0  0.4737014E-002  0.4501870E+03  0.7546771E-02  0.1027666E+00
         21   -1    0    0  502  501  0.00000000000E+00  0.00000000000E+00  0.15012321874E+03  0.15012321874E+03  0.00000000000E+00 0. -1.
         21   -1    0    0  501  502 -0.00000000000E+00 -0.00000000000E+00 -0.33750330594E+03  0.33750330594E+03  0.00000000000E+00 0. -1.
      99926    2    1    2    0    0  0.14210854715E-13  0.00000000000E+00 -0.18738008719E+03  0.48762652468E+03  0.45018699503E+03 0.  0.
      99925    2    3    3    0    0  0.10310236212E+03 -0.22468845974E+02 -0.93184306487E+02  0.29880041601E+03  0.26355915373E+03 0.  0.
         25    1    4    4    0    0  0.91464217036E+02 -0.52544561042E+01 -0.33390682238E+02  0.15860566846E+03  0.12509000000E+03 0.  0.
         25    1    4    4    0    0  0.11638145086E+02 -0.17214389869E+02 -0.59793624249E+02  0.14019474755E+03  0.12509000000E+03 0.  0.
         25    1    3    3    0    0 -0.10310236212E+03  0.22468845974E+02 -0.94195780707E+02  0.18882610868E+03  0.12509000000E+03 0.  0.
<mgrwt>
<rscale>  2 0.45018700E+03</rscale>
<asrwt>0</asrwt>
<pdfrwt beam="1">  1       21 0.22076944E-01 0.45018700E+03</pdfrwt>
<pdfrwt beam="2">  1       21 0.49632839E-01 0.45018700E+03</pdfrwt>
<totfact> 0.68738096E+04</totfact>
</mgrwt>
</event>
<event>
 7    0  0.4737014E-002  0.4498761E+03  0.7546771E-02  0.1027759E+00
         21   -1    0    0  502  501  0.00000000000E+00  0.00000000000E+00  0.14753543582E+03  0.14753543582E+03  0.00000000000E+00 0.  1.
         21   -1    0    0  501  502 -0.00000000000E+00 -0.00000000000E+00 -0.34294900261E+03  0.34294900261E+03  0.00000000000E+00 0.  1.
      99926    2    1    2    0    0  0.35527136788E-14  0.00000000000E+00 -0.19541356679E+03  0.49048443843E+03  0.44987611878E+03 0.  0.
      99925    2    3    3    0    0 -0.20381630939E+02 -0.70156295276E+02 -0.21094618973E+03  0.34479268464E+03  0.26276678590E+03 0.  0.
         25    1    3    3    0    0  0.20381630939E+02  0.70156295276E+02  0.15532622938E+02  0.14569175379E+03  0.12509000000E+03 0.  0.
         25    1    4    4    0    0 -0.16074117340E+02 -0.75924634235E+02 -0.12096398574E+03  0.19053273020E+03  0.12509000000E+03 0.  0.
         25    1    4    4    0    0 -0.43075135988E+01  0.57683389593E+01 -0.89982203991E+02  0.15425995444E+03  0.12509000000E+03 0.  0.
<mgrwt>
<rscale>  2 0.44987612E+03</rscale>
<asrwt>0</asrwt>
<pdfrwt beam="1">  1       21 0.21696388E-01 0.44987612E+03</pdfrwt>
<pdfrwt beam="2">  1       21 0.50433677E-01 0.44987612E+03</pdfrwt>
<totfact> 0.68696564E+04</totfact>
</mgrwt>
</event>
<event>
 7    0  0.4737014E-002  0.4371931E+03  0.7546771E-02  0.1031612E+00
         21   -1    0    0  502  501  0.00000000000E+00  0.00000000000E+00  0.13104111480E+03  0.13104111480E+03  0.00000000000E+00 0. -1.
         21   -1    0    0  501  502 -0.00000000000E+00 -0.00000000000E+00 -0.36465243804E+03  0.36465243804E+03  0.00000000000E+00 0. -1.
      99926    2    1    2    0    0 -0.35527136788E-14  0.00000000000E+00 -0.23361132323E+03  0.49569355284E+03  0.43719314723E+03 0.  0.
      99925    2    3    3    0    0  0.26439840747E+02  0.45725236651E+02 -0.23975672103E+03  0.35977027867E+03  0.26298575188E+03 0.  0.
         25    1    3    3    0    0 -0.26439840747E+02 -0.45725236651E+02  0.61453978013E+01  0.13592327416E+03  0.12509000000E+03 0.  0.
         25    1    4    4    0    0  0.52581078946E+02  0.33639223841E+02 -0.12072264143E+03  0.18471012830E+03  0.12509000000E+03 0.  0.
         25    1    4    4    0    0 -0.26141238199E+02  0.12086012810E+02 -0.11903407961E+03  0.17506015037E+03  0.12509000000E+03 0.  0.
<mgrwt>
<rscale>  2 0.43719315E+03</rscale>
<asrwt>0</asrwt>
<pdfrwt beam="1">  1       21 0.19270752E-01 0.43719315E+03</pdfrwt>
<pdfrwt beam="2">  1       21 0.53625358E-01 0.43719315E+03</pdfrwt>
<totfact> 0.75723821E+04</totfact>
</mgrwt>
</event>
<event>
 7    0  0.4737014E-002  0.4498261E+03  0.7546771E-02  0.1027774E+00
         21   -1    0    0  502  501  0.00000000000E+00  0.00000000000E+00  0.28255026437E+04  0.28255026437E+04  0.00000000000E+00 0. -1.
         21   -1    0    0  501  502 -0.00000000000E+00 -0.00000000000E+00 -0.17903324236E+02  0.17903324236E+02  0.00000000000E+00 0. -1.
      99926    2    1    2    0    0  0.71054273576E-14  0.17763568394E-14  0.28075993194E+04  0.28434059679E+04  0.44982614401E+03 0.  0.
      99925    2    3    3    0    0  0.62788425683E+02 -0.11860588711E+02  0.23272874276E+04  0.23429760712E+04  0.26303429370E+03 0.  0.
         25    1    3    3    0    0 -0.62788425683E+02  0.11860588711E+02  0.48031189186E+03  0.50042989671E+03  0.12509000000E+03 0.  0.
         25    1    4    4    0    0 -0.10140616151E+02 -0.16646371500E+01  0.10925374453E+04  0.10997232291E+04  0.12509000000E+03 0.  0.
         25    1    4    4    0    0  0.72929041834E+02 -0.10195951561E+02  0.12347499822E+04  0.12432528421E+04  0.12509000000E+03 0.  0.
<mgrwt>
<rscale>  2 0.44982614E+03</rscale>
<asrwt>0</asrwt>
<pdfrwt beam="1">  1       21 0.41551479E+00 0.44982614E+03</pdfrwt>
<pdfrwt beam="2">  1       21 0.26328438E-02 0.44982614E+03</pdfrwt>
<totfact> 0.43918989E+03</totfact>
</mgrwt>
</event>
<event>
 7    0  0.4737014E-002  0.4692384E+03  0.7546771E-02  0.1022135E+00
         21   -1    0    0  502  501  0.00000000000E+00  0.00000000000E+00  0.27197972878E+03  0.27197972878E+03  0.00000000000E+00 0.  1.
         21   -1    0    0  501  502 -0.00000000000E+00 -0.00000000000E+00 -0.20239073001E+03  0.20239073001E+03  0.00000000000E+00 0.  1.
      99926    2    1    2    0    0  0.00000000000E+00  0.00000000000E+00  0.69588998769E+02  0.47437045879E+03  0.46923842918E+03 0.  0.
      99925    2    3    3    0    0 -0.73397875326E+02  0.87642185938E+02 -0.99813474643E+01  0.28716108681E+03  0.26323651270E+03 0.  0.
         25    1    4    4    0    0 -0.50908280766E+02  0.46910053722E+02 -0.43713582829E+02  0.14950114252E+03  0.12509000000E+03 0.  0.
         25    1    4    4    0    0 -0.22489594560E+02  0.40732132216E+02  0.33732235365E+02  0.13765994429E+03  0.12509000000E+03 0.  0.
         25    1    3    3    0    0  0.73397875326E+02 -0.87642185938E+02  0.79570346234E+02  0.18720937198E+03  0.12509000000E+03 0.  0.
<mgrwt>
<rscale>  2 0.46923843E+03</rscale>
<asrwt>0</asrwt>
<pdfrwt beam="1">  1       21 0.39997019E-01 0.46923843E+03</pdfrwt>
<pdfrwt beam="2">  1       21 0.29763343E-01 0.46923843E+03</pdfrwt>
<totfact> 0.60032144E+04</totfact>
</mgrwt>
</event>
<event>
 7    0  0.4737014E-002  0.4561421E+03  0.7546771E-02  0.1025906E+00
         21   -1    0    0  502  501  0.00000000000E+00  0.00000000000E+00  0.24474505264E+03  0.24474505264E+03  0.00000000000E+00 0. -1.
         21   -1    0    0  501  502 -0.00000000000E+00 -0.00000000000E+00 -0.21253301462E+03  0.21253301462E+03  0.00000000000E+00 0. -1.
      99926    2    1    2    0    0  0.71054273576E-14  0.71054273576E-14  0.32212038019E+02  0.45727806726E+03  0.45614210001E+03 0.  0.
      99925    2    3    3    0    0  0.48833363720E+02 -0.35166939031E+02  0.11763563853E+03  0.29428693058E+03  0.26295483080E+03 0.  0.
         25    1    4    4    0    0  0.62506354422E+02 -0.42929404453E+01  0.67793840993E+02  0.15546377925E+03  0.12509000000E+03 0.  0.
         25    1    4    4    0    0 -0.13672990702E+02 -0.30873998585E+02  0.49841797540E+02  0.13882315133E+03  0.12509000000E+03 0.  0.
         25    1    3    3    0    0 -0.48833363720E+02  0.35166939031E+02 -0.85423600514E+02  0.16299113668E+03  0.12509000000E+03 0.  0.
<mgrwt>
<rscale>  2 0.45614210E+03</rscale>
<asrwt>0</asrwt>
<pdfrwt beam="1">  1       21 0.35991919E-01 0.45614210E+03</pdfrwt>
<pdfrwt beam="2">  1       21 0.31254855E-01 0.45614210E+03</pdfrwt>
<totfact> 0.67759690E+04</totfact>
</mgrwt>
</event>
<event>
 7    0  0.4737014E-002  0.4551694E+03  0.7546771E-02  0.1026192E+00
         21   -1    0    0  502  501  0.00000000000E+00  0.00000000000E+00  0.74108974122E+02  0.74108974122E+02  0.00000000000E+00 0.  1.
         21   -1    0    0  501  502 -0.00000000000E+00 -0.00000000000E+00 -0.69890060603E+03  0.69890060603E+03  0.00000000000E+00 0.  1.
      99926    2    1    2    0    0  0.00000000000E+00  0.00000000000E+00 -0.62479163191E+03  0.77300958015E+03  0.45516944944E+03 0.  0.
      99925    2    3    3    0    0  0.81696146860E+02  0.78301116809E+02 -0.40046853386E+03  0.49234307748E+03  0.26309947553E+03 0.  0.
         25    1    4    4    0    0  0.80367839325E+02  0.58362326712E+02 -0.22350769740E+03  0.27471503358E+03  0.12509000000E+03 0.  0.
         25    1    3    3    0    0 -0.81696146860E+02 -0.78301116809E+02 -0.22432309805E+03  0.28066650268E+03  0.12509000000E+03 0.  0.
         25    1    4    4    0    0  0.13283075346E+01  0.19938790096E+02 -0.17696083646E+03  0.21762804390E+03  0.12509000000E+03 0.  0.
<mgrwt>
<rscale>  2 0.45516945E+03</rscale>
<asrwt>0</asrwt>
<pdfrwt beam="1">  1       21 0.10898379E-01 0.45516945E+03</pdfrwt>
<pdfrwt beam="2">  1       21 0.10277949E+00 0.45516945E+03</pdfrwt>
<totfact> 0.49032755E+04</totfact>
</mgrwt>
</event>
<event>
 7    0  0.4737014E-002  0.4553653E+03  0.7546771E-02  0.1026134E+00
         21   -1    0    0  502  501  0.00000000000E+00  0.00000000000E+00  0.35271136068E+03  0.35271136068E+03  0.00000000000E+00 0. -1.
         21   -1    0    0  501  502 -0.00000000000E+00 -0.00000000000E+00 -0.14697395246E+03  0.14697395246E+03  0.00000000000E+00 0. -1.
      99926    2    1    2    0    0  0.00000000000E+00  0.00000000000E+00  0.20573740822E+03  0.49968531315E+03  0.45536527210E+03 0.  0.
      99925    2    3    3    0    0 -0.70348359081E+02  0.46926604068E+02  0.21272949597E+03  0.34853176477E+03  0.26281087269E+03 0.  0.
         25    1    4    4    0    0 -0.10505847610E+02  0.17843877071E+02  0.14134460797E+03  0.18988044419E+03  0.12509000000E+03 0.  0.
         25    1    4    4    0    0 -0.59842511471E+02  0.29082726997E+02  0.71384888000E+02  0.15865132059E+03  0.12509000000E+03 0.  0.
         25    1    3    3    0    0  0.70348359081E+02 -0.46926604068E+02 -0.69920877476E+01  0.15115354837E+03  0.12509000000E+03 0.  0.
<mgrwt>
<rscale>  2 0.45536527E+03</rscale>
<asrwt>0</asrwt>
<pdfrwt beam="1">  1       21 0.51869318E-01 0.45536527E+03</pdfrwt>
<pdfrwt beam="2">  1       21 0.21613817E-01 0.45536527E+03</pdfrwt>
<totfact> 0.65103796E+04</totfact>
</mgrwt>
</event>
<event>
 7    0  0.4737014E-002  0.4543690E+03  0.7546771E-02  0.1026427E+00
         21   -1    0    0  502  501  0.00000000000E+00  0.00000000000E+00  0.24571988310E+03  0.24571988310E+03  0.00000000000E+00 0. -1.
         21   -1    0    0  501  502 -0.00000000000E+00 -0.00000000000E+00 -0.21004731000E+03  0.21004731000E+03  0.00000000000E+00 0. -1.
      99926    2    1    2    0    0  0.00000000000E+00 -0.71054273576E-14  0.35672573104E+02  0.45576719310E+03  0.45436901504E+03 0.  0.
      99925    2    3    3    0    0  0.87764089345E+02 -0.32187395927E+02  0.85402286279E+02  0.29187968196E+03  0.26298599659E+03 0.  0.
         25    1    3    3    0    0 -0.87764089345E+02  0.32187395927E+02 -0.49729713175E+02  0.16388751114E+03  0.12509000000E+03 0.  0.
         25    1    4    4    0    0  0.56503995514E+01 -0.32899601781E+02  0.38887532606E+02  0.13518157827E+03  0.12509000000E+03 0.  0.
         25    1    4    4    0    0  0.82113689793E+02  0.71220585474E+00  0.46514753672E+02  0.15669810368E+03  0.12509000000E+03 0.  0.
<mgrwt>
<rscale>  2 0.45436902E+03</rscale>
<asrwt>0</asrwt>
<pdfrwt beam="1">  1       21 0.36135277E-01 0.45436902E+03</pdfrwt>
<pdfrwt beam="2">  1       21 0.30889310E-01 0.45436902E+03</pdfrwt>
<totfact> 0.68835555E+04</totfact>
</mgrwt>
</event>
<event>
 7    0  0.4737014E-002  0.4521498E+03  0.7546771E-02  0.1027083E+00
         21   -1    0    0  502  501  0.00000000000E+00  0.00000000000E+00  0.60960111621E+03  0.60960111621E+03  0.00000000000E+00 0.  1.
         21   -1    0    0  501  502 -0.00000000000E+00 -0.00000000000E+00 -0.83841472425E+02  0.83841472425E+02  0.00000000000E+00 0.  1.
      99926    2    1    2    0    0  0.00000000000E+00  0.00000000000E+00  0.52575964378E+03  0.69344258863E+03  0.45214977684E+03 0.  0.
      99925    2    3    3    0    0  0.55643779869E+02 -0.10786429539E+02  0.18637378442E+03  0.32732396450E+03  0.26304602813E+03 0.  0.
         25    1    4    4    0    0 -0.29509356525E+01 -0.13237306663E+02  0.12069215305E+03  0.17435033185E+03  0.12509000000E+03 0.  0.
         25    1    3    3    0    0 -0.55643779869E+02  0.10786429539E+02  0.33938585936E+03  0.36611862413E+03  0.12509000000E+03 0.  0.
         25    1    4    4    0    0  0.58594715521E+02  0.24508771237E+01  0.65681631363E+02  0.15297363264E+03  0.12509000000E+03 0.  0.
<mgrwt>
<rscale>  2 0.45214978E+03</rscale>
<asrwt>0</asrwt>
<pdfrwt beam="1">  1       21 0.89647221E-01 0.45214978E+03</pdfrwt>
<pdfrwt beam="2">  1       21 0.12329629E-01 0.45214978E+03</pdfrwt>
<totfact> 0.54472291E+04</totfact>
</mgrwt>
</event>
<event>
 7    0  0.4737014E-002  0.4450749E+03  0.7546771E-02  0.1029201E+00
         21   -1    0    0  502  501  0.00000000000E+00  0.00000000000E+00  0.72415758268E+03  0.72415758268E+03  0.00000000000E+00 0. -1.
         21   -1    0    0  501  502 -0.00000000000E+00 -0.00000000000E+00 -0.68386941127E+02  0.68386941127E+02  0.00000000000E+00 0. -1.
      99926    2    1    2    0    0  0.00000000000E+00  0.00000000000E+00  0.65577064156E+03  0.79254452381E+03  0.44507492391E+03 0.  0.
      99925    2    3    3    0    0 -0.69601338349E+02  0.53610730282E+02  0.31823219174E+03  0.42200684704E+03  0.26286801705E+03 0.  0.
         25    1    3    3    0    0  0.69601338349E+02 -0.53610730282E+02  0.33753844981E+03  0.37053767677E+03  0.12509000000E+03 0.  0.
         25    1    4    4    0    0 -0.67495692792E+02  0.22495247536E+02  0.20470344345E+03  0.25022532359E+03  0.12509000000E+03 0.  0.
         25    1    4    4    0    0 -0.21056455569E+01  0.31115482746E+02  0.11352874829E+03  0.17178152345E+03  0.12509000000E+03 0.  0.
<mgrwt>
<rscale>  2 0.44507492E+03</rscale>
<asrwt>0</asrwt>
<pdfrwt beam="1">  1       21 0.10649376E+00 0.44507492E+03</pdfrwt>
<pdfrwt beam="2">  1       21 0.10056904E-01 0.44507492E+03</pdfrwt>
<totfact> 0.52066364E+04</totfact>
</mgrwt>
</event>
<event>
 7    0  0.4737014E-002  0.4491581E+03  0.7546771E-02  0.1027973E+00
         21   -1    0    0  502  501  0.00000000000E+00  0.00000000000E+00  0.10038880429E+03  0.10038880429E+03  0.00000000000E+00 0. -1.
         21   -1    0    0  501  502 -0.00000000000E+00 -0.00000000000E+00 -0.50240408547E+03  0.50240408547E+03  0.00000000000E+00 0. -1.
      99926    2    1    2    0    0  0.17763568394E-14  0.00000000000E+00 -0.40201528118E+03  0.60279288977E+03  0.44915808092E+03 0.  0.
      99925    2    3    3    0    0  0.58061430061E+01 -0.22570436014E+02 -0.11339819300E+03  0.28737179414E+03  0.26302140980E+03 0.  0.
         25    1    4    4    0    0 -0.14866844247E+02  0.20431332783E+02 -0.35433639841E+02  0.13244437832E+03  0.12509000000E+03 0.  0.
         25    1    3    3    0    0 -0.58061430061E+01  0.22570436014E+02 -0.28861708818E+03  0.31542109563E+03  0.12509000000E+03 0.  0.
         25    1    4    4    0    0  0.20672987253E+02 -0.43001768797E+02 -0.77964553155E+02  0.15492741581E+03  0.12509000000E+03 0.  0.
<mgrwt>
<rscale>  2 0.44915808E+03</rscale>
<asrwt>0</asrwt>
<pdfrwt beam="1">  1       21 0.14763060E-01 0.44915808E+03</pdfrwt>
<pdfrwt beam="2">  1       21 0.73882953E-01 0.44915808E+03</pdfrwt>
<totfact> 0.61286673E+04</totfact>
</mgrwt>
</event>
<event>
 7    0  0.4737014E-002  0.4486597E+03  0.7546771E-02  0.1028122E+00
         21   -1    0    0  502  501  0.00000000000E+00  0.00000000000E+00  0.19536339797E+03  0.19536339797E+03  0.00000000000E+00 0.  1.
         21   -1    0    0  501  502 -0.00000000000E+00 -0.00000000000E+00 -0.25759120187E+03  0.25759120187E+03  0.00000000000E+00 0.  1.
      99926    2    1    2    0    0  0.14210854715E-13 -0.71054273576E-14 -0.62227803906E+02  0.45295459984E+03  0.44865974852E+03 0.  0.
      99925    2    3    3    0    0 -0.74971223382E+02  0.60116132392E+02  0.81953574242E+01  0.28020749144E+03  0.26308637492E+03 0.  0.
         25    1    4    4    0    0 -0.63409603970E+02  0.78257450909E+01  0.26407286439E+02  0.14292261206E+03  0.12509000000E+03 0.  0.
         25    1    4    4    0    0 -0.11561619413E+02  0.52290387301E+02 -0.18211929015E+02  0.13728487938E+03  0.12509000000E+03 0.  0.
         25    1    3    3    0    0  0.74971223382E+02 -0.60116132392E+02 -0.70423161330E+02  0.17274710840E+03  0.12509000000E+03 0.  0.
<mgrwt>
<rscale>  2 0.44865975E+03</rscale>
<asrwt>0</asrwt>
<pdfrwt beam="1">  1       21 0.28729912E-01 0.44865975E+03</pdfrwt>
<pdfrwt beam="2">  1       21 0.37881059E-01 0.44865975E+03</pdfrwt>
<totfact> 0.72283328E+04</totfact>
</mgrwt>
</event>
<event>
 7    0  0.4737014E-002  0.4566322E+03  0.7546771E-02  0.1025763E+00
         21   -1    0    0  502  501  0.00000000000E+00  0.00000000000E+00  0.14081707341E+04  0.14081707341E+04  0.00000000000E+00 0.  1.
         21   -1    0    0  501  502 -0.00000000000E+00 -0.00000000000E+00 -0.37018407454E+02  0.37018407454E+02  0.00000000000E+00 0.  1.
      99926    2    1    2    0    0  0.00000000000E+00  0.00000000000E+00  0.13711523266E+04  0.14451891415E+04  0.45663218458E+03 0.  0.
      99925    2    3    3    0    0 -0.88365757256E+02 -0.31994048625E+02  0.10710382257E+04  0.11067395768E+04  0.26252139666E+03 0.  0.
         25    1    4    4    0    0 -0.78567843427E+02  0.56562739984E+01  0.57259471988E+03  0.59136885341E+03  0.12509000000E+03 0.  0.
         25    1    4    4    0    0 -0.97979138286E+01 -0.37650322624E+02  0.49844350584E+03  0.51537072338E+03  0.12509000000E+03 0.  0.
         25    1    3    3    0    0  0.88365757256E+02  0.31994048625E+02  0.30011410088E+03  0.33844956471E+03  0.12509000000E+03 0.  0.
<mgrwt>
<rscale>  2 0.45663218E+03</rscale>
<asrwt>0</asrwt>
<pdfrwt beam="1">  1       21 0.20708390E+00 0.45663218E+03</pdfrwt>
<pdfrwt beam="2">  1       21 0.54438844E-02 0.45663218E+03</pdfrwt>
<totfact> 0.24835833E+04</totfact>
</mgrwt>
</event>
<event>
 7    0  0.4737014E-002  0.4463303E+03  0.7546771E-02  0.1028822E+00
         21   -1    0    0  502  501  0.00000000000E+00  0.00000000000E+00  0.48464899908E+02  0.48464899908E+02  0.00000000000E+00 0.  1.
         21   -1    0    0  501  502 -0.00000000000E+00 -0.00000000000E+00 -0.10276031402E+04  0.10276031402E+04  0.00000000000E+00 0.  1.
      99926    2    1    2    0    0  0.71054273576E-14  0.71054273576E-14 -0.97913824025E+03  0.10760680401E+04  0.44633029623E+03 0.  0.
      99925    2    3    3    0    0  0.49432778495E+02 -0.52618305892E+02 -0.80439791741E+03  0.84936564874E+03  0.26297093000E+03 0.  0.
         25    1    3    3    0    0 -0.49432778495E+02  0.52618305892E+02 -0.17474032283E+03  0.22670239132E+03  0.12509000000E+03 0.  0.
         25    1    4    4    0    0  0.46549155328E+01 -0.17837299475E+02 -0.49429554342E+03  0.51021116201E+03  0.12509000000E+03 0.  0.
         25    1    4    4    0    0  0.44777862963E+02 -0.34781006417E+02 -0.31010237399E+03  0.33915448673E+03  0.12509000000E+03 0.  0.
<mgrwt>
<rscale>  2 0.44633030E+03</rscale>
<asrwt>0</asrwt>
<pdfrwt beam="1">  1       21 0.71271922E-02 0.44633030E+03</pdfrwt>
<pdfrwt beam="2">  1       21 0.15111809E+00 0.44633030E+03</pdfrwt>
<totfact> 0.38900946E+04</totfact>
</mgrwt>
</event>
<event>
 7    0  0.4737014E-002  0.4569211E+03  0.7546771E-02  0.1025678E+00
         21   -1    0    0  502  501  0.00000000000E+00  0.00000000000E+00  0.61074633440E+02  0.61074633440E+02  0.00000000000E+00 0. -1.
         21   -1    0    0  501  502 -0.00000000000E+00 -0.00000000000E+00 -0.85459728998E+03  0.85459728998E+03  0.00000000000E+00 0. -1.
      99926    2    1    2    0    0  0.00000000000E+00  0.17763568394E-14 -0.79352265654E+03  0.91567192342E+03  0.45692107075E+03 0.  0.
      99925    2    3    3    0    0 -0.70360402186E+02 -0.58431399182E+01 -0.31697451343E+03  0.41794672887E+03  0.26310054644E+03 0.  0.
         25    1    4    4    0    0 -0.12301387489E+02 -0.16184918919E+02 -0.10366167711E+03  0.16372698964E+03  0.12509000000E+03 0.  0.
         25    1    4    4    0    0 -0.58059014696E+02  0.10341779001E+02 -0.21331283631E+03  0.25421973923E+03  0.12509000000E+03 0.  0.
         25    1    3    3    0    0  0.70360402186E+02  0.58431399182E+01 -0.47654814312E+03  0.49772519455E+03  0.12509000000E+03 0.  0.
<mgrwt>
<rscale>  2 0.45692107E+03</rscale>
<asrwt>0</asrwt>
<pdfrwt beam="1">  1       21 0.89815640E-02 0.45692107E+03</pdfrwt>
<pdfrwt beam="2">  1       21 0.12567607E+00 0.45692107E+03</pdfrwt>
<totfact> 0.41929047E+04</totfact>
</mgrwt>
</event>
<event>
 7    0  0.4737014E-002  0.4549186E+03  0.7546771E-02  0.1026265E+00
         21   -1    0    0  502  501  0.00000000000E+00  0.00000000000E+00  0.44710240495E+03  0.44710240495E+03  0.00000000000E+00 0. -1.
         21   -1    0    0  501  502 -0.00000000000E+00 -0.00000000000E+00 -0.11571783708E+03  0.11571783708E+03  0.00000000000E+00 0. -1.
      99926    2    1    2    0    0  0.00000000000E+00  0.00000000000E+00  0.33138456788E+03  0.56282024203E+03  0.45491855646E+03 0.  0.
      99925    2    3    3    0    0  0.99265068778E+02  0.45174050042E+02  0.24489580189E+03  0.37567841501E+03  0.26318447722E+03 0.  0.
         25    1    4    4    0    0  0.28735554908E+02 -0.14839702242E+02  0.10779619813E+03  0.16826609079E+03  0.12509000000E+03 0.  0.
         25    1    4    4    0    0  0.70529513871E+02  0.60013752285E+02  0.13709960375E+03  0.20741232422E+03  0.12509000000E+03 0.  0.
         25    1    3    3    0    0 -0.99265068778E+02 -0.45174050042E+02  0.86488765992E+02  0.18714182702E+03  0.12509000000E+03 0.  0.
<mgrwt>
<rscale>  2 0.45491856E+03</rscale>
<asrwt>0</asrwt>
<pdfrwt beam="1">  1       21 0.65750353E-01 0.45491856E+03</pdfrwt>
<pdfrwt beam="2">  1       21 0.17017329E-01 0.45491856E+03</pdfrwt>
<totfact> 0.61066533E+04</totfact>
</mgrwt>
</event>
<event>
 7    0  0.4737014E-002  0.4690183E+03  0.7546771E-02  0.1022198E+00
         21   -1    0    0  502  501  0.00000000000E+00  0.00000000000E+00  0.15953748298E+03  0.15953748298E+03  0.00000000000E+00 0. -1.
         21   -1    0    0  501  502 -0.00000000000E+00 -0.00000000000E+00 -0.34471229131E+03  0.34471229131E+03  0.00000000000E+00 0. -1.
      99926    2    1    2    0    0  0.00000000000E+00  0.00000000000E+00 -0.18517480833E+03  0.50424977429E+03  0.46901825682E+03 0.  0.
      99925    2    3    3    0    0  0.66019951352E+02  0.11134337176E+02 -0.54202520661E+00  0.27139922104E+03  0.26301071452E+03 0.  0.
         25    1    3    3    0    0 -0.66019951352E+02 -0.11134337176E+02 -0.18463278313E+03  0.23285055324E+03  0.12509000000E+03 0.  0.
         25    1    4    4    0    0  0.23556122541E+02  0.19512262763E+01  0.39100102679E+02  0.13317291137E+03  0.12509000000E+03 0.  0.
         25    1    4    4    0    0  0.42463828811E+02  0.91831108994E+01 -0.39642127885E+02  0.13822630967E+03  0.12509000000E+03 0.  0.
<mgrwt>
<rscale>  2 0.46901826E+03</rscale>
<asrwt>0</asrwt>
<pdfrwt beam="1">  1       21 0.23461395E-01 0.46901826E+03</pdfrwt>
<pdfrwt beam="2">  1       21 0.50692984E-01 0.46901826E+03</pdfrwt>
<totfact> 0.58219574E+04</totfact>
</mgrwt>
</event>
<event>
 7    0  0.4737014E-002  0.4399527E+03  0.7546771E-02  0.1030761E+00
         21   -1    0    0  502  501  0.00000000000E+00  0.00000000000E+00  0.36552864253E+02  0.36552864253E+02  0.00000000000E+00 0. -1.
         21   -1    0    0  501  502 -0.00000000000E+00 -0.00000000000E+00 -0.13238249742E+04  0.13238249742E+04  0.00000000000E+00 0. -1.
      99926    2    1    2    0    0  0.71054273576E-14 -0.14210854715E-13 -0.12872721100E+04  0.13603778385E+04  0.43995270008E+03 0.  0.
      99925    2    3    3    0    0 -0.37854465425E+02 -0.88167810064E+02 -0.74113065073E+03  0.79193740634E+03  0.26207573491E+03 0.  0.
         25    1    4    4    0    0  0.93111966283E+00 -0.69087213519E+02 -0.44977566746E+03  0.47193174209E+03  0.12509000000E+03 0.  0.
         25    1    3    3    0    0  0.37854465425E+02  0.88167810064E+02 -0.54614145925E+03  0.56844043215E+03  0.12509000000E+03 0.  0.
         25    1    4    4    0    0 -0.38785585087E+02 -0.19080596545E+02 -0.29135498327E+03  0.32000566425E+03  0.12509000000E+03 0.  0.
<mgrwt>
<rscale>  2 0.43995270E+03</rscale>
<asrwt>0</asrwt>
<pdfrwt beam="1">  1       21 0.53754213E-02 0.43995270E+03</pdfrwt>
<pdfrwt beam="2">  1       21 0.19468014E+00 0.43995270E+03</pdfrwt>
<totfact> 0.30862211E+04</totfact>
</mgrwt>
</event>
<event>
 7    0  0.4737014E-002  0.4464002E+03  0.7546771E-02  0.1028801E+00
         21   -1    0    0  502  501  0.00000000000E+00  0.00000000000E+00  0.16532330944E+03  0.16532330944E+03  0.00000000000E+00 0.  1.
         21   -1    0    0  501  502 -0.00000000000E+00 -0.00000000000E+00 -0.30133859827E+03  0.30133859827E+03  0.00000000000E+00 0.  1.
      99926    2    1    2    0    0  0.00000000000E+00  0.00000000000E+00 -0.13601528883E+03  0.46666190771E+03  0.44640024340E+03 0.  0.
      99925    2    3    3    0    0  0.10173017328E+03 -0.14505639960E+02 -0.63843125651E+02  0.28941696142E+03  0.26291974274E+03 0.  0.
         25    1    4    4    0    0  0.77425488413E+02  0.16572991773E+02 -0.12530868551E+02  0.14857288137E+03  0.12509000000E+03 0.  0.
         25    1    3    3    0    0 -0.10173017328E+03  0.14505639960E+02 -0.72172163178E+02  0.17724494628E+03  0.12509000000E+03 0.  0.
         25    1    4    4    0    0  0.24304684865E+02 -0.31078631734E+02 -0.51312257100E+02  0.14084408005E+03  0.12509000000E+03 0.  0.
<mgrwt>
<rscale>  2 0.44640024E+03</rscale>
<asrwt>0</asrwt>
<pdfrwt beam="1">  1       21 0.24312252E-01 0.44640024E+03</pdfrwt>
<pdfrwt beam="2">  1       21 0.44314499E-01 0.44640024E+03</pdfrwt>
<totfact> 0.72507207E+04</totfact>
</mgrwt>
</event>
<event>
 7    0  0.4737014E-002  0.4506910E+03  0.7546771E-02  0.1027516E+00
         21   -1    0    0  502  501  0.00000000000E+00  0.00000000000E+00  0.24453244403E+02  0.24453244403E+02  0.00000000000E+00 0.  1.
         21   -1    0    0  501  502 -0.00000000000E+00 -0.00000000000E+00 -0.20766402802E+04  0.20766402802E+04  0.00000000000E+00 0.  1.
      99926    2    1    2    0    0  0.00000000000E+00  0.00000000000E+00 -0.20521870358E+04  0.21010935246E+04  0.45069099086E+03 0.  0.
      99925    2    3    3    0    0 -0.80716992864E+02  0.55888536016E+02 -0.10732157983E+04  0.11092916526E+04  0.26286319518E+03 0.  0.
         25    1    4    4    0    0 -0.81448648067E+02  0.21287429290E+02 -0.58481656346E+03  0.60394118747E+03  0.12509000000E+03 0.  0.
         25    1    4    4    0    0  0.73165520299E+00  0.34601106726E+02 -0.48839923484E+03  0.50535046512E+03  0.12509000000E+03 0.  0.
         25    1    3    3    0    0  0.80716992864E+02 -0.55888536016E+02 -0.97897123752E+03  0.99180187204E+03  0.12509000000E+03 0.  0.
<mgrwt>
<rscale>  2 0.45069099E+03</rscale>
<asrwt>0</asrwt>
<pdfrwt beam="1">  1       21 0.35960633E-02 0.45069099E+03</pdfrwt>
<pdfrwt beam="2">  1       21 0.30538845E+00 0.45069099E+03</pdfrwt>
<totfact> 0.12542959E+04</totfact>
</mgrwt>
</event>
<event>
 7    0  0.4737014E-002  0.4548517E+03  0.7546771E-02  0.1026285E+00
         21   -1    0    0  502  501  0.00000000000E+00  0.00000000000E+00  0.99860661860E+02  0.99860661860E+02  0.00000000000E+00 0.  1.
         21   -1    0    0  501  502 -0.00000000000E+00 -0.00000000000E+00 -0.51794694926E+03  0.51794694926E+03  0.00000000000E+00 0.  1.
      99926    2    1    2    0    0  0.00000000000E+00  0.00000000000E+00 -0.41808628740E+03  0.61780761112E+03  0.45485173479E+03 0.  0.
      99925    2    3    3    0    0  0.35478298474E+02  0.88814773842E+02 -0.34481717723E+03  0.44413365130E+03  0.26307611216E+03 0.  0.
         25    1    3    3    0    0 -0.35478298474E+02 -0.88814773842E+02 -0.73269110170E+02  0.17367395982E+03  0.12509000000E+03 0.  0.
         25    1    4    4    0    0  0.19904108001E+02  0.51894987625E+02 -0.23915893423E+03  0.27556082301E+03  0.12509000000E+03 0.  0.
         25    1    4    4    0    0  0.15574190474E+02  0.36919786217E+02 -0.10565824300E+03  0.16857282829E+03  0.12509000000E+03 0.  0.
<mgrwt>
<rscale>  2 0.45485173E+03</rscale>
<asrwt>0</asrwt>
<pdfrwt beam="1">  1       21 0.14685392E-01 0.45485173E+03</pdfrwt>
<pdfrwt beam="2">  1       21 0.76168667E-01 0.45485173E+03</pdfrwt>
<totfact> 0.57662824E+04</totfact>
</mgrwt>
</event>
<event>
 7    0  0.4737014E-002  0.4426610E+03  0.7546771E-02  0.1029933E+00
         21   -1    0    0  502  501  0.00000000000E+00  0.00000000000E+00  0.11959595460E+03  0.11959595460E+03  0.00000000000E+00 0. -1.
         21   -1    0    0  501  502 -0.00000000000E+00 -0.00000000000E+00 -0.40960579158E+03  0.40960579158E+03  0.00000000000E+00 0. -1.
      99926    2    1    2    0    0  0.71054273576E-14  0.17763568394E-14 -0.29000983697E+03  0.52920174618E+03  0.44266102451E+03 0.  0.
      99925    2    3    3    0    0 -0.48435691225E+02 -0.10469170089E+02 -0.29024115779E+03  0.39465368296E+03  0.26278504542E+03 0.  0.
         25    1    3    3    0    0  0.48435691225E+02  0.10469170089E+02  0.23132081393E+00  0.13454806322E+03  0.12509000000E+03 0.  0.
         25    1    4    4    0    0  0.12735457704E+02  0.67144768972E+01 -0.11871358676E+03  0.17305403741E+03  0.12509000000E+03 0.  0.
         25    1    4    4    0    0 -0.61171148928E+02 -0.17183646986E+02 -0.17152757103E+03  0.22159964555E+03  0.12509000000E+03 0.  0.
<mgrwt>
<rscale>  2 0.44266102E+03</rscale>
<asrwt>0</asrwt>
<pdfrwt beam="1">  1       21 0.17587640E-01 0.44266102E+03</pdfrwt>
<pdfrwt beam="2">  1       21 0.60236146E-01 0.44266102E+03</pdfrwt>
<totfact> 0.69837632E+04</totfact>
</mgrwt>
</event>
<event>
 7    0  0.4737014E-002  0.4541558E+03  0.7546771E-02  0.1026490E+00
         21   -1    0    0  502  501  0.00000000000E+00  0.00000000000E+00  0.13882964072E+04  0.13882964072E+04  0.00000000000E+00 0. -1.
         21   -1    0    0  501  502 -0.00000000000E+00 -0.00000000000E+00 -0.37142189331E+02  0.37142189331E+02  0.00000000000E+00 0. -1.
      99926    2    1    2    0    0  0.00000000000E+00 -0.17763568394E-14  0.13511542178E+04  0.14254385965E+04  0.45415577945E+03 0.  0.
      99925    2    3    3    0    0 -0.99262388185E+02  0.13145311102E+02  0.10114514896E+04  0.10498440377E+04  0.26289269068E+03 0.  0.
         25    1    4    4    0    0 -0.20916710070E+02  0.29344509538E+02  0.40135946368E+03  0.42194257451E+03  0.12509000000E+03 0.  0.
         25    1    3    3    0    0  0.99262388185E+02 -0.13145311102E+02  0.33970272823E+03  0.37559455877E+03  0.12509000000E+03 0.  0.
         25    1    4    4    0    0 -0.78345678115E+02 -0.16199198436E+02  0.61009202592E+03  0.62790146321E+03  0.12509000000E+03 0.  0.
<mgrwt>
<rscale>  2 0.45415578E+03</rscale>
<asrwt>0</asrwt>
<pdfrwt beam="1">  1       21 0.20416120E+00 0.45415578E+03</pdfrwt>
<pdfrwt beam="2">  1       21 0.54620876E-02 0.45415578E+03</pdfrwt>
<totfact> 0.25830982E+04</totfact>
</mgrwt>
</event>
<event>
 7    0  0.4737014E-002  0.4526521E+03  0.7546771E-02  0.1026934E+00
         21   -1    0    0  502  501  0.00000000000E+00  0.00000000000E+00  0.13724929716E+03  0.13724929716E+03  0.00000000000E+00 0. -1.
         21   -1    0    0  501  502 -0.00000000000E+00 -0.00000000000E+00 -0.37321481842E+03  0.37321481842E+03  0.00000000000E+00 0. -1.
      99926    2    1    2    0    0  0.71054273576E-14  0.00000000000E+00 -0.23596552125E+03  0.51046411558E+03  0.45265205851E+03 0.  0.
      99925    2    3    3    0    0  0.39500312662E+02  0.63607418386E+02 -0.24112559980E+03  0.36458638292E+03  0.26301235211E+03 0.  0.
         25    1    4    4    0    0 -0.17160281479E+02  0.14559614801E+02 -0.10086322169E+03  0.16225706528E+03  0.12509000000E+03 0.  0.
         25    1    3    3    0    0 -0.39500312662E+02 -0.63607418386E+02  0.51600785478E+01  0.14587773266E+03  0.12509000000E+03 0.  0.
         25    1    4    4    0    0  0.56660594141E+02  0.49047803585E+02 -0.14026237811E+03  0.20232931764E+03  0.12509000000E+03 0.  0.
<mgrwt>
<rscale>  2 0.45265206E+03</rscale>
<asrwt>0</asrwt>
<pdfrwt beam="1">  1       21 0.20183720E-01 0.45265206E+03</pdfrwt>
<pdfrwt beam="2">  1       21 0.54884532E-01 0.45265206E+03</pdfrwt>
<totfact> 0.65758358E+04</totfact>
</mgrwt>
</event>
<event>
 7    0  0.4737014E-002  0.4561568E+03  0.7546771E-02  0.1025902E+00
         21   -1    0    0  502  501  0.00000000000E+00  0.00000000000E+00  0.48536942549E+03  0.48536942549E+03  0.00000000000E+00 0. -1.
         21   -1    0    0  501  502 -0.00000000000E+00 -0.00000000000E+00 -0.10717561098E+03  0.10717561098E+03  0.00000000000E+00 0. -1.
      99926    2    1    2    0    0  0.00000000000E+00  0.00000000000E+00  0.37819381450E+03  0.59254503647E+03  0.45615683587E+03 0.  0.
      99925    2    3    3    0    0 -0.86998066811E+02 -0.70306193263E+02  0.26790715258E+03  0.39174095200E+03  0.26301160931E+03 0.  0.
         25    1    4    4    0    0 -0.75893693698E+02 -0.17696695215E+02  0.16380930566E+03  0.22034977305E+03  0.12509000000E+03 0.  0.
         25    1    4    4    0    0 -0.11104373113E+02 -0.52609498047E+02  0.10409784693E+03  0.17139117895E+03  0.12509000000E+03 0.  0.
         25    1    3    3    0    0  0.86998066811E+02  0.70306193263E+02  0.11028666192E+03  0.20080408446E+03  0.12509000000E+03 0.  0.
<mgrwt>
<rscale>  2 0.45615684E+03</rscale>
<asrwt>0</asrwt>
<pdfrwt beam="1">  1       21 0.71377856E-01 0.45615684E+03</pdfrwt>
<pdfrwt beam="2">  1       21 0.15761119E-01 0.45615684E+03</pdfrwt>
<totfact> 0.58601895E+04</totfact>
</mgrwt>
</event>
<event>
 7    0  0.4737014E-002  0.4517908E+03  0.7546771E-02  0.1027189E+00
         21   -1    0    0  502  501  0.00000000000E+00  0.00000000000E+00  0.12840993441E+03  0.12840993441E+03  0.00000000000E+00 0. -1.
         21   -1    0    0  501  502 -0.00000000000E+00 -0.00000000000E+00 -0.39738933169E+03  0.39738933169E+03  0.00000000000E+00 0. -1.
      99926    2    1    2    0    0 -0.14210854715E-13  0.00000000000E+00 -0.26897939727E+03  0.52579926610E+03  0.45179082779E+03 0.  0.
      99925    2    3    3    0    0  0.10522922349E+03 -0.24490635200E+02 -0.19329251665E+03  0.34400544693E+03  0.26325799103E+03 0.  0.
         25    1    4    4    0    0  0.54166774049E+02  0.25118703794E+02 -0.11533811900E+03  0.18032021097E+03  0.12509000000E+03 0.  0.
         25    1    4    4    0    0  0.51062449444E+02 -0.49609338995E+02 -0.77954397649E+02  0.16368523596E+03  0.12509000000E+03 0.  0.
         25    1    3    3    0    0 -0.10522922349E+03  0.24490635200E+02 -0.75686880626E+02  0.18179381917E+03  0.12509000000E+03 0.  0.
<mgrwt>
<rscale>  2 0.45179083E+03</rscale>
<asrwt>0</asrwt>
<pdfrwt beam="1">  1       21 0.18883814E-01 0.45179083E+03</pdfrwt>
<pdfrwt beam="2">  1       21 0.58439608E-01 0.45179083E+03</pdfrwt>
<totfact> 0.65132927E+04</totfact>
</mgrwt>
</event>
<event>
 7    0  0.4737014E-002  0.4516929E+03  0.7546771E-02  0.1027218E+00
         21   -1    0    0  502  501  0.00000000000E+00  0.00000000000E+00  0.10915724784E+04  0.10915724784E+04  0.00000000000E+00 0. -1.
         21   -1    0    0  501  502 -0.00000000000E+00 -0.00000000000E+00 -0.46727644104E+02  0.46727644104E+02  0.00000000000E+00 0. -1.
      99926    2    1    2    0    0 -0.14210854715E-13  0.00000000000E+00  0.10448448343E+04  0.11383001225E+04  0.45169286152E+03 0.  0.
      99925    2    3    3    0    0 -0.75180777476E+02 -0.21392299944E+02  0.85262930776E+03  0.89601083975E+03  0.26410018687E+03 0.  0.
         25    1    3    3    0    0  0.75180777476E+02  0.21392299944E+02  0.19221552658E+03  0.24228928279E+03  0.12509000000E+03 0.  0.
         25    1    4    4    0    0 -0.65825861760E+01 -0.52722019733E+01  0.30242581571E+03  0.32738358032E+03  0.12509000000E+03 0.  0.
         25    1    4    4    0    0 -0.68598191300E+02 -0.16120097971E+02  0.55020349205E+03  0.56862725943E+03  0.12509000000E+03 0.  0.
<mgrwt>
<rscale>  2 0.45169286E+03</rscale>
<asrwt>0</asrwt>
<pdfrwt beam="1">  1       21 0.16052535E+00 0.45169286E+03</pdfrwt>
<pdfrwt beam="2">  1       21 0.68717130E-02 0.45169286E+03</pdfrwt>
<totfact> 0.35070780E+04</totfact>
</mgrwt>
</event>
<event>
 7    0  0.4737014E-002  0.4610667E+03  0.7546771E-02  0.1024472E+00
         21   -1    0    0  502  501  0.00000000000E+00  0.00000000000E+00  0.57148450893E+02  0.57148450893E+02  0.00000000000E+00 0.  1.
         21   -1    0    0  501  502 -0.00000000000E+00 -0.00000000000E+00 -0.92995727524E+03  0.92995727524E+03  0.00000000000E+00 0.  1.
      99926    2    1    2    0    0  0.00000000000E+00  0.00000000000E+00 -0.87280882434E+03  0.98710572613E+03  0.46106666623E+03 0.  0.
      99925    2    3    3    0    0 -0.92314454877E+02 -0.72472149466E+02 -0.58548720339E+03  0.65247848128E+03  0.26298047870E+03 0.  0.
         25    1    3    3    0    0  0.92314454877E+02  0.72472149466E+02 -0.28732162095E+03  0.33462724485E+03  0.12509000000E+03 0.  0.
         25    1    4    4    0    0 -0.34821260913E+02 -0.64241521856E+02 -0.23800811440E+03  0.27863033568E+03  0.12509000000E+03 0.  0.
         25    1    4    4    0    0 -0.57493193964E+02 -0.82306276094E+01 -0.34747908899E+03  0.37384814560E+03  0.12509000000E+03 0.  0.
<mgrwt>
<rscale>  2 0.46106667E+03</rscale>
<asrwt>0</asrwt>
<pdfrwt beam="1">  1       21 0.84041843E-02 0.46106667E+03</pdfrwt>
<pdfrwt beam="2">  1       21 0.13675842E+00 0.46106667E+03</pdfrwt>
<totfact> 0.37846437E+04</totfact>
</mgrwt>
</event>
<event>
 7    0  0.4737014E-002  0.4545766E+03  0.7546771E-02  0.1026366E+00
         21   -1    0    0  502  501  0.00000000000E+00  0.00000000000E+00  0.23456511284E+03  0.23456511284E+03  0.00000000000E+00 0.  1.
         21   -1    0    0  501  502 -0.00000000000E+00 -0.00000000000E+00 -0.22023725688E+03  0.22023725688E+03  0.00000000000E+00 0.  1.
      99926    2    1    2    0    0  0.00000000000E+00  0.00000000000E+00  0.14327855966E+02  0.45480236972E+03  0.45457662505E+03 0.  0.
      99925    2    3    3    0    0 -0.68436284506E+02  0.64284161347E+02  0.71627588847E+02  0.28822882462E+03  0.26292463830E+03 0.  0.
         25    1    3    3    0    0  0.68436284506E+02 -0.64284161347E+02 -0.57299732880E+02  0.16657354509E+03  0.12509000000E+03 0.  0.
         25    1    4    4    0    0 -0.74721366861E+02  0.28261137686E+02  0.30075925833E+02  0.15143990222E+03  0.12509000000E+03 0.  0.
         25    1    4    4    0    0  0.62850823553E+01  0.36023023661E+02  0.41551663014E+02  0.13678892241E+03  0.12509000000E+03 0.  0.
<mgrwt>
<rscale>  2 0.45457663E+03</rscale>
<asrwt>0</asrwt>
<pdfrwt beam="1">  1       21 0.34494870E-01 0.45457663E+03</pdfrwt>
<pdfrwt beam="2">  1       21 0.32387832E-01 0.45457663E+03</pdfrwt>
<totfact> 0.68792377E+04</totfact>
</mgrwt>
</event>
<event>
 7    0  0.4737014E-002  0.4527998E+03  0.7546771E-02  0.1026890E+00
         21   -1    0    0  502  501  0.00000000000E+00  0.00000000000E+00  0.50177793546E+03  0.50177793546E+03  0.00000000000E+00 0. -1.
         21   -1    0    0  501  502 -0.00000000000E+00 -0.00000000000E+00 -0.10215059559E+03  0.10215059559E+03  0.00000000000E+00 0. -1.
      99926    2    1    2    0    0  0.00000000000E+00  0.00000000000E+00  0.39962733987E+03  0.60392853105E+03  0.45279980107E+03 0.  0.
      99925    2    3    3    0    0  0.55165571677E+02  0.60476757773E+02  0.15185158088E+03  0.31454813543E+03  0.26302271452E+03 0.  0.
         25    1    4    4    0    0  0.62226726825E+02  0.90113315454E+01  0.78846442878E+02  0.16067868335E+03  0.12509000000E+03 0.  0.
         25    1    3    3    0    0 -0.55165571677E+02 -0.60476757773E+02  0.24777575899E+03  0.28938039562E+03  0.12509000000E+03 0.  0.
         25    1    4    4    0    0 -0.70611551484E+01  0.51465426228E+02  0.73005138003E+02  0.15386945208E+03  0.12509000000E+03 0.  0.
<mgrwt>
<rscale>  2 0.45279980E+03</rscale>
<asrwt>0</asrwt>
<pdfrwt beam="1">  1       21 0.73790872E-01 0.45279980E+03</pdfrwt>
<pdfrwt beam="2">  1       21 0.15022147E-01 0.45279980E+03</pdfrwt>
<totfact> 0.59463998E+04</totfact>
</mgrwt>
</event>
<event>
 7    0  0.4737014E-002  0.4416041E+03  0.7546771E-02  0.1030256E+00
         21   -1    0    0  502  501  0.00000000000E+00  0.00000000000E+00  0.10105830018E+03  0.10105830018E+03  0.00000000000E+00 0. -1.
         21   -1    0    0  501  502 -0.00000000000E+00 -0.00000000000E+00 -0.48243000424E+03  0.48243000424E+03  0.00000000000E+00 0. -1.
      99926    2    1    2    0    0 -0.35527136788E-14  0.00000000000E+00 -0.38137170406E+03  0.58348830442E+03  0.44160414937E+03 0.  0.
      99925    2    3    3    0    0 -0.27459859697E+02  0.65571445692E+02 -0.33619428187E+03  0.43268324495E+03  0.26293447267E+03 0.  0.
         25    1    4    4    0    0 -0.24086443441E+02  0.20692905735E+02 -0.10664961619E+03  0.16742162895E+03  0.12509000000E+03 0.  0.
         25    1    3    3    0    0  0.27459859697E+02 -0.65571445692E+02 -0.45177422189E+02  0.15080505947E+03  0.12509000000E+03 0.  0.
         25    1    4    4    0    0 -0.33734162561E+01  0.44878539957E+02 -0.22954466567E+03  0.26526161601E+03  0.12509000000E+03 0.  0.
<mgrwt>
<rscale>  2 0.44160415E+03</rscale>
<asrwt>0</asrwt>
<pdfrwt beam="1">  1       21 0.14861515E-01 0.44160415E+03</pdfrwt>
<pdfrwt beam="2">  1       21 0.70945588E-01 0.44160415E+03</pdfrwt>
<totfact> 0.66470027E+04</totfact>
</mgrwt>
</event>
<event>
 7    0  0.4737014E-002  0.4569845E+03  0.7546771E-02  0.1025659E+00
         21   -1    0    0  502  501  0.00000000000E+00  0.00000000000E+00  0.68897353057E+03  0.68897353057E+03  0.00000000000E+00 0. -1.
         21   -1    0    0  501  502 -0.00000000000E+00 -0.00000000000E+00 -0.75777534831E+02  0.75777534831E+02  0.00000000000E+00 0. -1.
      99926    2    1    2    0    0  0.00000000000E+00  0.14210854715E-13  0.61319599574E+03  0.76475106540E+03  0.45698453239E+03 0.  0.
      99925    2    3    3    0    0  0.47361318628E+02 -0.10087652370E+03  0.33769192104E+03  0.44230855764E+03  0.26302444581E+03 0.  0.
         25    1    4    4    0    0  0.62791901307E+02 -0.47666631168E+02  0.15697519679E+03  0.21564705215E+03  0.12509000000E+03 0.  0.
         25    1    3    3    0    0 -0.47361318628E+02  0.10087652370E+03  0.27550407470E+03  0.32244250776E+03  0.12509000000E+03 0.  0.
         25    1    4    4    0    0 -0.15430582678E+02 -0.53209892529E+02  0.18071672426E+03  0.22666150549E+03  0.12509000000E+03 0.  0.
<mgrwt>
<rscale>  2 0.45698453E+03</rscale>
<asrwt>0</asrwt>
<pdfrwt beam="1">  1       21 0.10131963E+00 0.45698453E+03</pdfrwt>
<pdfrwt beam="2">  1       21 0.11143755E-01 0.45698453E+03</pdfrwt>
<totfact> 0.48752788E+04</totfact>
</mgrwt>
</event>
<event>
 7    0  0.4737014E-002  0.4551522E+03  0.7546771E-02  0.1026197E+00
         21   -1    0    0  502  501  0.00000000000E+00  0.00000000000E+00  0.69033634076E+02  0.69033634076E+02  0.00000000000E+00 0. -1.
         21   -1    0    0  501  502 -0.00000000000E+00 -0.00000000000E+00 -0.75022686657E+03  0.75022686657E+03  0.00000000000E+00 0. -1.
      99926    2    1    2    0    0  0.00000000000E+00  0.00000000000E+00 -0.68119323250E+03  0.81926050065E+03  0.45515222500E+03 0.  0.
      99925    2    3    3    0    0 -0.67692856429E+02  0.52331029857E+02 -0.56232256774E+03  0.62665052548E+03  0.26298926098E+03 0.  0.
         25    1    4    4    0    0 -0.55403000341E+02  0.18063059671E+02 -0.21270423186E+03  0.25354755949E+03  0.12509000000E+03 0.  0.
         25    1    3    3    0    0  0.67692856429E+02 -0.52331029857E+02 -0.11887066476E+03  0.19260997517E+03  0.12509000000E+03 0.  0.
         25    1    4    4    0    0 -0.12289856088E+02  0.34267970186E+02 -0.34961833589E+03  0.37310296599E+03  0.12509000000E+03 0.  0.
<mgrwt>
<rscale>  2 0.45515223E+03</rscale>
<asrwt>0</asrwt>
<pdfrwt beam="1">  1       21 0.10152005E-01 0.45515223E+03</pdfrwt>
<pdfrwt beam="2">  1       21 0.11032748E+00 0.45515223E+03</pdfrwt>
<totfact> 0.46791361E+04</totfact>
</mgrwt>
</event>
<event>
 7    0  0.4737014E-002  0.4504689E+03  0.7546771E-02  0.1027582E+00
         21   -1    0    0  502  501  0.00000000000E+00  0.00000000000E+00  0.15638579531E+04  0.15638579531E+04  0.00000000000E+00 0. -1.
         21   -1    0    0  501  502 -0.00000000000E+00 -0.00000000000E+00 -0.32439359793E+02  0.32439359793E+02  0.00000000000E+00 0. -1.
      99926    2    1    2    0    0  0.00000000000E+00  0.35527136788E-14  0.15314185933E+04  0.15962973129E+04  0.45046887042E+03 0.  0.
      99925    2    3    3    0    0 -0.96128679834E+02  0.26062454355E+02  0.81285632935E+03  0.86015927564E+03  0.26309426577E+03 0.  0.
         25    1    4    4    0    0 -0.42594938404E+02 -0.21676974798E+02  0.32698860610E+03  0.35334583149E+03  0.12509000000E+03 0.  0.
         25    1    3    3    0    0  0.96128679834E+02 -0.26062454355E+02  0.71856226393E+03  0.73613803723E+03  0.12509000000E+03 0.  0.
         25    1    4    4    0    0 -0.53533741430E+02  0.47739429153E+02  0.48586772326E+03  0.50681344415E+03  0.12509000000E+03 0.  0.
<mgrwt>
<rscale>  2 0.45046887E+03</rscale>
<asrwt>0</asrwt>
<pdfrwt beam="1">  1       21 0.22997906E+00 0.45046887E+03</pdfrwt>
<pdfrwt beam="2">  1       21 0.47704951E-02 0.45046887E+03</pdfrwt>
<totfact> 0.22287511E+04</totfact>
</mgrwt>
</event>
<event>
 7    0  0.4737014E-002  0.4540574E+03  0.7546771E-02  0.1026519E+00
         21   -1    0    0  502  501  0.00000000000E+00  0.00000000000E+00  0.29221064167E+03  0.29221064167E+03  0.00000000000E+00 0.  1.
         21   -1    0    0  501  502 -0.00000000000E+00 -0.00000000000E+00 -0.17638656252E+03  0.17638656252E+03  0.00000000000E+00 0.  1.
      99926    2    1    2    0    0  0.00000000000E+00  0.00000000000E+00  0.11582407915E+03  0.46859720419E+03  0.45405739996E+03 0.  0.
      99925    2    3    3    0    0 -0.42144877800E+02  0.79302208332E+02  0.14236980754E+03  0.31233711726E+03  0.26309747576E+03 0.  0.
         25    1    4    4    0    0 -0.11126032189E+01  0.70786942941E+02  0.53960132462E+02  0.15352925836E+03  0.12509000000E+03 0.  0.
         25    1    3    3    0    0  0.42144877800E+02 -0.79302208332E+02 -0.26545728386E+02  0.15626008693E+03  0.12509000000E+03 0.  0.
         25    1    4    4    0    0 -0.41032274581E+02  0.85152653906E+01  0.88409675075E+02  0.15880785890E+03  0.12509000000E+03 0.  0.
<mgrwt>
<rscale>  2 0.45405740E+03</rscale>
<asrwt>0</asrwt>
<pdfrwt beam="1">  1       21 0.42972153E-01 0.45405740E+03</pdfrwt>
<pdfrwt beam="2">  1       21 0.25939200E-01 0.45405740E+03</pdfrwt>
<totfact> 0.68047611E+04</totfact>
</mgrwt>
</event>
<event>
 7    0  0.4737014E-002  0.4483723E+03  0.7546771E-02  0.1028209E+00
         21   -1    0    0  502  501  0.00000000000E+00  0.00000000000E+00  0.10603281748E+03  0.10603281748E+03  0.00000000000E+00 0. -1.
         21   -1    0    0  501  502 -0.00000000000E+00 -0.00000000000E+00 -0.47399877626E+03  0.47399877626E+03  0.00000000000E+00 0. -1.
      99926    2    1    2    0    0 -0.14210854715E-13  0.00000000000E+00 -0.36796595878E+03  0.58003159375E+03  0.44837228162E+03 0.  0.
      99925    2    3    3    0    0  0.76754887318E+02  0.73819124153E+02 -0.22201614022E+03  0.36028302503E+03  0.26300592348E+03 0.  0.
         25    1    3    3    0    0 -0.76754887318E+02 -0.73819124153E+02 -0.14594981856E+03  0.21974856872E+03  0.12509000000E+03 0.  0.
         25    1    4    4    0    0  0.89763344429E+00  0.22197670088E+02 -0.11888761593E+03  0.17399803339E+03  0.12509000000E+03 0.  0.
         25    1    4    4    0    0  0.75857253874E+02  0.51621454065E+02 -0.10312852430E+03  0.18628499163E+03  0.12509000000E+03 0.  0.
<mgrwt>
<rscale>  2 0.44837228E+03</rscale>
<asrwt>0</asrwt>
<pdfrwt beam="1">  1       21 0.15593061E-01 0.44837228E+03</pdfrwt>
<pdfrwt beam="2">  1       21 0.69705703E-01 0.44837228E+03</pdfrwt>
<totfact> 0.63169852E+04</totfact>
</mgrwt>
</event>
<event>
 7    0  0.4737014E-002  0.4219049E+03  0.7546771E-02  0.1036448E+00
         21   -1    0    0  502  501  0.00000000000E+00  0.00000000000E+00  0.27048949707E+02  0.27048949707E+02  0.00000000000E+00 0. -1.
         21   -1    0    0  501  502 -0.00000000000E+00 -0.00000000000E+00 -0.16452002592E+04  0.16452002592E+04  0.00000000000E+00 0. -1.
      99926    2    1    2    0    0 -0.17763568394E-14  0.00000000000E+00 -0.16181513095E+04  0.16722492089E+04  0.42190491379E+03 0.  0.
      99925    2    3    3    0    0 -0.46765204873E+01 -0.28808868350E+02 -0.76497730562E+03  0.80946000537E+03  0.26302737777E+03 0.  0.
         25    1    4    4    0    0 -0.26898992819E+02 -0.28796844616E+02 -0.47702583470E+03  0.49472615571E+03  0.12509000000E+03 0.  0.
         25    1    3    3    0    0  0.46765204873E+01  0.28808868350E+02 -0.85317400391E+03  0.86278920356E+03  0.12509000000E+03 0.  0.
         25    1    4    4    0    0  0.22222472332E+02 -0.12023734747E-01 -0.28795147092E+03  0.31473384966E+03  0.12509000000E+03 0.  0.
<mgrwt>
<rscale>  2 0.42190491E+03</rscale>
<asrwt>0</asrwt>
<pdfrwt beam="1">  1       21 0.39777865E-02 0.42190491E+03</pdfrwt>
<pdfrwt beam="2">  1       21 0.24194123E+00 0.42190491E+03</pdfrwt>
<totfact> 0.25884125E+04</totfact>
</mgrwt>
</event>
<event>
 7    0  0.4737014E-002  0.4154224E+03  0.7546771E-02  0.1038567E+00
         21   -1    0    0  502  501  0.00000000000E+00  0.00000000000E+00  0.74725957299E+03  0.74725957299E+03  0.00000000000E+00 0.  1.
         21   -1    0    0  501  502 -0.00000000000E+00 -0.00000000000E+00 -0.57736208503E+02  0.57736208503E+02  0.00000000000E+00 0.  1.
      99926    2    1    2    0    0  0.00000000000E+00  0.00000000000E+00  0.68952336449E+03  0.80499578150E+03  0.41542236104E+03 0.  0.
      99925    2    3    3    0    0 -0.59062590770E+02  0.31475603148E+02  0.41203515875E+03  0.49334482988E+03  0.26293924373E+03 0.  0.
         25    1    4    4    0    0 -0.32236531510E+02  0.52033758106E+01  0.27591960041E+03  0.30470543657E+03  0.12509000000E+03 0.  0.
         25    1    4    4    0    0 -0.26826059260E+02  0.26272227337E+02  0.13611555834E+03  0.18863939331E+03  0.12509000000E+03 0.  0.
         25    1    3    3    0    0  0.59062590770E+02 -0.31475603148E+02  0.27748820574E+03  0.31165095162E+03  0.12509000000E+03 0.  0.
<mgrwt>
<rscale>  2 0.41542236E+03</rscale>
<asrwt>0</asrwt>
<pdfrwt beam="1">  1       21 0.10989111E+00 0.41542236E+03</pdfrwt>
<pdfrwt beam="2">  1       21 0.84906194E-02 0.41542236E+03</pdfrwt>
<totfact> 0.65662248E+04</totfact>
</mgrwt>
</event>
<event>
 7    0  0.4737014E-002  0.4580460E+03  0.7546771E-02  0.1025349E+00
         21   -1    0    0  502  501  0.00000000000E+00  0.00000000000E+00  0.34115230319E+03  0.34115230319E+03  0.00000000000E+00 0. -1.
         21   -1    0    0  501  502 -0.00000000000E+00 -0.00000000000E+00 -0.15374811619E+03  0.15374811619E+03  0.00000000000E+00 0. -1.
      99926    2    1    2    0    0 -0.14210854715E-13  0.00000000000E+00  0.18740418701E+03  0.49490041938E+03  0.45804595380E+03 0.  0.
      99925    2    3    3    0    0 -0.79216048877E+02 -0.84676627312E+02  0.11998814880E+03  0.31149446549E+03  0.26303294959E+03 0.  0.
         25    1    4    4    0    0 -0.57621441992E+02 -0.72003348365E+02  0.38464628969E+02  0.16009918343E+03  0.12509000000E+03 0.  0.
         25    1    3    3    0    0  0.79216048877E+02  0.84676627312E+02  0.67416038209E+02  0.18340595388E+03  0.12509000000E+03 0.  0.
         25    1    4    4    0    0 -0.21594606885E+02 -0.12673278946E+02  0.81523519829E+02  0.15139528206E+03  0.12509000000E+03 0.  0.
<mgrwt>
<rscale>  2 0.45804595E+03</rscale>
<asrwt>0</asrwt>
<pdfrwt beam="1">  1       21 0.50169456E-01 0.45804595E+03</pdfrwt>
<pdfrwt beam="2">  1       21 0.22610017E-01 0.45804595E+03</pdfrwt>
<totfact> 0.64067164E+04</totfact>
</mgrwt>
</event>
<event>
 7    0  0.4737014E-002  0.4583278E+03  0.7546771E-02  0.1025267E+00
         21   -1    0    0  502  501  0.00000000000E+00  0.00000000000E+00  0.19528620392E+03  0.19528620392E+03  0.00000000000E+00 0. -1.
         21   -1    0    0  501  502 -0.00000000000E+00 -0.00000000000E+00 -0.26891866021E+03  0.26891866021E+03  0.00000000000E+00 0. -1.
      99926    2    1    2    0    0 -0.14210854715E-13 -0.26645352591E-14 -0.73632456288E+02  0.46420486412E+03  0.45832784910E+03 0.  0.
      99925    2    3    3    0    0  0.11618366686E+03 -0.34502057211E+01 -0.43542233822E+02  0.29081663513E+03  0.26299779615E+03 0.  0.
         25    1    4    4    0    0  0.64937141201E+02  0.38226167958E+02 -0.24738862497E+02  0.14811344180E+03  0.12509000000E+03 0.  0.
         25    1    4    4    0    0  0.51246525655E+02 -0.41676373679E+02 -0.18803371325E+02  0.14270319333E+03  0.12509000000E+03 0.  0.
         25    1    3    3    0    0 -0.11618366686E+03  0.34502057211E+01 -0.30090222466E+02  0.17338822899E+03  0.12509000000E+03 0.  0.
<mgrwt>
<rscale>  2 0.45832785E+03</rscale>
<asrwt>0</asrwt>
<pdfrwt beam="1">  1       21 0.28718559E-01 0.45832785E+03</pdfrwt>
<pdfrwt beam="2">  1       21 0.39546862E-01 0.45832785E+03</pdfrwt>
<totfact> 0.66103049E+04</totfact>
</mgrwt>
</event>
<event>
 7    0  0.4737014E-002  0.4462714E+03  0.7546771E-02  0.1028840E+00
         21   -1    0    0  502  501  0.00000000000E+00  0.00000000000E+00  0.10846967722E+03  0.10846967722E+03  0.00000000000E+00 0.  1.
         21   -1    0    0  501  502 -0.00000000000E+00 -0.00000000000E+00 -0.45901808353E+03  0.45901808353E+03  0.00000000000E+00 0.  1.
      99926    2    1    2    0    0  0.00000000000E+00  0.00000000000E+00 -0.35054840632E+03  0.56748776075E+03  0.44627141229E+03 0.  0.
      99925    2    3    3    0    0 -0.10261344785E+03  0.17527363899E+02 -0.23170279507E+03  0.36597221401E+03  0.26346299174E+03 0.  0.
         25    1    4    4    0    0 -0.29578166734E+02  0.44296817677E+01 -0.62956081992E+02  0.14319729881E+03  0.12509000000E+03 0.  0.
         25    1    4    4    0    0 -0.73035281119E+02  0.13097682131E+02 -0.16874671308E+03  0.22277491520E+03  0.12509000000E+03 0.  0.
         25    1    3    3    0    0  0.10261344785E+03 -0.17527363899E+02 -0.11884561124E+03  0.20151554674E+03  0.12509000000E+03 0.  0.
<mgrwt>
<rscale>  2 0.44627141E+03</rscale>
<asrwt>0</asrwt>
<pdfrwt beam="1">  1       21 0.15951423E-01 0.44627141E+03</pdfrwt>
<pdfrwt beam="2">  1       21 0.67502660E-01 0.44627141E+03</pdfrwt>
<totfact> 0.65104426E+04</totfact>
</mgrwt>
</event>
<event>
 6    0  0.4737014E-002  0.4653480E+03  0.7546771E-02  0.1023241E+00
         21   -1    0    0  502  501  0.00000000000E+00  0.00000000000E+00  0.34664498670E+02  0.34664498670E+02  0.00000000000E+00 0.  1.
         21   -1    0    0  501  502 -0.00000000000E+00 -0.00000000000E+00 -0.15617477120E+04  0.15617477120E+04  0.00000000000E+00 0.  1.
      99926    2    1    2    0    0  0.00000000000E+00  0.00000000000E+00 -0.15270832134E+04  0.15964122107E+04  0.46534804818E+03 0.  0.
         25    1    3    3    0    0  0.23054351364E+02  0.44698798199E+02 -0.55638633942E+03  0.57248821164E+03  0.12509000000E+03 0.  0.
         25    1    3    3    0    0  0.75710836347E+02 -0.40595906605E+01 -0.61319283357E+03  0.63039794595E+03  0.12509000000E+03 0.  0.
         25    1    3    3    0    0 -0.98765187710E+02 -0.40639207538E+02 -0.35750404038E+03  0.39352605312E+03  0.12509000000E+03 0.  0.
<mgrwt>
<rscale>  2 0.46534805E+03</rscale>
<asrwt>0</asrwt>
<pdfrwt beam="1">  1       21 0.50977187E-02 0.46534805E+03</pdfrwt>
<pdfrwt beam="2">  1       21 0.22966886E+00 0.46534805E+03</pdfrwt>
<totfact> 0.19866124E+04</totfact>
</mgrwt>
</event>
<event>
 7    0  0.4737014E-002  0.4615540E+03  0.7546771E-02  0.1024331E+00
         21   -1    0    0  502  501  0.00000000000E+00  0.00000000000E+00  0.14116640979E+03  0.14116640979E+03  0.00000000000E+00 0.  1.
         21   -1    0    0  501  502 -0.00000000000E+00 -0.00000000000E+00 -0.37727126369E+03  0.37727126369E+03  0.00000000000E+00 0.  1.
      99926    2    1    2    0    0  0.00000000000E+00 -0.71054273576E-14 -0.23610485390E+03  0.51843767349E+03  0.46155402637E+03 0.  0.
      99925    2    3    3    0    0  0.44823477760E+02  0.63671524652E+02 -0.46180388172E+02  0.27805876844E+03  0.26290843129E+03 0.  0.
         25    1    4    4    0    0  0.41577784008E+01  0.67914680511E+02 -0.18738922422E+02  0.14362571589E+03  0.12509000000E+03 0.  0.
         25    1    3    3    0    0 -0.44823477760E+02 -0.63671524652E+02 -0.18992446573E+03  0.24037890505E+03  0.12509000000E+03 0.  0.
         25    1    4    4    0    0  0.40665699359E+02 -0.42431558589E+01 -0.27441465749E+02  0.13443305255E+03  0.12509000000E+03 0.  0.
<mgrwt>
<rscale>  2 0.46155403E+03</rscale>
<asrwt>0</asrwt>
<pdfrwt beam="1">  1       21 0.20759766E-01 0.46155403E+03</pdfrwt>
<pdfrwt beam="2">  1       21 0.55481068E-01 0.46155403E+03</pdfrwt>
<totfact> 0.60771252E+04</totfact>
</mgrwt>
</event>
<event>
 7    0  0.4737014E-002  0.4542605E+03  0.7546771E-02  0.1026459E+00
         21   -1    0    0  502  501  0.00000000000E+00  0.00000000000E+00  0.66430405082E+02  0.66430405082E+02  0.00000000000E+00 0. -1.
         21   -1    0    0  501  502 -0.00000000000E+00 -0.00000000000E+00 -0.77657434537E+03  0.77657434537E+03  0.00000000000E+00 0. -1.
      99926    2    1    2    0    0  0.00000000000E+00  0.35527136788E-14 -0.71014394029E+03  0.84300475045E+03  0.45426049064E+03 0.  0.
      99925    2    3    3    0    0  0.13297541871E+02  0.23756863544E+02 -0.64935002592E+03  0.70128452851E+03  0.26344509973E+03 0.  0.
         25    1    3    3    0    0 -0.13297541871E+02 -0.23756863544E+02 -0.60793914367E+02  0.14172022195E+03  0.12509000000E+03 0.  0.
         25    1    4    4    0    0  0.34554855148E+02  0.19574165523E+02 -0.25171412312E+03  0.28387443324E+03  0.12509000000E+03 0.  0.
         25    1    4    4    0    0 -0.21257313277E+02  0.41826980209E+01 -0.39763590280E+03  0.41741009526E+03  0.12509000000E+03 0.  0.
<mgrwt>
<rscale>  2 0.45426049E+03</rscale>
<asrwt>0</asrwt>
<pdfrwt beam="1">  1       21 0.97691783E-02 0.45426049E+03</pdfrwt>
<pdfrwt beam="2">  1       21 0.11420210E+00 0.45426049E+03</pdfrwt>
<totfact> 0.46020351E+04</totfact>
</mgrwt>
</event>
<event>
 7    0  0.4737014E-002  0.4522604E+03  0.7546771E-02  0.1027050E+00
         21   -1    0    0  502  501  0.00000000000E+00  0.00000000000E+00  0.10394410134E+04  0.10394410134E+04  0.00000000000E+00 0.  1.
         21   -1    0    0  501  502 -0.00000000000E+00 -0.00000000000E+00 -0.49194592129E+02  0.49194592129E+02  0.00000000000E+00 0.  1.
      99926    2    1    2    0    0  0.00000000000E+00  0.00000000000E+00  0.99024642130E+03  0.10886356056E+04  0.45226044133E+03 0.  0.
      99925    2    3    3    0    0 -0.63436764238E+02 -0.49515527721E+02  0.80646887993E+03  0.85220865414E+03  0.26342271231E+03 0.  0.
         25    1    4    4    0    0 -0.61250209708E+02 -0.52477007575E+02  0.48135861455E+03  0.50384427001E+03  0.12509000000E+03 0.  0.
         25    1    4    4    0    0 -0.21865545303E+01  0.29614798536E+01  0.32511026538E+03  0.34836438414E+03  0.12509000000E+03 0.  0.
         25    1    3    3    0    0  0.63436764238E+02  0.49515527721E+02  0.18377754138E+03  0.23642695142E+03  0.12509000000E+03 0.  0.
<mgrwt>
<rscale>  2 0.45226044E+03</rscale>
<asrwt>0</asrwt>
<pdfrwt beam="1">  1       21 0.15285896E+00 0.45226044E+03</pdfrwt>
<pdfrwt beam="2">  1       21 0.72344995E-02 0.45226044E+03</pdfrwt>
<totfact> 0.36668320E+04</totfact>
</mgrwt>
</event>
<event>
 7    0  0.4737014E-002  0.4655786E+03  0.7546771E-02  0.1023176E+00
         21   -1    0    0  502  501  0.00000000000E+00  0.00000000000E+00  0.55383466457E+03  0.55383466457E+03  0.00000000000E+00 0. -1.
         21   -1    0    0  501  502 -0.00000000000E+00 -0.00000000000E+00 -0.97846631435E+02  0.97846631435E+02  0.00000000000E+00 0. -1.
      99926    2    1    2    0    0  0.00000000000E+00  0.00000000000E+00  0.45598803313E+03  0.65168129600E+03  0.46557859186E+03 0.  0.
      99925    2    3    3    0    0  0.61478459540E+01 -0.11021134926E+03  0.20895791038E+03  0.35359451809E+03  0.26302345409E+03 0.  0.
         25    1    3    3    0    0 -0.61478459540E+01  0.11021134926E+03  0.24703012276E+03  0.29808677791E+03  0.12509000000E+03 0.  0.
         25    1    4    4    0    0  0.16774925574E+01 -0.63604378811E+02  0.57522879590E+02  0.15167307197E+03  0.12509000000E+03 0.  0.
         25    1    4    4    0    0  0.44703533966E+01 -0.46606970449E+02  0.15143503079E+03  0.20192144612E+03  0.12509000000E+03 0.  0.
<mgrwt>
<rscale>  2 0.46557859E+03</rscale>
<asrwt>0</asrwt>
<pdfrwt beam="1">  1       21 0.81446273E-01 0.46557859E+03</pdfrwt>
<pdfrwt beam="2">  1       21 0.14389211E-01 0.46557859E+03</pdfrwt>
<totfact> 0.51196368E+04</totfact>
</mgrwt>
</event>
<event>
 7    0  0.4737014E-002  0.4514689E+03  0.7546771E-02  0.1027285E+00
         21   -1    0    0  502  501  0.00000000000E+00  0.00000000000E+00  0.13465805970E+04  0.13465805970E+04  0.00000000000E+00 0. -1.
         21   -1    0    0  501  502 -0.00000000000E+00 -0.00000000000E+00 -0.37841070561E+02  0.37841070561E+02  0.00000000000E+00 0. -1.
      99926    2    1    2    0    0  0.00000000000E+00  0.00000000000E+00  0.13087395265E+04  0.13844216676E+04  0.45146894196E+03 0.  0.
      99925    2    3    3    0    0 -0.91009922781E+02 -0.58766832990E+02  0.77139434741E+03  0.82217288256E+03  0.26302597382E+03 0.  0.
         25    1    4    4    0    0 -0.19782444011E+02 -0.34326758064E+02  0.27411261322E+03  0.30389949693E+03  0.12509000000E+03 0.  0.
         25    1    4    4    0    0 -0.71227478771E+02 -0.24440074926E+02  0.49728173419E+03  0.51827338563E+03  0.12509000000E+03 0.  0.
         25    1    3    3    0    0  0.91009922781E+02  0.58766832990E+02  0.53734517906E+03  0.56224878503E+03  0.12509000000E+03 0.  0.
<mgrwt>
<rscale>  2 0.45146894E+03</rscale>
<asrwt>0</asrwt>
<pdfrwt beam="1">  1       21 0.19802653E+00 0.45146894E+03</pdfrwt>
<pdfrwt beam="2">  1       21 0.55648642E-02 0.45146894E+03</pdfrwt>
<totfact> 0.27497003E+04</totfact>
</mgrwt>
</event>
<event>
 7    0  0.4737014E-002  0.4504846E+03  0.7546771E-02  0.1027578E+00
         21   -1    0    0  502  501  0.00000000000E+00  0.00000000000E+00  0.15034673325E+03  0.15034673325E+03  0.00000000000E+00 0.  1.
         21   -1    0    0  501  502 -0.00000000000E+00 -0.00000000000E+00 -0.33744720820E+03  0.33744720820E+03  0.00000000000E+00 0.  1.
      99926    2    1    2    0    0  0.00000000000E+00 -0.14210854715E-13 -0.18710047494E+03  0.48779394145E+03  0.45048456310E+03 0.  0.
      99925    2    3    3    0    0  0.17823154061E+01  0.93441459537E+02 -0.17872036100E+03  0.33142189338E+03  0.26299243519E+03 0.  0.
         25    1    3    3    0    0 -0.17823154061E+01 -0.93441459537E+02 -0.83801139461E+01  0.15637204807E+03  0.12509000000E+03 0.  0.
         25    1    4    4    0    0  0.13888115613E+02  0.60491188555E+01 -0.83009146452E+02  0.15088902574E+03  0.12509000000E+03 0.  0.
         25    1    4    4    0    0 -0.12105800207E+02  0.87392340681E+02 -0.95711214544E+02  0.18053286764E+03  0.12509000000E+03 0.  0.
<mgrwt>
<rscale>  2 0.45048456E+03</rscale>
<asrwt>0</asrwt>
<pdfrwt beam="1">  1       21 0.22109814E-01 0.45048456E+03</pdfrwt>
<pdfrwt beam="2">  1       21 0.49624589E-01 0.45048456E+03</pdfrwt>
<totfact> 0.68561933E+04</totfact>
</mgrwt>
</event>
<event>
 7    0  0.4737014E-002  0.4311868E+03  0.7546771E-02  0.1033486E+00
         21   -1    0    0  502  501  0.00000000000E+00  0.00000000000E+00  0.41501172964E+02  0.41501172964E+02  0.00000000000E+00 0. -1.
         21   -1    0    0  501  502 -0.00000000000E+00 -0.00000000000E+00 -0.11199806275E+04  0.11199806275E+04  0.00000000000E+00 0. -1.
      99926    2    1    2    0    0 -0.14210854715E-13  0.00000000000E+00 -0.10784794546E+04  0.11614818005E+04  0.43118677967E+03 0.  0.
      99925    2    3    3    0    0  0.77147241079E+02 -0.42043369363E+02 -0.73288897853E+03  0.78359342156E+03  0.26300770661E+03 0.  0.
         25    1    4    4    0    0 -0.30351689672E+01 -0.16983259602E+02 -0.35354434897E+03  0.37541811110E+03  0.12509000000E+03 0.  0.
         25    1    4    4    0    0  0.80182410046E+02 -0.25060109761E+02 -0.37934462957E+03  0.40817531046E+03  0.12509000000E+03 0.  0.
         25    1    3    3    0    0 -0.77147241079E+02  0.42043369363E+02 -0.34559047603E+03  0.37788837894E+03  0.12509000000E+03 0.  0.
<mgrwt>
<rscale>  2 0.43118678E+03</rscale>
<asrwt>0</asrwt>
<pdfrwt beam="1">  1       21 0.61031129E-02 0.43118678E+03</pdfrwt>
<pdfrwt beam="2">  1       21 0.16470305E+00 0.43118678E+03</pdfrwt>
<totfact> 0.40392153E+04</totfact>
</mgrwt>
</event>
<event>
 7    0  0.4737014E-002  0.4521863E+03  0.7546771E-02  0.1027072E+00
         21   -1    0    0  502  501  0.00000000000E+00  0.00000000000E+00  0.38053375490E+03  0.38053375490E+03  0.00000000000E+00 0. -1.
         21   -1    0    0  501  502 -0.00000000000E+00 -0.00000000000E+00 -0.13433263992E+03  0.13433263992E+03  0.00000000000E+00 0. -1.
      99926    2    1    2    0    0  0.35527136788E-14  0.35527136788E-14  0.24620111497E+03  0.51486639482E+03  0.45218626196E+03 0.  0.
      99925    2    3    3    0    0  0.23504519525E+02 -0.16772937290E+02  0.27684517168E+03  0.38288018276E+03  0.26290719162E+03 0.  0.
         25    1    4    4    0    0  0.50171954772E+02 -0.21311062501E+02  0.13893028422E+03  0.19473191419E+03  0.12509000000E+03 0.  0.
         25    1    4    4    0    0 -0.26667435246E+02  0.45381252105E+01  0.13791488746E+03  0.18814826857E+03  0.12509000000E+03 0.  0.
         25    1    3    3    0    0 -0.23504519525E+02  0.16772937290E+02 -0.30644056704E+02  0.13198621206E+03  0.12509000000E+03 0.  0.
<mgrwt>
<rscale>  2 0.45218626E+03</rscale>
<asrwt>0</asrwt>
<pdfrwt beam="1">  1       21 0.55960846E-01 0.45218626E+03</pdfrwt>
<pdfrwt beam="2">  1       21 0.19754800E-01 0.45218626E+03</pdfrwt>
<totfact> 0.65692837E+04</totfact>
</mgrwt>
</event>
<event>
 7    0  0.4737014E-002  0.4513200E+03  0.7546771E-02  0.1027329E+00
         21   -1    0    0  502  501  0.00000000000E+00  0.00000000000E+00  0.10102711205E+03  0.10102711205E+03  0.00000000000E+00 0. -1.
         21   -1    0    0  501  502 -0.00000000000E+00 -0.00000000000E+00 -0.50404725417E+03  0.50404725417E+03  0.00000000000E+00 0. -1.
      99926    2    1    2    0    0  0.88817841970E-15  0.00000000000E+00 -0.40302014212E+03  0.60507436622E+03  0.45132001252E+03 0.  0.
      99925    2    3    3    0    0 -0.33050901013E+01 -0.10277491694E+03 -0.20290153634E+03  0.34764753846E+03  0.26289954426E+03 0.  0.
         25    1    3    3    0    0  0.33050901013E+01  0.10277491694E+03 -0.20011860577E+03  0.25742682776E+03  0.12509000000E+03 0.  0.
         25    1    4    4    0    0 -0.10123712379E+02 -0.47321588118E+02 -0.14886677093E+03  0.20037626067E+03  0.12509000000E+03 0.  0.
         25    1    4    4    0    0  0.68186222777E+01 -0.55453328824E+02 -0.54034765416E+02  0.14727127779E+03  0.12509000000E+03 0.  0.
<mgrwt>
<rscale>  2 0.45132001E+03</rscale>
<asrwt>0</asrwt>
<pdfrwt beam="1">  1       21 0.14856928E-01 0.45132001E+03</pdfrwt>
<pdfrwt beam="2">  1       21 0.74124596E-01 0.45132001E+03</pdfrwt>
<totfact> 0.60095112E+04</totfact>
</mgrwt>
</event>
<event>
 7    0  0.4737014E-002  0.4604414E+03  0.7546771E-02  0.1024653E+00
         21   -1    0    0  502  501  0.00000000000E+00  0.00000000000E+00  0.20738037067E+03  0.20738037067E+03  0.00000000000E+00 0.  1.
         21   -1    0    0  501  502 -0.00000000000E+00 -0.00000000000E+00 -0.25557657952E+03  0.25557657952E+03  0.00000000000E+00 0.  1.
      99926    2    1    2    0    0 -0.71054273576E-14 -0.35527136788E-14 -0.48196208850E+02  0.46295695018E+03  0.46044137865E+03 0.  0.
      99925    2    3    3    0    0  0.48140013541E+02  0.22280152178E+02 -0.13706823630E+03  0.30060051684E+03  0.26221957066E+03 0.  0.
         25    1    4    4    0    0  0.42665662417E+02 -0.14762962898E+02 -0.94935288816E+02  0.16339682061E+03  0.12509000000E+03 0.  0.
         25    1    3    3    0    0 -0.48140013541E+02 -0.22280152178E+02  0.88872027451E+02  0.16235643334E+03  0.12509000000E+03 0.  0.
         25    1    4    4    0    0  0.54743511242E+01  0.37043115077E+02 -0.42132947485E+02  0.13720369623E+03  0.12509000000E+03 0.  0.
<mgrwt>
<rscale>  2 0.46044138E+03</rscale>
<asrwt>0</asrwt>
<pdfrwt beam="1">  1       21 0.30497113E-01 0.46044138E+03</pdfrwt>
<pdfrwt beam="2">  1       21 0.37584791E-01 0.46044138E+03</pdfrwt>
<totfact> 0.65094470E+04</totfact>
</mgrwt>
</event>
<event>
 7    0  0.4737014E-002  0.4566669E+03  0.7546771E-02  0.1025752E+00
         21   -1    0    0  502  501  0.00000000000E+00  0.00000000000E+00  0.70403486269E+03  0.70403486269E+03  0.00000000000E+00 0. -1.
         21   -1    0    0  501  502 -0.00000000000E+00 -0.00000000000E+00 -0.74053390676E+02  0.74053390676E+02  0.00000000000E+00 0. -1.
      99926    2    1    2    0    0  0.71054273576E-14  0.00000000000E+00  0.62998147202E+03  0.77808825337E+03  0.45666691904E+03 0.  0.
      99925    2    3    3    0    0  0.50085439313E+02 -0.81765970515E+02  0.28856670866E+03  0.40204866250E+03  0.26301740723E+03 0.  0.
         25    1    4    4    0    0 -0.15139973936E+02 -0.43668045964E+02  0.14931443599E+03  0.20019596885E+03  0.12509000000E+03 0.  0.
         25    1    3    3    0    0 -0.50085439313E+02  0.81765970515E+02  0.34141476335E+03  0.37603959087E+03  0.12509000000E+03 0.  0.
         25    1    4    4    0    0  0.65225413249E+02 -0.38097924551E+02  0.13925227267E+03  0.20185269365E+03  0.12509000000E+03 0.  0.
<mgrwt>
<rscale>  2 0.45666692E+03</rscale>
<asrwt>0</asrwt>
<pdfrwt beam="1">  1       21 0.10353453E+00 0.45666692E+03</pdfrwt>
<pdfrwt beam="2">  1       21 0.10890205E-01 0.45666692E+03</pdfrwt>
<totfact> 0.48209072E+04</totfact>
</mgrwt>
</event>
<event>
 7    0  0.4737014E-002  0.4524141E+03  0.7546771E-02  0.1027005E+00
         21   -1    0    0  502  501  0.00000000000E+00  0.00000000000E+00  0.39240306523E+03  0.39240306523E+03  0.00000000000E+00 0. -1.
         21   -1    0    0  501  502 -0.00000000000E+00 -0.00000000000E+00 -0.13040069618E+03  0.13040069618E+03  0.00000000000E+00 0. -1.
      99926    2    1    2    0    0  0.00000000000E+00  0.00000000000E+00  0.26200236905E+03  0.52280376141E+03  0.45241411512E+03 0.  0.
      99925    2    3    3    0    0  0.37383551337E+02 -0.26408268178E+02  0.28175860478E+03  0.38814588571E+03  0.26301024826E+03 0.  0.
         25    1    3    3    0    0 -0.37383551337E+02  0.26408268178E+02 -0.19756235724E+02  0.13465787570E+03  0.12509000000E+03 0.  0.
         25    1    4    4    0    0  0.42016553879E+02  0.19296346347E+02  0.15076928278E+03  0.20128741767E+03  0.12509000000E+03 0.  0.
         25    1    4    4    0    0 -0.46330025418E+01 -0.45704614525E+02  0.13098932200E+03  0.18685846804E+03  0.12509000000E+03 0.  0.
<mgrwt>
<rscale>  2 0.45241412E+03</rscale>
<asrwt>0</asrwt>
<pdfrwt beam="1">  1       21 0.57706333E-01 0.45241412E+03</pdfrwt>
<pdfrwt beam="2">  1       21 0.19176573E-01 0.45241412E+03</pdfrwt>
<totfact> 0.65018935E+04</totfact>
</mgrwt>
</event>
<event>
 7    0  0.4737014E-002  0.4524528E+03  0.7546771E-02  0.1026993E+00
         21   -1    0    0  502  501  0.00000000000E+00  0.00000000000E+00  0.40704366573E+03  0.40704366573E+03  0.00000000000E+00 0.  1.
         21   -1    0    0  501  502 -0.00000000000E+00 -0.00000000000E+00 -0.12573190824E+03  0.12573190824E+03  0.00000000000E+00 0.  1.
      99926    2    1    2    0    0  0.00000000000E+00  0.00000000000E+00  0.28131175750E+03  0.53277557397E+03  0.45245276804E+03 0.  0.
      99925    2    3    3    0    0  0.65687344392E+02 -0.37784036780E+02  0.27265449501E+03  0.38626647206E+03  0.26290464647E+03 0.  0.
         25    1    4    4    0    0  0.69398364029E+02 -0.24432904679E+01  0.13119253943E+03  0.19411618454E+03  0.12509000000E+03 0.  0.
         25    1    3    3    0    0 -0.65687344392E+02  0.37784036780E+02  0.86572624862E+01  0.14650910191E+03  0.12509000000E+03 0.  0.
         25    1    4    4    0    0 -0.37110196372E+01 -0.35340746312E+02  0.14146195558E+03  0.19215028752E+03  0.12509000000E+03 0.  0.
<mgrwt>
<rscale>  2 0.45245277E+03</rscale>
<asrwt>0</asrwt>
<pdfrwt beam="1">  1       21 0.59859362E-01 0.45245277E+03</pdfrwt>
<pdfrwt beam="2">  1       21 0.18489987E-01 0.45245277E+03</pdfrwt>
<totfact> 0.64306043E+04</totfact>
</mgrwt>
</event>
<event>
 7    0  0.4737014E-002  0.4096825E+03  0.7546771E-02  0.1040478E+00
         21   -1    0    0  502  501  0.00000000000E+00  0.00000000000E+00  0.20975000330E+03  0.20975000330E+03  0.00000000000E+00 0. -1.
         21   -1    0    0  501  502 -0.00000000000E+00 -0.00000000000E+00 -0.20004742277E+03  0.20004742277E+03  0.00000000000E+00 0. -1.
      99926    2    1    2    0    0  0.00000000000E+00  0.00000000000E+00  0.97025805322E+01  0.40979742606E+03  0.40968254825E+03 0.  0.
      99925    2    3    3    0    0 -0.21091018699E+02  0.57694423786E+02  0.13993864905E+02  0.27037217431E+03  0.26292928095E+03 0.  0.
         25    1    4    4    0    0 -0.32266054784E+02  0.29405664755E+02  0.41293110881E+02  0.13877471138E+03  0.12509000000E+03 0.  0.
         25    1    4    4    0    0  0.11175036085E+02  0.28288759031E+02 -0.27299245976E+02  0.13159746293E+03  0.12509000000E+03 0.  0.
         25    1    3    3    0    0  0.21091018699E+02 -0.57694423786E+02 -0.42912843727E+01  0.13942525176E+03  0.12509000000E+03 0.  0.
<mgrwt>
<rscale>  2 0.40968255E+03</rscale>
<asrwt>0</asrwt>
<pdfrwt beam="1">  1       21 0.30845589E-01 0.40968255E+03</pdfrwt>
<pdfrwt beam="2">  1       21 0.29418738E-01 0.40968255E+03</pdfrwt>
<totfact> 0.10518396E+05</totfact>
</mgrwt>
</event>
<event>
 7    0  0.4737014E-002  0.4573594E+03  0.7546771E-02  0.1025550E+00
         21   -1    0    0  502  501  0.00000000000E+00  0.00000000000E+00  0.13645390370E+04  0.13645390370E+04  0.00000000000E+00 0. -1.
         21   -1    0    0  501  502 -0.00000000000E+00 -0.00000000000E+00 -0.38323862076E+02  0.38323862076E+02  0.00000000000E+00 0. -1.
      99926    2    1    2    0    0  0.00000000000E+00  0.88817841970E-15  0.13262151749E+04  0.14028628991E+04  0.45735940288E+03 0.  0.
      99925    2    3    3    0    0  0.30631336203E+02  0.46696076847E+01  0.49266944121E+03  0.55941397810E+03  0.26317434640E+03 0.  0.
         25    1    4    4    0    0  0.56004787431E+02 -0.30318284915E+01  0.25041911167E+03  0.28548724628E+03  0.12509000000E+03 0.  0.
         25    1    3    3    0    0 -0.30631336203E+02 -0.46696076847E+01  0.83354573369E+03  0.84344892095E+03  0.12509000000E+03 0.  0.
         25    1    4    4    0    0 -0.25373451228E+02  0.77014361762E+01  0.24225032954E+03  0.27392673182E+03  0.12509000000E+03 0.  0.
<mgrwt>
<rscale>  2 0.45735940E+03</rscale>
<asrwt>0</asrwt>
<pdfrwt beam="1">  1       21 0.20066747E+00 0.45735940E+03</pdfrwt>
<pdfrwt beam="2">  1       21 0.56358630E-02 0.45735940E+03</pdfrwt>
<totfact> 0.25779888E+04</totfact>
</mgrwt>
</event>
<event>
 7    0  0.4737014E-002  0.4508666E+03  0.7546771E-02  0.1027464E+00
         21   -1    0    0  502  501  0.00000000000E+00  0.00000000000E+00  0.34367575092E+03  0.34367575092E+03  0.00000000000E+00 0.  1.
         21   -1    0    0  501  502 -0.00000000000E+00 -0.00000000000E+00 -0.14787241158E+03  0.14787241158E+03  0.00000000000E+00 0.  1.
      99926    2    1    2    0    0  0.35527136788E-14  0.00000000000E+00  0.19580333933E+03  0.49154816250E+03  0.45086655272E+03 0.  0.
      99925    2    3    3    0    0 -0.30902143415E+02  0.10138309871E+03  0.15264010923E+03  0.32200746619E+03  0.26297591176E+03 0.  0.
         25    1    3    3    0    0  0.30902143415E+02 -0.10138309871E+03  0.43163230107E+02  0.16954069631E+03  0.12509000000E+03 0.  0.
         25    1    4    4    0    0 -0.10375509316E+02  0.14533224441E+02  0.94205850084E+02  0.15761064715E+03  0.12509000000E+03 0.  0.
         25    1    4    4    0    0 -0.20526634099E+02  0.86849874267E+02  0.58434259141E+02  0.16439681904E+03  0.12509000000E+03 0.  0.
<mgrwt>
<rscale>  2 0.45086655E+03</rscale>
<asrwt>0</asrwt>
<pdfrwt beam="1">  1       21 0.50540552E-01 0.45086655E+03</pdfrwt>
<pdfrwt beam="2">  1       21 0.21745943E-01 0.45086655E+03</pdfrwt>
<totfact> 0.68075126E+04</totfact>
</mgrwt>
</event>
<event>
 7    0  0.4737014E-002  0.4508365E+03  0.7546771E-02  0.1027473E+00
         21   -1    0    0  502  501  0.00000000000E+00  0.00000000000E+00  0.78749198475E+03  0.78749198475E+03  0.00000000000E+00 0. -1.
         21   -1    0    0  501  502 -0.00000000000E+00 -0.00000000000E+00 -0.64525585634E+02  0.64525585634E+02  0.00000000000E+00 0. -1.
      99926    2    1    2    0    0  0.00000000000E+00  0.00000000000E+00  0.72296639912E+03  0.85201757039E+03  0.45083647367E+03 0.  0.
      99925    2    3    3    0    0 -0.88282962904E+02 -0.21592423807E+02  0.57377315537E+03  0.63715425015E+03  0.26170554130E+03 0.  0.
         25    1    3    3    0    0  0.88282962904E+02  0.21592423807E+02  0.14919324374E+03  0.21486332024E+03  0.12509000000E+03 0.  0.
         25    1    4    4    0    0 -0.43283965920E+02 -0.38110680772E+02  0.22852371321E+03  0.26682676270E+03  0.12509000000E+03 0.  0.
         25    1    4    4    0    0 -0.44998996984E+02  0.16518256965E+02  0.34524944217E+03  0.37032748745E+03  0.12509000000E+03 0.  0.
<mgrwt>
<rscale>  2 0.45083647E+03</rscale>
<asrwt>0</asrwt>
<pdfrwt beam="1">  1       21 0.11580764E+00 0.45083647E+03</pdfrwt>
<pdfrwt beam="2">  1       21 0.94890571E-02 0.45083647E+03</pdfrwt>
<totfact> 0.46861087E+04</totfact>
</mgrwt>
</event>
<event>
 7    0  0.4737014E-002  0.4235081E+03  0.7546771E-02  0.1035931E+00
         21   -1    0    0  502  501  0.00000000000E+00  0.00000000000E+00  0.32230926247E+04  0.32230926247E+04  0.00000000000E+00 0. -1.
         21   -1    0    0  501  502 -0.00000000000E+00 -0.00000000000E+00 -0.13912034601E+02  0.13912034601E+02  0.00000000000E+00 0. -1.
      99926    2    1    2    0    0  0.00000000000E+00 -0.71054273576E-14  0.32091805901E+04  0.32370046593E+04  0.42350809257E+03 0.  0.
      99925    2    3    3    0    0 -0.19954193650E+02 -0.47647508639E+02  0.16159924811E+04  0.16380786717E+04  0.26306193365E+03 0.  0.
         25    1    3    3    0    0  0.19954193650E+02  0.47647508639E+02  0.15931881091E+04  0.15989259876E+04  0.12509000000E+03 0.  0.
         25    1    4    4    0    0  0.14432983208E+02 -0.98658545327E+01  0.60076008990E+03  0.61389399721E+03  0.12509000000E+03 0.  0.
         25    1    4    4    0    0 -0.34387176857E+02 -0.37781654106E+02  0.10152323912E+04  0.10241846745E+04  0.12509000000E+03 0.  0.
<mgrwt>
<rscale>  2 0.42350809E+03</rscale>
<asrwt>0</asrwt>
<pdfrwt beam="1">  1       21 0.47398369E+00 0.42350809E+03</pdfrwt>
<pdfrwt beam="2">  1       21 0.20458897E-02 0.42350809E+03</pdfrwt>
<totfact> 0.27425731E+03</totfact>
</mgrwt>
</event>
<event>
 7    0  0.4737014E-002  0.4521090E+03  0.7546771E-02  0.1027095E+00
         21   -1    0    0  502  501  0.00000000000E+00  0.00000000000E+00  0.58702379275E+03  0.58702379275E+03  0.00000000000E+00 0.  1.
         21   -1    0    0  501  502 -0.00000000000E+00 -0.00000000000E+00 -0.87050372777E+02  0.87050372777E+02  0.00000000000E+00 0.  1.
      99926    2    1    2    0    0  0.00000000000E+00  0.35527136788E-14  0.49997341997E+03  0.67407416552E+03  0.45210901335E+03 0.  0.
      99925    2    3    3    0    0  0.54732834055E+02 -0.23244349077E+02  0.45443655129E+03  0.52827602631E+03  0.26272989541E+03 0.  0.
         25    1    3    3    0    0 -0.54732834055E+02  0.23244349077E+02  0.45536868678E+02  0.14579813921E+03  0.12509000000E+03 0.  0.
         25    1    4    4    0    0  0.36519314505E+02 -0.50510443778E+02  0.24847686518E+03  0.28508459427E+03  0.12509000000E+03 0.  0.
         25    1    4    4    0    0  0.18213519550E+02  0.27266094701E+02  0.20595968612E+03  0.24319143204E+03  0.12509000000E+03 0.  0.
<mgrwt>
<rscale>  2 0.45210901E+03</rscale>
<asrwt>0</asrwt>
<pdfrwt beam="1">  1       21 0.86327026E-01 0.45210901E+03</pdfrwt>
<pdfrwt beam="2">  1       21 0.12801526E-01 0.45210901E+03</pdfrwt>
<totfact> 0.55588910E+04</totfact>
</mgrwt>
</event>
<event>
 7    0  0.4737014E-002  0.4562665E+03  0.7546771E-02  0.1025870E+00
         21   -1    0    0  502  501  0.00000000000E+00  0.00000000000E+00  0.18100827296E+04  0.18100827296E+04  0.00000000000E+00 0.  1.
         21   -1    0    0  501  502 -0.00000000000E+00 -0.00000000000E+00 -0.28752703685E+02  0.28752703685E+02  0.00000000000E+00 0.  1.
      99926    2    1    2    0    0  0.00000000000E+00  0.00000000000E+00  0.17813300260E+04  0.18388354333E+04  0.45626646763E+03 0.  0.
      99925    2    3    3    0    0  0.99637954293E+02 -0.47703483632E+02  0.10020989210E+04  0.10419339543E+04  0.26309840993E+03 0.  0.
         25    1    4    4    0    0  0.91751842463E+02 -0.36558650687E+02  0.57583202475E+03  0.59748218748E+03  0.12509000000E+03 0.  0.
         25    1    4    4    0    0  0.78861118308E+01 -0.11144832946E+02  0.42626689626E+03  0.44445176680E+03  0.12509000000E+03 0.  0.
         25    1    3    3    0    0 -0.99637954293E+02  0.47703483632E+02  0.77923110494E+03  0.79690147904E+03  0.12509000000E+03 0.  0.
<mgrwt>
<rscale>  2 0.45626647E+03</rscale>
<asrwt>0</asrwt>
<pdfrwt beam="1">  1       21 0.26618856E+00 0.45626647E+03</pdfrwt>
<pdfrwt beam="2">  1       21 0.42283400E-02 0.45626647E+03</pdfrwt>
<totfact> 0.16363376E+04</totfact>
</mgrwt>
</event>
<event>
 7    0  0.4737014E-002  0.4592529E+03  0.7546771E-02  0.1024998E+00
         21   -1    0    0  502  501  0.00000000000E+00  0.00000000000E+00  0.54782672963E+02  0.54782672963E+02  0.00000000000E+00 0. -1.
         21   -1    0    0  501  502 -0.00000000000E+00 -0.00000000000E+00 -0.96249983551E+03  0.96249983551E+03  0.00000000000E+00 0. -1.
      99926    2    1    2    0    0  0.00000000000E+00  0.71054273576E-14 -0.90771716255E+03  0.10172825085E+04  0.45925293125E+03 0.  0.
      99925    2    3    3    0    0  0.70828910667E+02  0.42879211255E+02 -0.75244001256E+03  0.80138007043E+03  0.26303741833E+03 0.  0.
         25    1    4    4    0    0  0.60338016532E+02 -0.10108514040E+02 -0.36300351074E+03  0.38879546706E+03  0.12509000000E+03 0.  0.
         25    1    3    3    0    0 -0.70828910667E+02 -0.42879211255E+02 -0.15527714999E+03  0.21590243804E+03  0.12509000000E+03 0.  0.
         25    1    4    4    0    0  0.10490894135E+02  0.52987725295E+02 -0.38943650182E+03  0.41258460337E+03  0.12509000000E+03 0.  0.
<mgrwt>
<rscale>  2 0.45925293E+03</rscale>
<asrwt>0</asrwt>
<pdfrwt beam="1">  1       21 0.80562752E-02 0.45925293E+03</pdfrwt>
<pdfrwt beam="2">  1       21 0.14154410E+00 0.45925293E+03</pdfrwt>
<totfact> 0.37248828E+04</totfact>
</mgrwt>
</event>
<event>
 7    0  0.4737014E-002  0.4495270E+03  0.7546771E-02  0.1027863E+00
         21   -1    0    0  502  501  0.00000000000E+00  0.00000000000E+00  0.10530934559E+04  0.10530934559E+04  0.00000000000E+00 0.  1.
         21   -1    0    0  501  502 -0.00000000000E+00 -0.00000000000E+00 -0.47971647968E+02  0.47971647968E+02  0.00000000000E+00 0.  1.
      99926    2    1    2    0    0  0.00000000000E+00  0.00000000000E+00  0.10051218080E+04  0.11010651039E+04  0.44952698938E+03 0.  0.
      99925    2    3    3    0    0  0.57164779365E+02 -0.91452473009E+02  0.64779592358E+03  0.70741467195E+03  0.26299162091E+03 0.  0.
         25    1    3    3    0    0 -0.57164779365E+02  0.91452473009E+02  0.35732588439E+03  0.39365043195E+03  0.12509000000E+03 0.  0.
         25    1    4    4    0    0  0.18090101371E+02 -0.62904245079E+02  0.41967976343E+03  0.44278980086E+03  0.12509000000E+03 0.  0.
         25    1    4    4    0    0  0.39074677994E+02 -0.28548227930E+02  0.22811616015E+03  0.26462487109E+03  0.12509000000E+03 0.  0.
<mgrwt>
<rscale>  2 0.44952699E+03</rscale>
<asrwt>0</asrwt>
<pdfrwt beam="1">  1       21 0.15486667E+00 0.44952699E+03</pdfrwt>
<pdfrwt beam="2">  1       21 0.70546548E-02 0.44952699E+03</pdfrwt>
<totfact> 0.37012452E+04</totfact>
</mgrwt>
</event>
<event>
 7    0  0.4737014E-002  0.4528330E+03  0.7546771E-02  0.1026881E+00
         21   -1    0    0  502  501  0.00000000000E+00  0.00000000000E+00  0.33204968635E+03  0.33204968635E+03  0.00000000000E+00 0.  1.
         21   -1    0    0  501  502 -0.00000000000E+00 -0.00000000000E+00 -0.15438780048E+03  0.15438780048E+03  0.00000000000E+00 0.  1.
      99926    2    1    2    0    0  0.00000000000E+00  0.00000000000E+00  0.17766188587E+03  0.48643748682E+03  0.45283295253E+03 0.  0.
      99925    2    3    3    0    0 -0.47435175581E+02  0.96988856219E+02  0.14052174803E+03  0.31707446828E+03  0.26293140293E+03 0.  0.
         25    1    4    4    0    0 -0.25748956120E+02  0.35096008194E+02  0.11093835850E+03  0.17277026949E+03  0.12509000000E+03 0.  0.
         25    1    4    4    0    0 -0.21686219461E+02  0.61892848025E+02  0.29583389531E+02  0.14430419879E+03  0.12509000000E+03 0.  0.
         25    1    3    3    0    0  0.47435175581E+02 -0.96988856219E+02  0.37140137840E+02  0.16936301855E+03  0.12509000000E+03 0.  0.
<mgrwt>
<rscale>  2 0.45283295E+03</rscale>
<asrwt>0</asrwt>
<pdfrwt beam="1">  1       21 0.48830836E-01 0.45283295E+03</pdfrwt>
<pdfrwt beam="2">  1       21 0.22704088E-01 0.45283295E+03</pdfrwt>
<totfact> 0.67386229E+04</totfact>
</mgrwt>
</event>
<event>
 7    0  0.4737014E-002  0.4508126E+03  0.7546771E-02  0.1027480E+00
         21   -1    0    0  502  501  0.00000000000E+00  0.00000000000E+00  0.35566334375E+02  0.35566334375E+02  0.00000000000E+00 0. -1.
         21   -1    0    0  501  502 -0.00000000000E+00 -0.00000000000E+00 -0.14285421486E+04  0.14285421486E+04  0.00000000000E+00 0. -1.
      99926    2    1    2    0    0  0.00000000000E+00  0.00000000000E+00 -0.13929758142E+04  0.14641084830E+04  0.45081263392E+03 0.  0.
      99925    2    3    3    0    0  0.51654210189E+02 -0.96039314013E+02 -0.89823435411E+03  0.94227677857E+03  0.26299974384E+03 0.  0.
         25    1    4    4    0    0 -0.92767324708E-01 -0.51892582020E+02 -0.33535801878E+03  0.36167023313E+03  0.12509000000E+03 0.  0.
         25    1    3    3    0    0 -0.51654210189E+02  0.96039314013E+02 -0.49474146010E+03  0.52183170439E+03  0.12509000000E+03 0.  0.
         25    1    4    4    0    0  0.51746977514E+02 -0.44146731994E+02 -0.56287633533E+03  0.58060654544E+03  0.12509000000E+03 0.  0.
<mgrwt>
<rscale>  2 0.45081263E+03</rscale>
<asrwt>0</asrwt>
<pdfrwt beam="1">  1       21 0.52303437E-02 0.45081263E+03</pdfrwt>
<pdfrwt beam="2">  1       21 0.21007971E+00 0.45081263E+03</pdfrwt>
<totfact> 0.25491681E+04</totfact>
</mgrwt>
</event>
<event>
 6    0  0.4737014E-002  0.4549082E+03  0.7546771E-02  0.1026268E+00
         21   -1    0    0  502  501  0.00000000000E+00  0.00000000000E+00  0.26482664121E+03  0.26482664121E+03  0.00000000000E+00 0.  1.
         21   -1    0    0  501  502 -0.00000000000E+00 -0.00000000000E+00 -0.19535560002E+03  0.19535560002E+03  0.00000000000E+00 0.  1.
      99926    2    1    2    0    0  0.00000000000E+00 -0.26645352591E-14  0.69471041187E+02  0.46018224122E+03  0.45490819906E+03 0.  0.
         25    1    3    3    0    0 -0.57311534225E+02 -0.28109851202E+02  0.87107145160E+02  0.16525718903E+03  0.12509000000E+03 0.  0.
         25    1    3    3    0    0  0.11217725276E+02  0.23467818779E+02  0.59385417220E+02  0.14089255394E+03  0.12509000000E+03 0.  0.
         25    1    3    3    0    0  0.46093808949E+02  0.46420324225E+01 -0.77021521193E+02  0.15403249824E+03  0.12509000000E+03 0.  0.
<mgrwt>
<rscale>  2 0.45490820E+03</rscale>
<asrwt>0</asrwt>
<pdfrwt beam="1">  1       21 0.38945094E-01 0.45490820E+03</pdfrwt>
<pdfrwt beam="2">  1       21 0.28728765E-01 0.45490820E+03</pdfrwt>
<totfact> 0.68217209E+04</totfact>
</mgrwt>
</event>
<event>
 7    0  0.4737014E-002  0.4568723E+03  0.7546771E-02  0.1025692E+00
         21   -1    0    0  502  501  0.00000000000E+00  0.00000000000E+00  0.50895535612E+03  0.50895535612E+03  0.00000000000E+00 0. -1.
         21   -1    0    0  501  502 -0.00000000000E+00 -0.00000000000E+00 -0.10252975902E+03  0.10252975902E+03  0.00000000000E+00 0. -1.
      99926    2    1    2    0    0  0.00000000000E+00 -0.35527136788E-14  0.40642559710E+03  0.61148511514E+03  0.45687227982E+03 0.  0.
      99925    2    3    3    0    0 -0.92935715101E+02 -0.18492924489E+02  0.34235417585E+03  0.44198086588E+03  0.26298606177E+03 0.  0.
         25    1    3    3    0    0  0.92935715101E+02  0.18492924489E+02  0.64071421249E+02  0.16950424926E+03  0.12509000000E+03 0.  0.
         25    1    4    4    0    0 -0.39492302324E+02  0.25854812238E+02  0.13452174452E+03  0.18966212354E+03  0.12509000000E+03 0.  0.
         25    1    4    4    0    0 -0.53443412776E+02 -0.44347736727E+02  0.20783243133E+03  0.25231874234E+03  0.12509000000E+03 0.  0.
<mgrwt>
<rscale>  2 0.45687228E+03</rscale>
<asrwt>0</asrwt>
<pdfrwt beam="1">  1       21 0.74846375E-01 0.45687228E+03</pdfrwt>
<pdfrwt beam="2">  1       21 0.15077906E-01 0.45687228E+03</pdfrwt>
<totfact> 0.57127316E+04</totfact>
</mgrwt>
</event>
<event>
 7    0  0.4737014E-002  0.4540997E+03  0.7546771E-02  0.1026506E+00
         21   -1    0    0  502  501  0.00000000000E+00  0.00000000000E+00  0.68040302321E+03  0.68040302321E+03  0.00000000000E+00 0.  1.
         21   -1    0    0  501  502 -0.00000000000E+00 -0.00000000000E+00 -0.75766315333E+02  0.75766315333E+02  0.00000000000E+00 0.  1.
      99926    2    1    2    0    0  0.00000000000E+00  0.00000000000E+00  0.60463670788E+03  0.75616933855E+03  0.45409968073E+03 0.  0.
      99925    2    3    3    0    0 -0.38191000381E+02  0.96087833750E+02  0.45405735007E+03  0.53478036998E+03  0.26292687702E+03 0.  0.
         25    1    3    3    0    0  0.38191000381E+02 -0.96087833750E+02  0.15057935781E+03  0.22138896857E+03  0.12509000000E+03 0.  0.
         25    1    4    4    0    0 -0.32116187811E+02  0.85574715166E+02  0.28135732836E+03  0.32119143157E+03  0.12509000000E+03 0.  0.
         25    1    4    4    0    0 -0.60748125708E+01  0.10513118584E+02  0.17270002171E+03  0.21358893840E+03  0.12509000000E+03 0.  0.
<mgrwt>
<rscale>  2 0.45409968E+03</rscale>
<asrwt>0</asrwt>
<pdfrwt beam="1">  1       21 0.10005926E+00 0.45409968E+03</pdfrwt>
<pdfrwt beam="2">  1       21 0.11142106E-01 0.45409968E+03</pdfrwt>
<totfact> 0.50311886E+04</totfact>
</mgrwt>
</event>
<event>
 7    0  0.4737014E-002  0.4642035E+03  0.7546771E-02  0.1023569E+00
         21   -1    0    0  502  501  0.00000000000E+00  0.00000000000E+00  0.11966535791E+03  0.11966535791E+03  0.00000000000E+00 0. -1.
         21   -1    0    0  501  502 -0.00000000000E+00 -0.00000000000E+00 -0.45018219651E+03  0.45018219651E+03  0.00000000000E+00 0. -1.
      99926    2    1    2    0    0 -0.14210854715E-13  0.00000000000E+00 -0.33051683860E+03  0.56984755441E+03  0.46420346258E+03 0.  0.
      99925    2    3    3    0    0  0.80797132610E+02  0.86626401961E+02 -0.17415034999E+03  0.33718836802E+03  0.26331604769E+03 0.  0.
         25    1    4    4    0    0  0.81507324346E+02  0.54508367853E+02 -0.10723787644E+03  0.19173439006E+03  0.12509000000E+03 0.  0.
         25    1    3    3    0    0 -0.80797132610E+02 -0.86626401961E+02 -0.15636648861E+03  0.23265918639E+03  0.12509000000E+03 0.  0.
         25    1    4    4    0    0 -0.71019173531E+00  0.32118034108E+02 -0.66912473552E+02  0.14545397796E+03  0.12509000000E+03 0.  0.
<mgrwt>
<rscale>  2 0.46420346E+03</rscale>
<asrwt>0</asrwt>
<pdfrwt beam="1">  1       21 0.17597847E-01 0.46420346E+03</pdfrwt>
<pdfrwt beam="2">  1       21 0.66203264E-01 0.46420346E+03</pdfrwt>
<totfact> 0.56358465E+04</totfact>
</mgrwt>
</event>
<event>
 7    0  0.4737014E-002  0.4561033E+03  0.7546771E-02  0.1025917E+00
         21   -1    0    0  502  501  0.00000000000E+00  0.00000000000E+00  0.72931553715E+03  0.72931553715E+03  0.00000000000E+00 0.  1.
         21   -1    0    0  501  502 -0.00000000000E+00 -0.00000000000E+00 -0.71310078284E+02  0.71310078284E+02  0.00000000000E+00 0.  1.
      99926    2    1    2    0    0  0.00000000000E+00 -0.71054273576E-14  0.65800545887E+03  0.80062561544E+03  0.45610326922E+03 0.  0.
      99925    2    3    3    0    0  0.58950270144E+02 -0.49654443908E+02  0.26600520476E+03  0.38199402863E+03  0.26309688482E+03 0.  0.
         25    1    4    4    0    0  0.27325163504E+02 -0.16765592438E+02  0.18672441603E+03  0.22702701445E+03  0.12509000000E+03 0.  0.
         25    1    4    4    0    0  0.31625106640E+02 -0.32888851470E+02  0.79280788728E+02  0.15496701418E+03  0.12509000000E+03 0.  0.
         25    1    3    3    0    0 -0.58950270144E+02  0.49654443908E+02  0.39200025411E+03  0.41863158681E+03  0.12509000000E+03 0.  0.
<mgrwt>
<rscale>  2 0.45610327E+03</rscale>
<asrwt>0</asrwt>
<pdfrwt beam="1">  1       21 0.10725228E+00 0.45610327E+03</pdfrwt>
<pdfrwt beam="2">  1       21 0.10486777E-01 0.45610327E+03</pdfrwt>
<totfact> 0.47323495E+04</totfact>
</mgrwt>
</event>
<event>
 7    0  0.4737014E-002  0.4838104E+03  0.7546771E-02  0.1018093E+00
         21   -1    0    0  502  501  0.00000000000E+00  0.00000000000E+00  0.21919919029E+02  0.21919919029E+02  0.00000000000E+00 0. -1.
         21   -1    0    0  501  502 -0.00000000000E+00 -0.00000000000E+00 -0.26696320086E+04  0.26696320086E+04  0.00000000000E+00 0. -1.
      99926    2    1    2    0    0  0.00000000000E+00  0.00000000000E+00 -0.26477120896E+04  0.26915519276E+04  0.48381036560E+03 0.  0.
      99925    2    3    3    0    0  0.10443422471E+03 -0.36248992005E+02 -0.20901728129E+04  0.21095570394E+04  0.26303615395E+03 0.  0.
         25    1    3    3    0    0 -0.10443422471E+03  0.36248992005E+02 -0.55753927671E+03  0.58199488820E+03  0.12509000000E+03 0.  0.
         25    1    4    4    0    0  0.56607662704E+02 -0.46832191007E+02 -0.12970585521E+04  0.13051459985E+04  0.12509000000E+03 0.  0.
         25    1    4    4    0    0  0.47826562008E+02  0.10583199002E+02 -0.79311426076E+03  0.80441104099E+03  0.12509000000E+03 0.  0.
<mgrwt>
<rscale>  2 0.48381037E+03</rscale>
<asrwt>0</asrwt>
<pdfrwt beam="1">  1       21 0.32235193E-02 0.48381037E+03</pdfrwt>
<pdfrwt beam="2">  1       21 0.39259273E+00 0.48381037E+03</pdfrwt>
<totfact> 0.43134493E+03</totfact>
</mgrwt>
</event>
<event>
 7    0  0.4737014E-002  0.4462376E+03  0.7546771E-02  0.1028850E+00
         21   -1    0    0  502  501  0.00000000000E+00  0.00000000000E+00  0.48035366510E+03  0.48035366510E+03  0.00000000000E+00 0.  1.
         21   -1    0    0  501  502 -0.00000000000E+00 -0.00000000000E+00 -0.10363614537E+03  0.10363614537E+03  0.00000000000E+00 0.  1.
      99926    2    1    2    0    0  0.71054273576E-14  0.00000000000E+00  0.37671751973E+03  0.58398981047E+03  0.44623761502E+03 0.  0.
      99925    2    3    3    0    0 -0.38087596872E+02 -0.46089105482E+02  0.12646856252E+03  0.29790080445E+03  0.26301277784E+03 0.  0.
         25    1    3    3    0    0  0.38087596872E+02  0.46089105482E+02  0.25024895721E+03  0.28608900602E+03  0.12509000000E+03 0.  0.
         25    1    4    4    0    0  0.86477249879E+01  0.70713533246E+01  0.50822875862E+02  0.13548158545E+03  0.12509000000E+03 0.  0.
         25    1    4    4    0    0 -0.46735321860E+02 -0.53160458806E+02  0.75645686657E+02  0.16241921900E+03  0.12509000000E+03 0.  0.
<mgrwt>
<rscale>  2 0.44623762E+03</rscale>
<asrwt>0</asrwt>
<pdfrwt beam="1">  1       21 0.70640244E-01 0.44623762E+03</pdfrwt>
<pdfrwt beam="2">  1       21 0.15240610E-01 0.44623762E+03</pdfrwt>
<totfact> 0.63993242E+04</totfact>
</mgrwt>
</event>
<event>
 7    0  0.4737014E-002  0.4530380E+03  0.7546771E-02  0.1026820E+00
         21   -1    0    0  502  501  0.00000000000E+00  0.00000000000E+00  0.10872286112E+04  0.10872286112E+04  0.00000000000E+00 0.  1.
         21   -1    0    0  501  502 -0.00000000000E+00 -0.00000000000E+00 -0.47194180856E+02  0.47194180856E+02  0.00000000000E+00 0.  1.
      99926    2    1    2    0    0  0.00000000000E+00  0.00000000000E+00  0.10400344303E+04  0.11344227921E+04  0.45303802802E+03 0.  0.
      99925    2    3    3    0    0 -0.82522137014E+02  0.98210359454E+01  0.84097601866E+03  0.88506739266E+03  0.26305373927E+03 0.  0.
         25    1    4    4    0    0 -0.73879258811E+02  0.95697763858E+01  0.53344891186E+03  0.55296019311E+03  0.12509000000E+03 0.  0.
         25    1    4    4    0    0 -0.86428782030E+01  0.25125955958E+00  0.30752710680E+03  0.33210719955E+03  0.12509000000E+03 0.  0.
         25    1    3    3    0    0  0.82522137014E+02 -0.98210359454E+01  0.19905841168E+03  0.24935539939E+03  0.12509000000E+03 0.  0.
<mgrwt>
<rscale>  2 0.45303803E+03</rscale>
<asrwt>0</asrwt>
<pdfrwt beam="1">  1       21 0.15988654E+00 0.45303803E+03</pdfrwt>
<pdfrwt beam="2">  1       21 0.69403214E-02 0.45303803E+03</pdfrwt>
<totfact> 0.34836467E+04</totfact>
</mgrwt>
</event>
<event>
 7    0  0.4737014E-002  0.4510628E+03  0.7546771E-02  0.1027406E+00
         21   -1    0    0  502  501  0.00000000000E+00  0.00000000000E+00  0.54016717136E+02  0.54016717136E+02  0.00000000000E+00 0.  1.
         21   -1    0    0  501  502 -0.00000000000E+00 -0.00000000000E+00 -0.94164189173E+03  0.94164189173E+03  0.00000000000E+00 0.  1.
      99926    2    1    2    0    0 -0.14210854715E-13  0.00000000000E+00 -0.88762517459E+03  0.99565860886E+03  0.45106276152E+03 0.  0.
      99925    2    3    3    0    0  0.81799280769E+02  0.72392453731E+02 -0.54977264191E+03  0.61919661658E+03  0.26310207621E+03 0.  0.
         25    1    4    4    0    0  0.84886419052E+01  0.47949446847E+02 -0.31175173417E+03  0.33942283122E+03  0.12509000000E+03 0.  0.
         25    1    3    3    0    0 -0.81799280769E+02 -0.72392453731E+02 -0.33785253268E+03  0.37646199228E+03  0.12509000000E+03 0.  0.
         25    1    4    4    0    0  0.73310638864E+02  0.24443006884E+02 -0.23802090774E+03  0.27977378537E+03  0.12509000000E+03 0.  0.
<mgrwt>
<rscale>  2 0.45106276E+03</rscale>
<asrwt>0</asrwt>
<pdfrwt beam="1">  1       21 0.79436349E-02 0.45106276E+03</pdfrwt>
<pdfrwt beam="2">  1       21 0.13847675E+00 0.45106276E+03</pdfrwt>
<totfact> 0.40569320E+04</totfact>
</mgrwt>
</event>
<event>
 7    0  0.4737014E-002  0.4742459E+03  0.7546771E-02  0.1020729E+00
         21   -1    0    0  502  501  0.00000000000E+00  0.00000000000E+00  0.10514814640E+03  0.10514814640E+03  0.00000000000E+00 0. -1.
         21   -1    0    0  501  502 -0.00000000000E+00 -0.00000000000E+00 -0.53474349758E+03  0.53474349758E+03  0.00000000000E+00 0. -1.
      99926    2    1    2    0    0  0.00000000000E+00  0.00000000000E+00 -0.42959535118E+03  0.63989164399E+03  0.47424587535E+03 0.  0.
      99925    2    3    3    0    0  0.64824594826E+02  0.10467859106E+03 -0.32350362165E+03  0.43479947277E+03  0.26312763591E+03 0.  0.
         25    1    3    3    0    0 -0.64824594826E+02 -0.10467859106E+03 -0.10609172953E+03  0.20509217122E+03  0.12509000000E+03 0.  0.
         25    1    4    4    0    0  0.22282563238E+02  0.56027302983E+02 -0.21956622731E+03  0.25979300911E+03  0.12509000000E+03 0.  0.
         25    1    4    4    0    0  0.42542031588E+02  0.48651288073E+02 -0.10393739434E+03  0.17500646367E+03  0.12509000000E+03 0.  0.
<mgrwt>
<rscale>  2 0.47424588E+03</rscale>
<asrwt>0</asrwt>
<pdfrwt beam="1">  1       21 0.15462962E-01 0.47424588E+03</pdfrwt>
<pdfrwt beam="2">  1       21 0.78638752E-01 0.47424588E+03</pdfrwt>
<totfact> 0.48491084E+04</totfact>
</mgrwt>
</event>
<event>
 7    0  0.4737014E-002  0.4696672E+03  0.7546771E-02  0.1022014E+00
         21   -1    0    0  502  501  0.00000000000E+00  0.00000000000E+00  0.66004746415E+02  0.66004746415E+02  0.00000000000E+00 0. -1.
         21   -1    0    0  501  502 -0.00000000000E+00 -0.00000000000E+00 -0.83549772753E+03  0.83549772753E+03  0.00000000000E+00 0. -1.
      99926    2    1    2    0    0  0.00000000000E+00  0.00000000000E+00 -0.76949298112E+03  0.90150247395E+03  0.46966718274E+03 0.  0.
      99925    2    3    3    0    0  0.11638016181E+03  0.47506590173E+02 -0.50326688953E+03  0.58161959207E+03  0.26306381282E+03 0.  0.
         25    1    4    4    0    0  0.49570823079E+02  0.59702474304E+02 -0.22169701174E+03  0.26611787812E+03  0.12509000000E+03 0.  0.
         25    1    3    3    0    0 -0.11638016181E+03 -0.47506590173E+02 -0.26622609159E+03  0.31988288188E+03  0.12509000000E+03 0.  0.
         25    1    4    4    0    0  0.66809338733E+02 -0.12195884131E+02 -0.28156987778E+03  0.31550171395E+03  0.12509000000E+03 0.  0.
<mgrwt>
<rscale>  2 0.46966718E+03</rscale>
<asrwt>0</asrwt>
<pdfrwt beam="1">  1       21 0.97065807E-02 0.46966718E+03</pdfrwt>
<pdfrwt beam="2">  1       21 0.12286731E+00 0.46966718E+03</pdfrwt>
<totfact> 0.38547751E+04</totfact>
</mgrwt>
</event>
<event>
 7    0  0.4737014E-002  0.4555841E+03  0.7546771E-02  0.1026070E+00
         21   -1    0    0  502  501  0.00000000000E+00  0.00000000000E+00  0.10206440432E+03  0.10206440432E+03  0.00000000000E+00 0.  1.
         21   -1    0    0  501  502 -0.00000000000E+00 -0.00000000000E+00 -0.50839685096E+03  0.50839685096E+03  0.00000000000E+00 0.  1.
      99926    2    1    2    0    0  0.17763568394E-14  0.14210854715E-13 -0.40633244665E+03  0.61046125528E+03  0.45558411627E+03 0.  0.
      99925    2    3    3    0    0  0.12525300100E+02 -0.10062110972E+03 -0.18638932146E+03  0.33787369635E+03  0.26293756801E+03 0.  0.
         25    1    4    4    0    0 -0.42549845681E+01 -0.12874875118E+02 -0.62736929650E+02  0.14059622237E+03  0.12509000000E+03 0.  0.
         25    1    4    4    0    0  0.16780284668E+02 -0.87746234601E+02 -0.12365239181E+03  0.19727747398E+03  0.12509000000E+03 0.  0.
         25    1    3    3    0    0 -0.12525300100E+02  0.10062110972E+03 -0.21994312519E+03  0.27258755893E+03  0.12509000000E+03 0.  0.
<mgrwt>
<rscale>  2 0.45558412E+03</rscale>
<asrwt>0</asrwt>
<pdfrwt beam="1">  1       21 0.15009471E-01 0.45558412E+03</pdfrwt>
<pdfrwt beam="2">  1       21 0.74764242E-01 0.45558412E+03</pdfrwt>
<totfact> 0.57771917E+04</totfact>
</mgrwt>
</event>
<event>
 7    0  0.4737014E-002  0.4560290E+03  0.7546771E-02  0.1025939E+00
         21   -1    0    0  502  501  0.00000000000E+00  0.00000000000E+00  0.22642813869E+03  0.22642813869E+03  0.00000000000E+00 0.  1.
         21   -1    0    0  501  502 -0.00000000000E+00 -0.00000000000E+00 -0.22961195922E+03  0.22961195922E+03  0.00000000000E+00 0.  1.
      99926    2    1    2    0    0 -0.35527136788E-14  0.14210854715E-13 -0.31838205283E+01  0.45604009790E+03  0.45602898393E+03 0.  0.
      99925    2    3    3    0    0 -0.23656893942E+02 -0.10247474339E+03  0.42274770108E+02  0.28640898865E+03  0.26302515266E+03 0.  0.
         25    1    3    3    0    0  0.23656893942E+02  0.10247474339E+03 -0.45458590636E+02  0.16963110925E+03  0.12509000000E+03 0.  0.
         25    1    4    4    0    0 -0.48014363800E+02 -0.70407960131E+02  0.31098306474E+02  0.15452272566E+03  0.12509000000E+03 0.  0.
         25    1    4    4    0    0  0.24357469857E+02 -0.32066783255E+02  0.11176463634E+02  0.13188626299E+03  0.12509000000E+03 0.  0.
<mgrwt>
<rscale>  2 0.45602898E+03</rscale>
<asrwt>0</asrwt>
<pdfrwt beam="1">  1       21 0.33298256E-01 0.45602898E+03</pdfrwt>
<pdfrwt beam="2">  1       21 0.33766464E-01 0.45602898E+03</pdfrwt>
<totfact> 0.67910386E+04</totfact>
</mgrwt>
</event>
<event>
 7    0  0.4737014E-002  0.4557406E+03  0.7546771E-02  0.1026024E+00
         21   -1    0    0  502  501  0.00000000000E+00  0.00000000000E+00  0.12625367668E+03  0.12625367668E+03  0.00000000000E+00 0.  1.
         21   -1    0    0  501  502 -0.00000000000E+00 -0.00000000000E+00 -0.41127421583E+03  0.41127421583E+03  0.00000000000E+00 0.  1.
      99926    2    1    2    0    0  0.00000000000E+00  0.00000000000E+00 -0.28502053914E+03  0.53752789251E+03  0.45574063621E+03 0.  0.
      99925    2    3    3    0    0  0.67124853602E+02  0.44499878320E+02 -0.84241908098E+02  0.28763681239E+03  0.26296815704E+03 0.  0.
         25    1    3    3    0    0 -0.67124853602E+02 -0.44499878320E+02 -0.20077863105E+03  0.24989108013E+03  0.12509000000E+03 0.  0.
         25    1    4    4    0    0  0.56212732122E+02  0.33739989545E+02 -0.78274650767E+02  0.16147039109E+03  0.12509000000E+03 0.  0.
         25    1    4    4    0    0  0.10912121481E+02  0.10759888775E+02 -0.59672573311E+01  0.12616642129E+03  0.12509000000E+03 0.  0.
<mgrwt>
<rscale>  2 0.45574064E+03</rscale>
<asrwt>0</asrwt>
<pdfrwt beam="1">  1       21 0.18566717E-01 0.45574064E+03</pdfrwt>
<pdfrwt beam="2">  1       21 0.60481502E-01 0.45574064E+03</pdfrwt>
<totfact> 0.62332101E+04</totfact>
</mgrwt>
</event>
<event>
 7    0  0.4737014E-002  0.4630269E+03  0.7546771E-02  0.1023907E+00
         21   -1    0    0  502  501  0.00000000000E+00  0.00000000000E+00  0.14965825931E+03  0.14965825931E+03  0.00000000000E+00 0. -1.
         21   -1    0    0  501  502 -0.00000000000E+00 -0.00000000000E+00 -0.35813916921E+03  0.35813916921E+03  0.00000000000E+00 0. -1.
      99926    2    1    2    0    0  0.00000000000E+00  0.00000000000E+00 -0.20848090989E+03  0.50779742852E+03  0.46302693077E+03 0.  0.
      99925    2    3    3    0    0  0.10852594271E+03 -0.50601923755E+02 -0.14528524521E+03  0.32346176983E+03  0.26302334333E+03 0.  0.
         25    1    4    4    0    0  0.35009642038E+02  0.36729449935E+01 -0.39293877935E+02  0.13575964976E+03  0.12509000000E+03 0.  0.
         25    1    4    4    0    0  0.73516300671E+02 -0.54274868749E+02 -0.10599136727E+03  0.18770212007E+03  0.12509000000E+03 0.  0.
         25    1    3    3    0    0 -0.10852594271E+03  0.50601923755E+02 -0.63195664685E+02  0.18433565869E+03  0.12509000000E+03 0.  0.
<mgrwt>
<rscale>  2 0.46302693E+03</rscale>
<asrwt>0</asrwt>
<pdfrwt beam="1">  1       21 0.22008567E-01 0.46302693E+03</pdfrwt>
<pdfrwt beam="2">  1       21 0.52667525E-01 0.46302693E+03</pdfrwt>
<totfact> 0.60761613E+04</totfact>
</mgrwt>
</event>
<event>
 7    0  0.4737014E-002  0.4546652E+03  0.7546771E-02  0.1026340E+00
         21   -1    0    0  502  501  0.00000000000E+00  0.00000000000E+00  0.35038265584E+03  0.35038265584E+03  0.00000000000E+00 0. -1.
         21   -1    0    0  501  502 -0.00000000000E+00 -0.00000000000E+00 -0.14749621216E+03  0.14749621216E+03  0.00000000000E+00 0. -1.
      99926    2    1    2    0    0  0.00000000000E+00  0.00000000000E+00  0.20288644368E+03  0.49787886800E+03  0.45466521548E+03 0.  0.
      99925    2    3    3    0    0 -0.75529528366E+02 -0.80370102669E+02  0.10012076050E+03  0.30199023434E+03  0.26269730089E+03 0.  0.
         25    1    3    3    0    0  0.75529528366E+02  0.80370102669E+02  0.10276568317E+03  0.19588863366E+03  0.12509000000E+03 0.  0.
         25    1    4    4    0    0 -0.18399606035E+02 -0.11686295308E+02  0.19656968655E+02  0.12848742941E+03  0.12509000000E+03 0.  0.
         25    1    4    4    0    0 -0.57129922332E+02 -0.68683807361E+02  0.80463791848E+02  0.17350280493E+03  0.12509000000E+03 0.  0.
<mgrwt>
<rscale>  2 0.45466522E+03</rscale>
<asrwt>0</asrwt>
<pdfrwt beam="1">  1       21 0.51526861E-01 0.45466522E+03</pdfrwt>
<pdfrwt beam="2">  1       21 0.21690619E-01 0.45466522E+03</pdfrwt>
<totfact> 0.65594084E+04</totfact>
</mgrwt>
</event>
<event>
 7    0  0.4737014E-002  0.4590853E+03  0.7546771E-02  0.1025047E+00
         21   -1    0    0  502  501  0.00000000000E+00  0.00000000000E+00  0.55000336957E+03  0.55000336957E+03  0.00000000000E+00 0. -1.
         21   -1    0    0  501  502 -0.00000000000E+00 -0.00000000000E+00 -0.95799106693E+02  0.95799106693E+02  0.00000000000E+00 0. -1.
      99926    2    1    2    0    0  0.00000000000E+00  0.00000000000E+00  0.45420426288E+03  0.64580247626E+03  0.45908531444E+03 0.  0.
      99925    2    3    3    0    0  0.39531543412E+02  0.85339274547E+02  0.38311311261E+03  0.47391008419E+03  0.26262059352E+03 0.  0.
         25    1    3    3    0    0 -0.39531543412E+02 -0.85339274547E+02  0.71091150264E+02  0.17189239207E+03  0.12509000000E+03 0.  0.
         25    1    4    4    0    0 -0.18417317958E+02  0.45595205547E+02  0.20607599217E+03  0.24603443462E+03  0.12509000000E+03 0.  0.
         25    1    4    4    0    0  0.57948861370E+02  0.39744069000E+02  0.17703712044E+03  0.22787564958E+03  0.12509000000E+03 0.  0.
<mgrwt>
<rscale>  2 0.45908531E+03</rscale>
<asrwt>0</asrwt>
<pdfrwt beam="1">  1       21 0.80882847E-01 0.45908531E+03</pdfrwt>
<pdfrwt beam="2">  1       21 0.14088104E-01 0.45908531E+03</pdfrwt>
<totfact> 0.54176379E+04</totfact>
</mgrwt>
</event>
<event>
 7    0  0.4737014E-002  0.4496860E+03  0.7546771E-02  0.1027816E+00
         21   -1    0    0  502  501  0.00000000000E+00  0.00000000000E+00  0.81886804787E+02  0.81886804787E+02  0.00000000000E+00 0. -1.
         21   -1    0    0  501  502 -0.00000000000E+00 -0.00000000000E+00 -0.61736911380E+03  0.61736911380E+03  0.00000000000E+00 0. -1.
      99926    2    1    2    0    0 -0.35527136788E-14  0.14210854715E-13 -0.53548230901E+03  0.69925591858E+03  0.44968604205E+03 0.  0.
      99925    2    3    3    0    0  0.20269625499E+02 -0.10631862356E+03 -0.34466392525E+03  0.44672142368E+03  0.26277804622E+03 0.  0.
         25    1    3    3    0    0 -0.20269625499E+02  0.10631862356E+03 -0.19081838376E+03  0.25253449490E+03  0.12509000000E+03 0.  0.
         25    1    4    4    0    0 -0.89707776322E+01 -0.88433613532E+02 -0.16767069032E+03  0.22729264692E+03  0.12509000000E+03 0.  0.
         25    1    4    4    0    0  0.29240403132E+02 -0.17885010029E+02 -0.17699323493E+03  0.21942877676E+03  0.12509000000E+03 0.  0.
<mgrwt>
<rscale>  2 0.44968604E+03</rscale>
<asrwt>0</asrwt>
<pdfrwt beam="1">  1       21 0.12042177E-01 0.44968604E+03</pdfrwt>
<pdfrwt beam="2">  1       21 0.90789574E-01 0.44968604E+03</pdfrwt>
<totfact> 0.55216557E+04</totfact>
</mgrwt>
</event>
<event>
 7    0  0.4737014E-002  0.4567404E+03  0.7546771E-02  0.1025731E+00
         21   -1    0    0  502  501  0.00000000000E+00  0.00000000000E+00  0.28760287140E+02  0.28760287140E+02  0.00000000000E+00 0. -1.
         21   -1    0    0  501  502 -0.00000000000E+00 -0.00000000000E+00 -0.18133668293E+04  0.18133668293E+04  0.00000000000E+00 0. -1.
      99926    2    1    2    0    0  0.00000000000E+00  0.00000000000E+00 -0.17846065421E+04  0.18421271164E+04  0.45674041074E+03 0.  0.
      99925    2    3    3    0    0 -0.73567022485E+02  0.34594229241E+02 -0.14481190058E+04  0.14740507144E+04  0.26299807270E+03 0.  0.
         25    1    4    4    0    0 -0.69191137945E+02 -0.73766066814E+01 -0.73165251868E+03  0.74552313451E+03  0.12509000000E+03 0.  0.
         25    1    4    4    0    0 -0.43758845397E+01  0.41970835922E+02 -0.71646648711E+03  0.72852757990E+03  0.12509000000E+03 0.  0.
         25    1    3    3    0    0  0.73567022485E+02 -0.34594229241E+02 -0.33648753635E+03  0.36807640200E+03  0.12509000000E+03 0.  0.
<mgrwt>
<rscale>  2 0.45674041E+03</rscale>
<asrwt>0</asrwt>
<pdfrwt beam="1">  1       21 0.42294537E-02 0.45674041E+03</pdfrwt>
<pdfrwt beam="2">  1       21 0.26667161E+00 0.45674041E+03</pdfrwt>
<totfact> 0.16242952E+04</totfact>
</mgrwt>
</event>
<event>
 7    0  0.4737014E-002  0.4594333E+03  0.7546771E-02  0.1024946E+00
         21   -1    0    0  502  501  0.00000000000E+00  0.00000000000E+00  0.15005802009E+03  0.15005802009E+03  0.00000000000E+00 0. -1.
         21   -1    0    0  501  502 -0.00000000000E+00 -0.00000000000E+00 -0.35166224592E+03  0.35166224592E+03  0.00000000000E+00 0. -1.
      99926    2    1    2    0    0 -0.35527136788E-14 -0.14210854715E-13 -0.20160422583E+03  0.50172026602E+03  0.45943330469E+03 0.  0.
      99925    2    3    3    0    0 -0.28739716127E+02 -0.67854510501E+02 -0.22601470600E+03  0.35450075127E+03  0.26297895248E+03 0.  0.
         25    1    4    4    0    0 -0.23771356260E+02  0.34435740156E+01 -0.86636320915E+02  0.15404640788E+03  0.12509000000E+03 0.  0.
         25    1    3    3    0    0  0.28739716127E+02  0.67854510501E+02  0.24410480171E+02  0.14721951474E+03  0.12509000000E+03 0.  0.
         25    1    4    4    0    0 -0.49683598667E+01 -0.71298084516E+02 -0.13937838508E+03  0.20045434339E+03  0.12509000000E+03 0.  0.
<mgrwt>
<rscale>  2 0.45943330E+03</rscale>
<asrwt>0</asrwt>
<pdfrwt beam="1">  1       21 0.22067356E-01 0.45943330E+03</pdfrwt>
<pdfrwt beam="2">  1       21 0.51715036E-01 0.45943330E+03</pdfrwt>
<totfact> 0.62906827E+04</totfact>
</mgrwt>
</event>
<event>
 7    0  0.4737014E-002  0.4427899E+03  0.7546771E-02  0.1029894E+00
         21   -1    0    0  502  501  0.00000000000E+00  0.00000000000E+00  0.20962239511E+03  0.20962239511E+03  0.00000000000E+00 0.  1.
         21   -1    0    0  501  502 -0.00000000000E+00 -0.00000000000E+00 -0.23382871082E+03  0.23382871082E+03  0.00000000000E+00 0.  1.
      99926    2    1    2    0    0  0.00000000000E+00  0.00000000000E+00 -0.24206315712E+02  0.44345110592E+03  0.44278994752E+03 0.  0.
      99925    2    3    3    0    0 -0.25623022914E+02 -0.51952959211E+02 -0.98660291471E+02  0.28677771354E+03  0.26296759230E+03 0.  0.
         25    1    3    3    0    0  0.25623022914E+02  0.51952959211E+02  0.74453975759E+02  0.15667339238E+03  0.12509000000E+03 0.  0.
         25    1    4    4    0    0 -0.53075407683E+01 -0.46789144787E+02 -0.14237121889E+02  0.13441576470E+03  0.12509000000E+03 0.  0.
         25    1    4    4    0    0 -0.20315482146E+02 -0.51638144241E+01 -0.84423169582E+02  0.15236194885E+03  0.12509000000E+03 0.  0.
<mgrwt>
<rscale>  2 0.44278995E+03</rscale>
<asrwt>0</asrwt>
<pdfrwt beam="1">  1       21 0.30826823E-01 0.44278995E+03</pdfrwt>
<pdfrwt beam="2">  1       21 0.34386575E-01 0.44278995E+03</pdfrwt>
<totfact> 0.76594727E+04</totfact>
</mgrwt>
</event>
<event>
 7    0  0.4737014E-002  0.4519973E+03  0.7546771E-02  0.1027128E+00
         21   -1    0    0  502  501  0.00000000000E+00  0.00000000000E+00  0.73082832958E+03  0.73082832958E+03  0.00000000000E+00 0.  1.
         21   -1    0    0  501  502 -0.00000000000E+00 -0.00000000000E+00 -0.69886985433E+02  0.69886985433E+02  0.00000000000E+00 0.  1.
      99926    2    1    2    0    0  0.00000000000E+00  0.00000000000E+00  0.66094134415E+03  0.80071531502E+03  0.45199729567E+03 0.  0.
      99925    2    3    3    0    0 -0.10090895529E+03  0.31958378639E+02  0.47229385316E+03  0.55083666611E+03  0.26297451164E+03 0.  0.
         25    1    3    3    0    0  0.10090895529E+03 -0.31958378639E+02  0.18864749099E+03  0.24987864891E+03  0.12509000000E+03 0.  0.
         25    1    4    4    0    0 -0.18204761423E+02 -0.54353966812E+01  0.17739027880E+03  0.21788936640E+03  0.12509000000E+03 0.  0.
         25    1    4    4    0    0 -0.82704193868E+02  0.37393775320E+02  0.29490357436E+03  0.33294729971E+03  0.12509000000E+03 0.  0.
<mgrwt>
<rscale>  2 0.45199730E+03</rscale>
<asrwt>0</asrwt>
<pdfrwt beam="1">  1       21 0.10747475E+00 0.45199730E+03</pdfrwt>
<pdfrwt beam="2">  1       21 0.10277498E-01 0.45199730E+03</pdfrwt>
<totfact> 0.48871733E+04</totfact>
</mgrwt>
</event>
<event>
 7    0  0.4737014E-002  0.4546795E+03  0.7546771E-02  0.1026336E+00
         21   -1    0    0  502  501  0.00000000000E+00  0.00000000000E+00  0.56148072072E+02  0.56148072072E+02  0.00000000000E+00 0.  1.
         21   -1    0    0  501  502 -0.00000000000E+00 -0.00000000000E+00 -0.92048320944E+03  0.92048320944E+03  0.00000000000E+00 0.  1.
      99926    2    1    2    0    0  0.00000000000E+00  0.00000000000E+00 -0.86433513737E+03  0.97663128151E+03  0.45467948089E+03 0.  0.
      99925    2    3    3    0    0 -0.63023324421E+02 -0.86487036406E+02 -0.46730667859E+03  0.54682777750E+03  0.26304588857E+03 0.  0.
         25    1    4    4    0    0 -0.32293385379E+02 -0.77483574884E+02 -0.29787757054E+03  0.33380401772E+03  0.12509000000E+03 0.  0.
         25    1    3    3    0    0  0.63023324421E+02  0.86487036406E+02 -0.39702845878E+03  0.42980350402E+03  0.12509000000E+03 0.  0.
         25    1    4    4    0    0 -0.30729939041E+02 -0.90034615229E+01 -0.16942910805E+03  0.21302375977E+03  0.12509000000E+03 0.  0.
<mgrwt>
<rscale>  2 0.45467948E+03</rscale>
<asrwt>0</asrwt>
<pdfrwt beam="1">  1       21 0.82570700E-02 0.45467948E+03</pdfrwt>
<pdfrwt beam="2">  1       21 0.13536517E+00 0.45467948E+03</pdfrwt>
<totfact> 0.40181354E+04</totfact>
</mgrwt>
</event>
<event>
 7    0  0.4737014E-002  0.4544690E+03  0.7546771E-02  0.1026398E+00
         21   -1    0    0  502  501  0.00000000000E+00  0.00000000000E+00  0.19020146416E+03  0.19020146416E+03  0.00000000000E+00 0. -1.
         21   -1    0    0  501  502 -0.00000000000E+00 -0.00000000000E+00 -0.27147806684E+03  0.27147806684E+03  0.00000000000E+00 0. -1.
      99926    2    1    2    0    0  0.00000000000E+00 -0.88817841970E-15 -0.81276602681E+02  0.46167953099E+03  0.45446903436E+03 0.  0.
      99925    2    3    3    0    0 -0.65536681598E+02  0.47034264043E+01  0.42099333116E+02  0.27409939215E+03  0.26275643489E+03 0.  0.
         25    1    3    3    0    0  0.65536681598E+02 -0.47034264043E+01 -0.12337593580E+03  0.18758013884E+03  0.12509000000E+03 0.  0.
         25    1    4    4    0    0 -0.33236224163E+02 -0.37770746427E+02  0.19195119659E+02  0.13618823958E+03  0.12509000000E+03 0.  0.
         25    1    4    4    0    0 -0.32300457435E+02  0.42474172831E+02  0.22904213457E+02  0.13791115257E+03  0.12509000000E+03 0.  0.
<mgrwt>
<rscale>  2 0.45446903E+03</rscale>
<asrwt>0</asrwt>
<pdfrwt beam="1">  1       21 0.27970804E-01 0.45446903E+03</pdfrwt>
<pdfrwt beam="2">  1       21 0.39923245E-01 0.45446903E+03</pdfrwt>
<totfact> 0.68345330E+04</totfact>
</mgrwt>
</event>
<event>
 7    0  0.4737014E-002  0.4455098E+03  0.7546771E-02  0.1029070E+00
         21   -1    0    0  502  501  0.00000000000E+00  0.00000000000E+00  0.95330533032E+02  0.95330533032E+02  0.00000000000E+00 0. -1.
         21   -1    0    0  501  502 -0.00000000000E+00 -0.00000000000E+00 -0.52050219855E+03  0.52050219855E+03  0.00000000000E+00 0. -1.
      99926    2    1    2    0    0 -0.14210854715E-13 -0.35527136788E-14 -0.42517166552E+03  0.61583273158E+03  0.44550982944E+03 0.  0.
      99925    2    3    3    0    0  0.67483100892E+02  0.16256624007E+02 -0.37773392306E+03  0.46511413870E+03  0.26235471915E+03 0.  0.
         25    1    4    4    0    0  0.35546544735E+02 -0.27763645868E+02 -0.21473352339E+03  0.25257151669E+03  0.12509000000E+03 0.  0.
         25    1    3    3    0    0 -0.67483100892E+02 -0.16256624007E+02 -0.47437742454E+02  0.15071859288E+03  0.12509000000E+03 0.  0.
         25    1    4    4    0    0  0.31936556157E+02  0.44020269875E+02 -0.16300039967E+03  0.21254262201E+03  0.12509000000E+03 0.  0.
<mgrwt>
<rscale>  2 0.44550983E+03</rscale>
<asrwt>0</asrwt>
<pdfrwt beam="1">  1       21 0.14019196E-01 0.44550983E+03</pdfrwt>
<pdfrwt beam="2">  1       21 0.76544440E-01 0.44550983E+03</pdfrwt>
<totfact> 0.62249912E+04</totfact>
</mgrwt>
</event>
<event>
 7    0  0.4737014E-002  0.4475328E+03  0.7546771E-02  0.1028460E+00
         21   -1    0    0  502  501  0.00000000000E+00  0.00000000000E+00  0.29525226461E+03  0.29525226461E+03  0.00000000000E+00 0.  1.
         21   -1    0    0  501  502 -0.00000000000E+00 -0.00000000000E+00 -0.16958856490E+03  0.16958856490E+03  0.00000000000E+00 0.  1.
      99926    2    1    2    0    0 -0.14210854715E-13  0.35527136788E-14  0.12566369971E+03  0.46484082952E+03  0.44753282713E+03 0.  0.
      99925    2    3    3    0    0 -0.10169247012E+03  0.20975146636E+02  0.10183051612E+03  0.30053366596E+03  0.26300135951E+03 0.  0.
         25    1    4    4    0    0 -0.22529418198E+02 -0.14270456461E+02  0.26014350070E+02  0.13052001809E+03  0.12509000000E+03 0.  0.
         25    1    3    3    0    0  0.10169247012E+03 -0.20975146636E+02  0.23833183590E+02  0.16430716356E+03  0.12509000000E+03 0.  0.
         25    1    4    4    0    0 -0.79163051925E+02  0.35245603097E+02  0.75816166053E+02  0.17001364787E+03  0.12509000000E+03 0.  0.
<mgrwt>
<rscale>  2 0.44753283E+03</rscale>
<asrwt>0</asrwt>
<pdfrwt beam="1">  1       21 0.43419451E-01 0.44753283E+03</pdfrwt>
<pdfrwt beam="2">  1       21 0.24939495E-01 0.44753283E+03</pdfrwt>
<totfact> 0.71992489E+04</totfact>
</mgrwt>
</event>
<event>
 7    0  0.4737014E-002  0.4552735E+03  0.7546771E-02  0.1026161E+00
         21   -1    0    0  502  501  0.00000000000E+00  0.00000000000E+00  0.11547274543E+04  0.11547274543E+04  0.00000000000E+00 0. -1.
         21   -1    0    0  501  502 -0.00000000000E+00 -0.00000000000E+00 -0.44875079941E+02  0.44875079941E+02  0.00000000000E+00 0. -1.
      99926    2    1    2    0    0  0.00000000000E+00  0.00000000000E+00  0.11098523744E+04  0.11996025343E+04  0.45527348626E+03 0.  0.
      99925    2    3    3    0    0  0.62504587287E+02 -0.81742108013E+02  0.56564564879E+03  0.63180233707E+03  0.26197442142E+03 0.  0.
         25    1    3    3    0    0 -0.62504587287E+02  0.81742108013E+02  0.54420672558E+03  0.56780019718E+03  0.12509000000E+03 0.  0.
         25    1    4    4    0    0  0.19931264586E+02 -0.23208505022E+02  0.19205557841E+03  0.23123309303E+03  0.12509000000E+03 0.  0.
         25    1    4    4    0    0  0.42573322701E+02 -0.58533602990E+02  0.37359007039E+03  0.40056924405E+03  0.12509000000E+03 0.  0.
<mgrwt>
<rscale>  2 0.45527349E+03</rscale>
<asrwt>0</asrwt>
<pdfrwt beam="1">  1       21 0.16981284E+00 0.45527349E+03</pdfrwt>
<pdfrwt beam="2">  1       21 0.65992772E-02 0.45527349E+03</pdfrwt>
<totfact> 0.32100106E+04</totfact>
</mgrwt>
</event>
<event>
 7    0  0.4737014E-002  0.4816108E+03  0.7546771E-02  0.1018693E+00
         21   -1    0    0  502  501  0.00000000000E+00  0.00000000000E+00  0.55622158330E+03  0.55622158330E+03  0.00000000000E+00 0.  1.
         21   -1    0    0  501  502 -0.00000000000E+00 -0.00000000000E+00 -0.10425204553E+03  0.10425204553E+03  0.00000000000E+00 0.  1.
      99926    2    1    2    0    0 -0.71054273576E-14  0.00000000000E+00  0.45196953777E+03  0.66047362884E+03  0.48161078820E+03 0.  0.
      99925    2    3    3    0    0  0.43805384699E+02  0.14412880372E+02  0.10181335126E+03  0.28579575932E+03  0.26303348590E+03 0.  0.
         25    1    4    4    0    0  0.21062792039E+02  0.17409485633E+02  0.93123760823E+02  0.15832332212E+03  0.12509000000E+03 0.  0.
         25    1    4    4    0    0  0.22742592660E+02 -0.29966052611E+01  0.86895904369E+01  0.12747243720E+03  0.12509000000E+03 0.  0.
         25    1    3    3    0    0 -0.43805384699E+02 -0.14412880372E+02  0.35015618651E+03  0.37467786951E+03  0.12509000000E+03 0.  0.
<mgrwt>
<rscale>  2 0.48161079E+03</rscale>
<asrwt>0</asrwt>
<pdfrwt beam="1">  1       21 0.81797291E-01 0.48161079E+03</pdfrwt>
<pdfrwt beam="2">  1       21 0.15331183E-01 0.48161079E+03</pdfrwt>
<totfact> 0.44906880E+04</totfact>
</mgrwt>
</event>
<event>
 7    0  0.4737014E-002  0.4537997E+03  0.7546771E-02  0.1026595E+00
         21   -1    0    0  502  501  0.00000000000E+00  0.00000000000E+00  0.35483013474E+03  0.35483013474E+03  0.00000000000E+00 0.  1.
         21   -1    0    0  501  502 -0.00000000000E+00 -0.00000000000E+00 -0.14509349043E+03  0.14509349043E+03  0.00000000000E+00 0.  1.
      99926    2    1    2    0    0  0.00000000000E+00  0.00000000000E+00  0.20973664431E+03  0.49992362518E+03  0.45379970366E+03 0.  0.
      99925    2    3    3    0    0 -0.33352285803E+02 -0.60223634315E+02  0.34773649533E+02  0.27409444473E+03  0.26301957500E+03 0.  0.
         25    1    4    4    0    0 -0.43582036541E+02 -0.28972105051E+02  0.48543838394E+02  0.14402357143E+03  0.12509000000E+03 0.  0.
         25    1    4    4    0    0  0.10229750738E+02 -0.31251529264E+02 -0.13770188862E+02  0.13007087331E+03  0.12509000000E+03 0.  0.
         25    1    3    3    0    0  0.33352285803E+02  0.60223634315E+02  0.17496299478E+03  0.22582918044E+03  0.12509000000E+03 0.  0.
<mgrwt>
<rscale>  2 0.45379970E+03</rscale>
<asrwt>0</asrwt>
<pdfrwt beam="1">  1       21 0.52180902E-01 0.45379970E+03</pdfrwt>
<pdfrwt beam="2">  1       21 0.21337278E-01 0.45379970E+03</pdfrwt>
<totfact> 0.65901698E+04</totfact>
</mgrwt>
</event>
<event>
 7    0  0.4737014E-002  0.4605786E+03  0.7546771E-02  0.1024614E+00
         21   -1    0    0  502  501  0.00000000000E+00  0.00000000000E+00  0.22783636996E+03  0.22783636996E+03  0.00000000000E+00 0.  1.
         21   -1    0    0  501  502 -0.00000000000E+00 -0.00000000000E+00 -0.23276863631E+03  0.23276863631E+03  0.00000000000E+00 0.  1.
      99926    2    1    2    0    0  0.00000000000E+00  0.88817841970E-15 -0.49322663523E+01  0.46060500628E+03  0.46057859759E+03 0.  0.
      99925    2    3    3    0    0 -0.77029024803E+02  0.69312920165E+01  0.86423335726E+02  0.28747249170E+03  0.26303978227E+03 0.  0.
         25    1    3    3    0    0  0.77029024803E+02 -0.69312920165E+01 -0.91355602078E+02  0.17313251457E+03  0.12509000000E+03 0.  0.
         25    1    4    4    0    0 -0.63185689656E+02  0.21741578007E+02  0.74484633588E+02  0.16018925161E+03  0.12509000000E+03 0.  0.
         25    1    4    4    0    0 -0.13843335147E+02 -0.14810285991E+02  0.11938702138E+02  0.12728324009E+03  0.12509000000E+03 0.  0.
<mgrwt>
<rscale>  2 0.46057860E+03</rscale>
<asrwt>0</asrwt>
<pdfrwt beam="1">  1       21 0.33505349E-01 0.46057860E+03</pdfrwt>
<pdfrwt beam="2">  1       21 0.34230681E-01 0.46057860E+03</pdfrwt>
<totfact> 0.65186871E+04</totfact>
</mgrwt>
</event>
<event>
 7    0  0.4737014E-002  0.4538655E+03  0.7546771E-02  0.1026576E+00
         21   -1    0    0  502  501  0.00000000000E+00  0.00000000000E+00  0.22408280164E+03  0.22408280164E+03  0.00000000000E+00 0. -1.
         21   -1    0    0  501  502 -0.00000000000E+00 -0.00000000000E+00 -0.22981895847E+03  0.22981895847E+03  0.00000000000E+00 0. -1.
      99926    2    1    2    0    0  0.00000000000E+00  0.00000000000E+00 -0.57361568283E+01  0.45390176010E+03  0.45386551348E+03 0.  0.
      99925    2    3    3    0    0 -0.10591937333E+03  0.21849606668E+02  0.28753961028E+02  0.28498345059E+03  0.26209246055E+03 0.  0.
         25    1    4    4    0    0 -0.83706862725E+02  0.14907808874E+02 -0.11085405873E+02  0.15165578115E+03  0.12509000000E+03 0.  0.
         25    1    4    4    0    0 -0.22212510604E+02  0.69417977935E+01  0.39839366900E+02  0.13332766944E+03  0.12509000000E+03 0.  0.
         25    1    3    3    0    0  0.10591937333E+03 -0.21849606668E+02 -0.34490117856E+02  0.16891830951E+03  0.12509000000E+03 0.  0.
<mgrwt>
<rscale>  2 0.45386551E+03</rscale>
<asrwt>0</asrwt>
<pdfrwt beam="1">  1       21 0.32953353E-01 0.45386551E+03</pdfrwt>
<pdfrwt beam="2">  1       21 0.33796906E-01 0.45386551E+03</pdfrwt>
<totfact> 0.69251065E+04</totfact>
</mgrwt>
</event>
<event>
 7    0  0.4737014E-002  0.4549887E+03  0.7546771E-02  0.1026245E+00
         21   -1    0    0  502  501  0.00000000000E+00  0.00000000000E+00  0.67798141708E+03  0.67798141708E+03  0.00000000000E+00 0.  1.
         21   -1    0    0  501  502 -0.00000000000E+00 -0.00000000000E+00 -0.76334937676E+02  0.76334937676E+02  0.00000000000E+00 0.  1.
      99926    2    1    2    0    0  0.00000000000E+00  0.00000000000E+00  0.60164647941E+03  0.75431635476E+03  0.45498865576E+03 0.  0.
      99925    2    3    3    0    0  0.10818133251E+03  0.15848851817E+02  0.42686023902E+03  0.51316883821E+03  0.26301750141E+03 0.  0.
         25    1    4    4    0    0  0.66663545265E+02  0.28367477648E+01  0.15077608527E+03  0.20696137658E+03  0.12509000000E+03 0.  0.
         25    1    3    3    0    0 -0.10818133251E+03 -0.15848851817E+02  0.17478624039E+03  0.24114751655E+03  0.12509000000E+03 0.  0.
         25    1    4    4    0    0  0.41517787249E+02  0.13012104052E+02  0.27608415374E+03  0.30620746163E+03  0.12509000000E+03 0.  0.
<mgrwt>
<rscale>  2 0.45498866E+03</rscale>
<asrwt>0</asrwt>
<pdfrwt beam="1">  1       21 0.99703146E-01 0.45498866E+03</pdfrwt>
<pdfrwt beam="2">  1       21 0.11225727E-01 0.45498866E+03</pdfrwt>
<totfact> 0.50055659E+04</totfact>
</mgrwt>
</event>
<event>
 7    0  0.4737014E-002  0.4538798E+03  0.7546771E-02  0.1026571E+00
         21   -1    0    0  502  501  0.00000000000E+00  0.00000000000E+00  0.30573479731E+03  0.30573479731E+03  0.00000000000E+00 0. -1.
         21   -1    0    0  501  502 -0.00000000000E+00 -0.00000000000E+00 -0.16845227735E+03  0.16845227735E+03  0.00000000000E+00 0. -1.
      99926    2    1    2    0    0  0.00000000000E+00  0.00000000000E+00  0.13728251996E+03  0.47418707466E+03  0.45387982054E+03 0.  0.
      99925    2    3    3    0    0 -0.32074570805E+02  0.36615946171E+02 -0.18930747885E+02  0.26822688735E+03  0.26309272943E+03 0.  0.
         25    1    4    4    0    0 -0.16334080581E+02  0.52661888546E+02  0.12595805115E+02  0.13728160510E+03  0.12509000000E+03 0.  0.
         25    1    3    3    0    0  0.32074570805E+02 -0.36615946171E+02  0.15621326784E+03  0.20596018731E+03  0.12509000000E+03 0.  0.
         25    1    4    4    0    0 -0.15740490224E+02 -0.16045942374E+02 -0.31526552999E+02  0.13094528225E+03  0.12509000000E+03 0.  0.
<mgrwt>
<rscale>  2 0.45387982E+03</rscale>
<asrwt>0</asrwt>
<pdfrwt beam="1">  1       21 0.44960999E-01 0.45387982E+03</pdfrwt>
<pdfrwt beam="2">  1       21 0.24772394E-01 0.45387982E+03</pdfrwt>
<totfact> 0.67725790E+04</totfact>
</mgrwt>
</event>
<event>
 7    0  0.4737014E-002  0.4738134E+03  0.7546771E-02  0.1020849E+00
         21   -1    0    0  502  501  0.00000000000E+00  0.00000000000E+00  0.12830099932E+03  0.12830099932E+03  0.00000000000E+00 0.  1.
         21   -1    0    0  501  502 -0.00000000000E+00 -0.00000000000E+00 -0.43744622180E+03  0.43744622180E+03  0.00000000000E+00 0.  1.
      99926    2    1    2    0    0 -0.14210854715E-13  0.00000000000E+00 -0.30914522248E+03  0.56574722112E+03  0.47381341225E+03 0.  0.
      99925    2    3    3    0    0  0.10118566567E+03 -0.73940531485E+02 -0.15118878233E+03  0.32846366455E+03  0.26329563212E+03 0.  0.
         25    1    4    4    0    0  0.30942722843E+02 -0.49614790334E+02 -0.35511425339E+02  0.14257506425E+03  0.12509000000E+03 0.  0.
         25    1    4    4    0    0  0.70242942831E+02 -0.24325741151E+02 -0.11567735699E+03  0.18588860030E+03  0.12509000000E+03 0.  0.
         25    1    3    3    0    0 -0.10118566567E+03  0.73940531485E+02 -0.15795644015E+03  0.23728355657E+03  0.12509000000E+03 0.  0.
<mgrwt>
<rscale>  2 0.47381341E+03</rscale>
<asrwt>0</asrwt>
<pdfrwt beam="1">  1       21 0.18867794E-01 0.47381341E+03</pdfrwt>
<pdfrwt beam="2">  1       21 0.64330327E-01 0.47381341E+03</pdfrwt>
<totfact> 0.52567422E+04</totfact>
</mgrwt>
</event>
<event>
 7    0  0.4737014E-002  0.5272261E+03  0.7546771E-02  0.1006907E+00
         21   -1    0    0  502  501  0.00000000000E+00  0.00000000000E+00  0.90851593519E+02  0.90851593519E+02  0.00000000000E+00 0. -1.
         21   -1    0    0  501  502 -0.00000000000E+00 -0.00000000000E+00 -0.76489391030E+03  0.76489391030E+03  0.00000000000E+00 0. -1.
      99926    2    1    2    0    0  0.00000000000E+00  0.00000000000E+00 -0.67404231678E+03  0.85574550382E+03  0.52722606394E+03 0.  0.
      99925    2    3    3    0    0 -0.51218093965E+02  0.16440813351E+03 -0.40467049778E+03  0.51243513042E+03  0.26301753477E+03 0.  0.
         25    1    4    4    0    0 -0.29003418994E+02  0.12378959981E+03 -0.19829889700E+03  0.26671149954E+03  0.12509000000E+03 0.  0.
         25    1    3    3    0    0  0.51218093965E+02 -0.16440813351E+03 -0.26937181900E+03  0.34331037340E+03  0.12509000000E+03 0.  0.
         25    1    4    4    0    0 -0.22214674971E+02  0.40618533701E+02 -0.20637160078E+03  0.24572363088E+03  0.12509000000E+03 0.  0.
<mgrwt>
<rscale>  2 0.52722606E+03</rscale>
<asrwt>0</asrwt>
<pdfrwt beam="1">  1       21 0.13360529E-01 0.52722606E+03</pdfrwt>
<pdfrwt beam="2">  1       21 0.11248439E+00 0.52722606E+03</pdfrwt>
<totfact> 0.26596431E+04</totfact>
</mgrwt>
</event>
<event>
 7    0  0.4737014E-002  0.4385835E+03  0.7546771E-02  0.1031182E+00
         21   -1    0    0  502  501  0.00000000000E+00  0.00000000000E+00  0.15457999702E+04  0.15457999702E+04  0.00000000000E+00 0.  1.
         21   -1    0    0  501  502 -0.00000000000E+00 -0.00000000000E+00 -0.31109374046E+02  0.31109374046E+02  0.00000000000E+00 0.  1.
      99926    2    1    2    0    0  0.35527136788E-14  0.00000000000E+00  0.15146905962E+04  0.15769093443E+04  0.43858349022E+03 0.  0.
      99925    2    3    3    0    0  0.59599947189E+01  0.96740002204E+02  0.97231922806E+03  0.10119240713E+04  0.26304276336E+03 0.  0.
         25    1    4    4    0    0  0.41187342855E+02  0.35257182011E+02  0.49382996159E+03  0.51230362594E+03  0.12509000000E+03 0.  0.
         25    1    4    4    0    0 -0.35227348136E+02  0.61482820193E+02  0.47848926647E+03  0.49962044540E+03  0.12509000000E+03 0.  0.
         25    1    3    3    0    0 -0.59599947189E+01 -0.96740002204E+02  0.54237136811E+03  0.56498527292E+03  0.12509000000E+03 0.  0.
<mgrwt>
<rscale>  2 0.43858349E+03</rscale>
<asrwt>0</asrwt>
<pdfrwt beam="1">  1       21 0.22732347E+00 0.43858349E+03</pdfrwt>
<pdfrwt beam="2">  1       21 0.45749090E-02 0.43858349E+03</pdfrwt>
<totfact> 0.24993433E+04</totfact>
</mgrwt>
</event>
<event>
 7    0  0.4737014E-002  0.4659552E+03  0.7546771E-02  0.1023068E+00
         21   -1    0    0  502  501  0.00000000000E+00  0.00000000000E+00  0.22075262365E+03  0.22075262365E+03  0.00000000000E+00 0.  1.
         21   -1    0    0  501  502 -0.00000000000E+00 -0.00000000000E+00 -0.24587952728E+03  0.24587952728E+03  0.00000000000E+00 0.  1.
      99926    2    1    2    0    0  0.00000000000E+00  0.14210854715E-13 -0.25126903636E+02  0.46663215093E+03  0.46595515127E+03 0.  0.
      99925    2    3    3    0    0 -0.83943052311E+01 -0.11812965203E+03  0.18129714921E+02  0.28902662681E+03  0.26302590252E+03 0.  0.
         25    1    4    4    0    0  0.23059371801E+02 -0.91487342156E+02  0.67009445941E+01  0.15682499533E+03  0.12509000000E+03 0.  0.
         25    1    4    4    0    0 -0.31453677033E+02 -0.26642309870E+02  0.11428770327E+02  0.13220163148E+03  0.12509000000E+03 0.  0.
         25    1    3    3    0    0  0.83943052311E+01  0.11812965203E+03 -0.43256618557E+02  0.17760552412E+03  0.12509000000E+03 0.  0.
<mgrwt>
<rscale>  2 0.46595515E+03</rscale>
<asrwt>0</asrwt>
<pdfrwt beam="1">  1       21 0.32463621E-01 0.46595515E+03</pdfrwt>
<pdfrwt beam="2">  1       21 0.36158754E-01 0.46595515E+03</pdfrwt>
<totfact> 0.62094205E+04</totfact>
</mgrwt>
</event>
<event>
 7    0  0.4737014E-002  0.4501974E+03  0.7546771E-02  0.1027663E+00
         21   -1    0    0  502  501  0.00000000000E+00  0.00000000000E+00  0.16975341745E+03  0.16975341745E+03  0.00000000000E+00 0. -1.
         21   -1    0    0  501  502 -0.00000000000E+00 -0.00000000000E+00 -0.29848839380E+03  0.29848839380E+03  0.00000000000E+00 0. -1.
      99926    2    1    2    0    0  0.00000000000E+00  0.71054273576E-14 -0.12873497635E+03  0.46824181126E+03  0.45019740078E+03 0.  0.
      99925    2    3    3    0    0 -0.91424728162E+02 -0.55780694466E+02 -0.63082167513E+02  0.29096303023E+03  0.26307823609E+03 0.  0.
         25    1    3    3    0    0  0.91424728162E+02  0.55780694466E+02 -0.65652808840E+02  0.17727878103E+03  0.12509000000E+03 0.  0.
         25    1    4    4    0    0 -0.22920809781E+02  0.16654573458E+01 -0.49980129656E+02  0.13665159615E+03  0.12509000000E+03 0.  0.
         25    1    4    4    0    0 -0.68503918381E+02 -0.57446151812E+02 -0.13102037856E+02  0.15431143408E+03  0.12509000000E+03 0.  0.
<mgrwt>
<rscale>  2 0.45019740E+03</rscale>
<asrwt>0</asrwt>
<pdfrwt beam="1">  1       21 0.24963738E-01 0.45019740E+03</pdfrwt>
<pdfrwt beam="2">  1       21 0.43895352E-01 0.45019740E+03</pdfrwt>
<totfact> 0.70203731E+04</totfact>
</mgrwt>
</event>
<event>
 7    0  0.4737014E-002  0.4368870E+03  0.7546771E-02  0.1031706E+00
         21   -1    0    0  502  501  0.00000000000E+00  0.00000000000E+00  0.24433641526E+03  0.24433641526E+03  0.00000000000E+00 0. -1.
         21   -1    0    0  501  502 -0.00000000000E+00 -0.00000000000E+00 -0.19529453081E+03  0.19529453081E+03  0.00000000000E+00 0. -1.
      99926    2    1    2    0    0  0.00000000000E+00 -0.35527136788E-14  0.49041884453E+02  0.43963094607E+03  0.43688701321E+03 0.  0.
      99925    2    3    3    0    0  0.76159297427E+02  0.23269715885E+02 -0.21035481106E+02  0.27561855774E+03  0.26302353439E+03 0.  0.
         25    1    3    3    0    0 -0.76159297427E+02 -0.23269715885E+02  0.70077365558E+02  0.16401238833E+03  0.12509000000E+03 0.  0.
         25    1    4    4    0    0  0.14906276574E+02  0.43048380804E+02 -0.22018974635E+02  0.13493592374E+03  0.12509000000E+03 0.  0.
         25    1    4    4    0    0  0.61253020853E+02 -0.19778664919E+02  0.98349352975E+00  0.14068263400E+03  0.12509000000E+03 0.  0.
<mgrwt>
<rscale>  2 0.43688701E+03</rscale>
<asrwt>0</asrwt>
<pdfrwt beam="1">  1       21 0.35931826E-01 0.43688701E+03</pdfrwt>
<pdfrwt beam="2">  1       21 0.28719784E-01 0.43688701E+03</pdfrwt>
<totfact> 0.80738655E+04</totfact>
</mgrwt>
</event>
<event>
 7    0  0.4737014E-002  0.4616273E+03  0.7546771E-02  0.1024310E+00
         21   -1    0    0  502  501  0.00000000000E+00  0.00000000000E+00  0.49931735536E+02  0.49931735536E+02  0.00000000000E+00 0.  1.
         21   -1    0    0  501  502 -0.00000000000E+00 -0.00000000000E+00 -0.10669555515E+04  0.10669555515E+04  0.00000000000E+00 0.  1.
      99926    2    1    2    0    0  0.00000000000E+00  0.00000000000E+00 -0.10170238160E+04  0.11168872871E+04  0.46162730607E+03 0.  0.
      99925    2    3    3    0    0  0.89359217432E+02 -0.68110089906E+02 -0.73328946705E+03  0.78707409303E+03  0.26296032277E+03 0.  0.
         25    1    3    3    0    0 -0.89359217432E+02  0.68110089906E+02 -0.28373434895E+03  0.32981319404E+03  0.12509000000E+03 0.  0.
         25    1    4    4    0    0  0.28134956361E+02 -0.10474990140E+02 -0.42274713682E+03  0.44188680788E+03  0.12509000000E+03 0.  0.
         25    1    4    4    0    0  0.61224261071E+02 -0.57635099766E+02 -0.31054233022E+03  0.34518728515E+03  0.12509000000E+03 0.  0.
<mgrwt>
<rscale>  2 0.46162731E+03</rscale>
<asrwt>0</asrwt>
<pdfrwt beam="1">  1       21 0.73429024E-02 0.46162731E+03</pdfrwt>
<pdfrwt beam="2">  1       21 0.15690523E+00 0.46162731E+03</pdfrwt>
<totfact> 0.33160511E+04</totfact>
</mgrwt>
</event>
<event>
 7    0  0.4737014E-002  0.4543170E+03  0.7546771E-02  0.1026442E+00
         21   -1    0    0  502  501  0.00000000000E+00  0.00000000000E+00  0.47866528171E+03  0.47866528171E+03  0.00000000000E+00 0.  1.
         21   -1    0    0  501  502 -0.00000000000E+00 -0.00000000000E+00 -0.10780180572E+03  0.10780180572E+03  0.00000000000E+00 0.  1.
      99926    2    1    2    0    0 -0.14210854715E-13 -0.88817841970E-15  0.37086347599E+03  0.58646708742E+03  0.45431698934E+03 0.  0.
      99925    2    3    3    0    0 -0.10852078458E+03 -0.58677974964E+01  0.27116125316E+03  0.39307827422E+03  0.26300363632E+03 0.  0.
         25    1    3    3    0    0  0.10852078458E+03  0.58677974964E+01  0.99702222833E+02  0.19338881320E+03  0.12509000000E+03 0.  0.
         25    1    4    4    0    0 -0.41919847440E+02  0.36094395338E+02  0.12991123041E+03  0.18863858267E+03  0.12509000000E+03 0.  0.
         25    1    4    4    0    0 -0.66600937142E+02 -0.41962192835E+02  0.14125002275E+03  0.20443969155E+03  0.12509000000E+03 0.  0.
<mgrwt>
<rscale>  2 0.45431699E+03</rscale>
<asrwt>0</asrwt>
<pdfrwt beam="1">  1       21 0.70391952E-01 0.45431699E+03</pdfrwt>
<pdfrwt beam="2">  1       21 0.15853207E-01 0.45431699E+03</pdfrwt>
<totfact> 0.59841493E+04</totfact>
</mgrwt>
</event>
<event>
 7    0  0.4737014E-002  0.4524899E+03  0.7546771E-02  0.1026982E+00
         21   -1    0    0  502  501  0.00000000000E+00  0.00000000000E+00  0.55731755978E+03  0.55731755978E+03  0.00000000000E+00 0.  1.
         21   -1    0    0  501  502 -0.00000000000E+00 -0.00000000000E+00 -0.91844901704E+02  0.91844901704E+02  0.00000000000E+00 0.  1.
      99926    2    1    2    0    0  0.00000000000E+00  0.00000000000E+00  0.46547265808E+03  0.64916246148E+03  0.45248989600E+03 0.  0.
      99925    2    3    3    0    0  0.88088618966E+02  0.54564341166E+02  0.35095192771E+03  0.45041795741E+03  0.26262560551E+03 0.  0.
         25    1    3    3    0    0 -0.88088618966E+02 -0.54564341166E+02  0.11452073036E+03  0.19874450408E+03  0.12509000000E+03 0.  0.
         25    1    4    4    0    0  0.30226057998E+02  0.46842954731E+02  0.22582435921E+03  0.26410608910E+03  0.12509000000E+03 0.  0.
         25    1    4    4    0    0  0.57862560968E+02  0.77213864353E+01  0.12512756850E+03  0.18631186830E+03  0.12509000000E+03 0.  0.
<mgrwt>
<rscale>  2 0.45248990E+03</rscale>
<asrwt>0</asrwt>
<pdfrwt beam="1">  1       21 0.81958463E-01 0.45248990E+03</pdfrwt>
<pdfrwt beam="2">  1       21 0.13506603E-01 0.45248990E+03</pdfrwt>
<totfact> 0.56867532E+04</totfact>
</mgrwt>
</event>
<event>
 7    0  0.4737014E-002  0.4607840E+03  0.7546771E-02  0.1024554E+00
         21   -1    0    0  502  501  0.00000000000E+00  0.00000000000E+00  0.42352555464E+03  0.42352555464E+03  0.00000000000E+00 0.  1.
         21   -1    0    0  501  502 -0.00000000000E+00 -0.00000000000E+00 -0.12533001564E+03  0.12533001564E+03  0.00000000000E+00 0.  1.
      99926    2    1    2    0    0  0.00000000000E+00 -0.14210854715E-13  0.29819553900E+03  0.54885557028E+03  0.46078395973E+03 0.  0.
      99925    2    3    3    0    0 -0.52381501253E+02  0.10115153964E+03  0.14939278497E+03  0.32354417830E+03  0.26341445569E+03 0.  0.
         25    1    4    4    0    0 -0.59884258481E+02  0.35338726047E+02  0.54545699877E+02  0.15315903972E+03  0.12509000000E+03 0.  0.
         25    1    3    3    0    0  0.52381501253E+02 -0.10115153964E+03  0.14880275403E+03  0.22531139197E+03  0.12509000000E+03 0.  0.
         25    1    4    4    0    0  0.75027572283E+01  0.65812813597E+02  0.94847085092E+02  0.17038513858E+03  0.12509000000E+03 0.  0.
<mgrwt>
<rscale>  2 0.46078396E+03</rscale>
<asrwt>0</asrwt>
<pdfrwt beam="1">  1       21 0.62283170E-01 0.46078396E+03</pdfrwt>
<pdfrwt beam="2">  1       21 0.18430885E-01 0.46078396E+03</pdfrwt>
<totfact> 0.59186705E+04</totfact>
</mgrwt>
</event>
<event>
 7    0  0.4737014E-002  0.4485080E+03  0.7546771E-02  0.1028168E+00
         21   -1    0    0  502  501  0.00000000000E+00  0.00000000000E+00  0.13519771957E+03  0.13519771957E+03  0.00000000000E+00 0. -1.
         21   -1    0    0  501  502 -0.00000000000E+00 -0.00000000000E+00 -0.37197268666E+03  0.37197268666E+03  0.00000000000E+00 0. -1.
      99926    2    1    2    0    0  0.00000000000E+00  0.71054273576E-14 -0.23677496709E+03  0.50717040623E+03  0.44850801099E+03 0.  0.
      99925    2    3    3    0    0 -0.69437210859E+02 -0.32999634521E+02 -0.23366939261E+03  0.36031110342E+03  0.26327211032E+03 0.  0.
         25    1    4    4    0    0 -0.68247653601E+02 -0.39175946799E+02 -0.10936555408E+03  0.18385001917E+03  0.12509000000E+03 0.  0.
         25    1    3    3    0    0  0.69437210859E+02  0.32999634521E+02 -0.31055744746E+01  0.14685930281E+03  0.12509000000E+03 0.  0.
         25    1    4    4    0    0 -0.11895572579E+01  0.61763122788E+01 -0.12430383853E+03  0.17646108425E+03  0.12509000000E+03 0.  0.
<mgrwt>
<rscale>  2 0.44850801E+03</rscale>
<asrwt>0</asrwt>
<pdfrwt beam="1">  1       21 0.19882018E-01 0.44850801E+03</pdfrwt>
<pdfrwt beam="2">  1       21 0.54701865E-01 0.44850801E+03</pdfrwt>
<totfact> 0.68217238E+04</totfact>
</mgrwt>
</event>
<event>
 7    0  0.4737014E-002  0.4514429E+03  0.7546771E-02  0.1027293E+00
         21   -1    0    0  502  501  0.00000000000E+00  0.00000000000E+00  0.94462418050E+02  0.94462418050E+02  0.00000000000E+00 0. -1.
         21   -1    0    0  501  502 -0.00000000000E+00 -0.00000000000E+00 -0.53936968366E+03  0.53936968366E+03  0.00000000000E+00 0. -1.
      99926    2    1    2    0    0  0.00000000000E+00 -0.71054273576E-14 -0.44490726562E+03  0.63383210171E+03  0.45144286257E+03 0.  0.
      99925    2    3    3    0    0  0.99988488605E+02 -0.32427999017E+02 -0.32559907992E+03  0.43151743529E+03  0.26295106607E+03 0.  0.
         25    1    4    4    0    0  0.48276597063E+02  0.11817555944E+02 -0.11361670550E+03  0.17614354465E+03  0.12509000000E+03 0.  0.
         25    1    3    3    0    0 -0.99988488605E+02  0.32427999017E+02 -0.11930818570E+03  0.20231466642E+03  0.12509000000E+03 0.  0.
         25    1    4    4    0    0  0.51711891542E+02 -0.44245554961E+02 -0.21198237442E+03  0.25537389065E+03  0.12509000000E+03 0.  0.
<mgrwt>
<rscale>  2 0.45144286E+03</rscale>
<asrwt>0</asrwt>
<pdfrwt beam="1">  1       21 0.13891532E-01 0.45144286E+03</pdfrwt>
<pdfrwt beam="2">  1       21 0.79319071E-01 0.45144286E+03</pdfrwt>
<totfact> 0.58261269E+04</totfact>
</mgrwt>
</event>
<event>
 7    0  0.4737014E-002  0.4544339E+03  0.7546771E-02  0.1026408E+00
         21   -1    0    0  502  501  0.00000000000E+00  0.00000000000E+00  0.10782063982E+04  0.10782063982E+04  0.00000000000E+00 0. -1.
         21   -1    0    0  501  502 -0.00000000000E+00 -0.00000000000E+00 -0.47882794339E+02  0.47882794339E+02  0.00000000000E+00 0. -1.
      99926    2    1    2    0    0 -0.35527136788E-14  0.00000000000E+00  0.10303236039E+04  0.11260891926E+04  0.45443386855E+03 0.  0.
      99925    2    3    3    0    0  0.21094998965E+02  0.10653896799E+03  0.57517728191E+03  0.64173267801E+03  0.26305203615E+03 0.  0.
         25    1    4    4    0    0  0.35162932956E+02  0.19972257851E+02  0.28205703881E+03  0.31118965950E+03  0.12509000000E+03 0.  0.
         25    1    3    3    0    0 -0.21094998965E+02 -0.10653896799E+03  0.45514632200E+03  0.48435651458E+03  0.12509000000E+03 0.  0.
         25    1    4    4    0    0 -0.14067933990E+02  0.86566710140E+02  0.29312024310E+03  0.33054301851E+03  0.12509000000E+03 0.  0.
<mgrwt>
<rscale>  2 0.45443387E+03</rscale>
<asrwt>0</asrwt>
<pdfrwt beam="1">  1       21 0.15855975E+00 0.45443387E+03</pdfrwt>
<pdfrwt beam="2">  1       21 0.70415881E-02 0.45443387E+03</pdfrwt>
<totfact> 0.34743885E+04</totfact>
</mgrwt>
</event>
<event>
 7    0  0.4737014E-002  0.4534789E+03  0.7546771E-02  0.1026690E+00
         21   -1    0    0  502  501  0.00000000000E+00  0.00000000000E+00  0.10280519170E+03  0.10280519170E+03  0.00000000000E+00 0. -1.
         21   -1    0    0  501  502 -0.00000000000E+00 -0.00000000000E+00 -0.50007950174E+03  0.50007950174E+03  0.00000000000E+00 0. -1.
      99926    2    1    2    0    0  0.00000000000E+00  0.00000000000E+00 -0.39727431004E+03  0.60288469345E+03  0.45347885967E+03 0.  0.
      99925    2    3    3    0    0  0.84875341430E+02  0.38750356079E+02 -0.16868042120E+03  0.32610303258E+03  0.26302982660E+03 0.  0.
         25    1    3    3    0    0 -0.84875341430E+02 -0.38750356079E+02 -0.22859388884E+03  0.27678166087E+03  0.12509000000E+03 0.  0.
         25    1    4    4    0    0  0.25591812322E+02  0.20637737372E+02 -0.12487810704E+03  0.17978572463E+03  0.12509000000E+03 0.  0.
         25    1    4    4    0    0  0.59283529108E+02  0.18112618708E+02 -0.43802314167E+02  0.14631730795E+03  0.12509000000E+03 0.  0.
<mgrwt>
<rscale>  2 0.45347886E+03</rscale>
<asrwt>0</asrwt>
<pdfrwt beam="1">  1       21 0.15118411E-01 0.45347886E+03</pdfrwt>
<pdfrwt beam="2">  1       21 0.73541103E-01 0.45347886E+03</pdfrwt>
<totfact> 0.59209424E+04</totfact>
</mgrwt>
</event>
<event>
 7    0  0.4737014E-002  0.4594277E+03  0.7546771E-02  0.1024947E+00
         21   -1    0    0  502  501  0.00000000000E+00  0.00000000000E+00  0.14262532452E+04  0.14262532452E+04  0.00000000000E+00 0. -1.
         21   -1    0    0  501  502 -0.00000000000E+00 -0.00000000000E+00 -0.36997958120E+02  0.36997958120E+02  0.00000000000E+00 0. -1.
      99926    2    1    2    0    0 -0.71054273576E-14 -0.88817841970E-15  0.13892552871E+04  0.14632512033E+04  0.45942772155E+03 0.  0.
      99925    2    3    3    0    0  0.36536503201E+02 -0.33194858884E+01  0.51598154675E+03  0.58030133572E+03  0.26299571972E+03 0.  0.
         25    1    4    4    0    0 -0.42326511861E+01 -0.31258856353E+02  0.21683753278E+03  0.25231142495E+03  0.12509000000E+03 0.  0.
         25    1    4    4    0    0  0.40769154387E+02  0.27939370464E+02  0.29914401397E+03  0.32798991077E+03  0.12509000000E+03 0.  0.
         25    1    3    3    0    0 -0.36536503201E+02  0.33194858884E+01  0.87327374030E+03  0.88294986758E+03  0.12509000000E+03 0.  0.
<mgrwt>
<rscale>  2 0.45942772E+03</rscale>
<asrwt>0</asrwt>
<pdfrwt beam="1">  1       21 0.20974309E+00 0.45942772E+03</pdfrwt>
<pdfrwt beam="2">  1       21 0.54408771E-02 0.45942772E+03</pdfrwt>
<totfact> 0.23862512E+04</totfact>
</mgrwt>
</event>
<event>
 7    0  0.4737014E-002  0.4547044E+03  0.7546771E-02  0.1026328E+00
         21   -1    0    0  502  501  0.00000000000E+00  0.00000000000E+00  0.48235295627E+02  0.48235295627E+02  0.00000000000E+00 0. -1.
         21   -1    0    0  501  502 -0.00000000000E+00 -0.00000000000E+00 -0.10716014315E+04  0.10716014315E+04  0.00000000000E+00 0. -1.
      99926    2    1    2    0    0  0.00000000000E+00  0.00000000000E+00 -0.10233661359E+04  0.11198367271E+04  0.45470435160E+03 0.  0.
      99925    2    3    3    0    0  0.56170798532E+02  0.61306211904E+01 -0.88506186100E+03  0.92498210523E+03  0.26280154885E+03 0.  0.
         25    1    4    4    0    0  0.66499618251E+02  0.10056588337E+02 -0.51316761895E+03  0.53245830582E+03  0.12509000000E+03 0.  0.
         25    1    3    3    0    0 -0.56170798532E+02 -0.61306211904E+01 -0.13830427485E+03  0.19485462187E+03  0.12509000000E+03 0.  0.
         25    1    4    4    0    0 -0.10328819719E+02 -0.39259671462E+01 -0.37189424205E+03  0.39252379941E+03  0.12509000000E+03 0.  0.
<mgrwt>
<rscale>  2 0.45470435E+03</rscale>
<asrwt>0</asrwt>
<pdfrwt beam="1">  1       21 0.70934262E-02 0.45470435E+03</pdfrwt>
<pdfrwt beam="2">  1       21 0.15758844E+00 0.45470435E+03</pdfrwt>
<totfact> 0.34885884E+04</totfact>
</mgrwt>
</event>
<event>
 7    0  0.4737014E-002  0.4488231E+03  0.7546771E-02  0.1028074E+00
         21   -1    0    0  502  501  0.00000000000E+00  0.00000000000E+00  0.42136667743E+03  0.42136667743E+03  0.00000000000E+00 0.  1.
         21   -1    0    0  501  502 -0.00000000000E+00 -0.00000000000E+00 -0.11951713757E+03  0.11951713757E+03  0.00000000000E+00 0.  1.
      99926    2    1    2    0    0  0.00000000000E+00  0.14210854715E-13  0.30184953986E+03  0.54088381500E+03  0.44882307942E+03 0.  0.
      99925    2    3    3    0    0 -0.33174754535E+02  0.10200111183E+03  0.19553243200E+03  0.34478275259E+03  0.26293996153E+03 0.  0.
         25    1    3    3    0    0  0.33174754535E+02 -0.10200111183E+03  0.10631710787E+03  0.19610106241E+03  0.12509000000E+03 0.  0.
         25    1    4    4    0    0 -0.21699536702E+02  0.74624564818E+02  0.63114401047E+02  0.16022057074E+03  0.12509000000E+03 0.  0.
         25    1    4    4    0    0 -0.11475217833E+02  0.27376547014E+02  0.13241803095E+03  0.18456218186E+03  0.12509000000E+03 0.  0.
<mgrwt>
<rscale>  2 0.44882308E+03</rscale>
<asrwt>0</asrwt>
<pdfrwt beam="1">  1       21 0.61965688E-01 0.44882308E+03</pdfrwt>
<pdfrwt beam="2">  1       21 0.17576050E-01 0.44882308E+03</pdfrwt>
<totfact> 0.65622372E+04</totfact>
</mgrwt>
</event>
<event>
 7    0  0.4737014E-002  0.4486367E+03  0.7546771E-02  0.1028129E+00
         21   -1    0    0  502  501  0.00000000000E+00  0.00000000000E+00  0.40664757558E+02  0.40664757558E+02  0.00000000000E+00 0. -1.
         21   -1    0    0  501  502 -0.00000000000E+00 -0.00000000000E+00 -0.12374035429E+04  0.12374035429E+04  0.00000000000E+00 0. -1.
      99926    2    1    2    0    0  0.00000000000E+00  0.00000000000E+00 -0.11967387853E+04  0.12780683005E+04  0.44863666847E+03 0.  0.
      99925    2    3    3    0    0 -0.74418644230E+02  0.57478349769E+02 -0.90398002976E+03  0.94610882647E+03  0.26286902065E+03 0.  0.
         25    1    4    4    0    0 -0.45718362951E+02  0.50465172082E+02 -0.35997262609E+03  0.38712362617E+03  0.12509000000E+03 0.  0.
         25    1    3    3    0    0  0.74418644230E+02 -0.57478349769E+02 -0.29275875558E+03  0.33195947399E+03  0.12509000000E+03 0.  0.
         25    1    4    4    0    0 -0.28700281279E+02  0.70131776865E+01 -0.54400740367E+03  0.55898520030E+03  0.12509000000E+03 0.  0.
<mgrwt>
<rscale>  2 0.44863667E+03</rscale>
<asrwt>0</asrwt>
<pdfrwt beam="1">  1       21 0.59801118E-02 0.44863667E+03</pdfrwt>
<pdfrwt beam="2">  1       21 0.18197110E+00 0.44863667E+03</pdfrwt>
<totfact> 0.31278243E+04</totfact>
</mgrwt>
</event>
<event>
 7    0  0.4737014E-002  0.4550472E+03  0.7546771E-02  0.1026228E+00
         21   -1    0    0  502  501  0.00000000000E+00  0.00000000000E+00  0.69875394441E+02  0.69875394441E+02  0.00000000000E+00 0.  1.
         21   -1    0    0  501  502 -0.00000000000E+00 -0.00000000000E+00 -0.74084728365E+03  0.74084728365E+03  0.00000000000E+00 0.  1.
      99926    2    1    2    0    0  0.00000000000E+00  0.00000000000E+00 -0.67097188921E+03  0.81072267809E+03  0.45504723344E+03 0.  0.
      99925    2    3    3    0    0  0.66922856309E+02 -0.84478617503E+02 -0.36011932490E+03  0.45873953880E+03  0.26294625073E+03 0.  0.
         25    1    3    3    0    0 -0.66922856309E+02  0.84478617503E+02 -0.31085256430E+03  0.35198313929E+03  0.12509000000E+03 0.  0.
         25    1    4    4    0    0  0.47416730044E+02 -0.37925004495E+02 -0.12159030002E+03  0.18471156275E+03  0.12509000000E+03 0.  0.
         25    1    4    4    0    0  0.19506126264E+02 -0.46553613008E+02 -0.23852902488E+03  0.27402797605E+03  0.12509000000E+03 0.  0.
<mgrwt>
<rscale>  2 0.45504723E+03</rscale>
<asrwt>0</asrwt>
<pdfrwt beam="1">  1       21 0.10275793E-01 0.45504723E+03</pdfrwt>
<pdfrwt beam="2">  1       21 0.10894813E+00 0.45504723E+03</pdfrwt>
<totfact> 0.47233026E+04</totfact>
</mgrwt>
</event>
<event>
 7    0  0.4737014E-002  0.4469993E+03  0.7546771E-02  0.1028621E+00
         21   -1    0    0  502  501  0.00000000000E+00  0.00000000000E+00  0.69765186789E+02  0.69765186789E+02  0.00000000000E+00 0. -1.
         21   -1    0    0  501  502 -0.00000000000E+00 -0.00000000000E+00 -0.71600302003E+03  0.71600302003E+03  0.00000000000E+00 0. -1.
      99926    2    1    2    0    0  0.00000000000E+00  0.00000000000E+00 -0.64623783324E+03  0.78576820682E+03  0.44699925921E+03 0.  0.
      99925    2    3    3    0    0  0.98741356437E+02 -0.50248502314E+01 -0.47446445011E+03  0.55139946350E+03  0.26296339925E+03 0.  0.
         25    1    4    4    0    0  0.79968194699E+02  0.25840613363E+02 -0.25022510858E+03  0.29210060343E+03  0.12509000000E+03 0.  0.
         25    1    4    4    0    0  0.18773161738E+02 -0.30865463594E+02 -0.22423934153E+03  0.25929886007E+03  0.12509000000E+03 0.  0.
         25    1    3    3    0    0 -0.98741356437E+02  0.50248502314E+01 -0.17177338313E+03  0.23436874332E+03  0.12509000000E+03 0.  0.
<mgrwt>
<rscale>  2 0.44699926E+03</rscale>
<asrwt>0</asrwt>
<pdfrwt beam="1">  1       21 0.10259586E-01 0.44699926E+03</pdfrwt>
<pdfrwt beam="2">  1       21 0.10529456E+00 0.44699926E+03</pdfrwt>
<totfact> 0.51627397E+04</totfact>
</mgrwt>
</event>
<event>
 7    0  0.4737014E-002  0.4558054E+03  0.7546771E-02  0.1026005E+00
         21   -1    0    0  502  501  0.00000000000E+00  0.00000000000E+00  0.22585129301E+03  0.22585129301E+03  0.00000000000E+00 0.  1.
         21   -1    0    0  501  502 -0.00000000000E+00 -0.00000000000E+00 -0.22997270917E+03  0.22997270917E+03  0.00000000000E+00 0.  1.
      99926    2    1    2    0    0  0.00000000000E+00  0.00000000000E+00 -0.41214161571E+01  0.45582400218E+03  0.45580536953E+03 0.  0.
      99925    2    3    3    0    0  0.20351420824E+02 -0.57507908118E+02  0.93080015142E+02  0.28606839499E+03  0.26353348472E+03 0.  0.
         25    1    4    4    0    0  0.24936735664E+02  0.10383815474E+02  0.39660626725E+02  0.13397812441E+03  0.12509000000E+03 0.  0.
         25    1    4    4    0    0 -0.45853148402E+01 -0.67891723592E+02  0.53419388417E+02  0.15209027057E+03  0.12509000000E+03 0.  0.
         25    1    3    3    0    0 -0.20351420824E+02  0.57507908118E+02 -0.97201431299E+02  0.16975560719E+03  0.12509000000E+03 0.  0.
<mgrwt>
<rscale>  2 0.45580537E+03</rscale>
<asrwt>0</asrwt>
<pdfrwt beam="1">  1       21 0.33213426E-01 0.45580537E+03</pdfrwt>
<pdfrwt beam="2">  1       21 0.33819516E-01 0.45580537E+03</pdfrwt>
<totfact> 0.68047143E+04</totfact>
</mgrwt>
</event>
<event>
 7    0  0.4737014E-002  0.4570722E+03  0.7546771E-02  0.1025634E+00
         21   -1    0    0  502  501  0.00000000000E+00  0.00000000000E+00  0.34823007934E+03  0.34823007934E+03  0.00000000000E+00 0. -1.
         21   -1    0    0  501  502 -0.00000000000E+00 -0.00000000000E+00 -0.14998346495E+03  0.14998346495E+03  0.00000000000E+00 0. -1.
      99926    2    1    2    0    0  0.00000000000E+00  0.00000000000E+00  0.19824661439E+03  0.49821354429E+03  0.45707222142E+03 0.  0.
      99925    2    3    3    0    0  0.10773120539E+03 -0.39246006305E+02  0.11285010385E+03  0.30824951154E+03  0.26293792765E+03 0.  0.
         25    1    4    4    0    0  0.44370202955E+02 -0.56869549723E+02  0.70681256340E+02  0.16076756107E+03  0.12509000000E+03 0.  0.
         25    1    3    3    0    0 -0.10773120539E+03  0.39246006305E+02  0.85396510546E+02  0.18996403275E+03  0.12509000000E+03 0.  0.
         25    1    4    4    0    0  0.63361002439E+02  0.17623543418E+02  0.42168847506E+02  0.14748195046E+03  0.12509000000E+03 0.  0.
<mgrwt>
<rscale>  2 0.45707222E+03</rscale>
<asrwt>0</asrwt>
<pdfrwt beam="1">  1       21 0.51210306E-01 0.45707222E+03</pdfrwt>
<pdfrwt beam="2">  1       21 0.22056392E-01 0.45707222E+03</pdfrwt>
<totfact> 0.64331557E+04</totfact>
</mgrwt>
</event>
<event>
 7    0  0.4737014E-002  0.4535755E+03  0.7546771E-02  0.1026661E+00
         21   -1    0    0  502  501  0.00000000000E+00  0.00000000000E+00  0.88923903089E+02  0.88923903089E+02  0.00000000000E+00 0. -1.
         21   -1    0    0  501  502 -0.00000000000E+00 -0.00000000000E+00 -0.57838987773E+03  0.57838987773E+03  0.00000000000E+00 0. -1.
      99926    2    1    2    0    0  0.35527136788E-14  0.00000000000E+00 -0.48946597464E+03  0.66731378082E+03  0.45357550831E+03 0.  0.
      99925    2    3    3    0    0 -0.30384777716E+02 -0.87823199726E+02 -0.39990196502E+03  0.48757683680E+03  0.26300844288E+03 0.  0.
         25    1    4    4    0    0  0.12478020731E+02 -0.35553342277E+02 -0.24258406709E+03  0.27552545954E+03  0.12509000000E+03 0.  0.
         25    1    3    3    0    0  0.30384777716E+02  0.87823199726E+02 -0.89564009622E+02  0.17973694402E+03  0.12509000000E+03 0.  0.
         25    1    4    4    0    0 -0.42862798447E+02 -0.52269857449E+02 -0.15731789793E+03  0.21205137726E+03  0.12509000000E+03 0.  0.
<mgrwt>
<rscale>  2 0.45357551E+03</rscale>
<asrwt>0</asrwt>
<pdfrwt beam="1">  1       21 0.13077045E-01 0.45357551E+03</pdfrwt>
<pdfrwt beam="2">  1       21 0.85057334E-01 0.45357551E+03</pdfrwt>
<totfact> 0.55332491E+04</totfact>
</mgrwt>
</event>
<event>
 7    0  0.4737014E-002  0.4601328E+03  0.7546771E-02  0.1024743E+00
         21   -1    0    0  502  501  0.00000000000E+00  0.00000000000E+00  0.31108388644E+03  0.31108388644E+03  0.00000000000E+00 0.  1.
         21   -1    0    0  501  502 -0.00000000000E+00 -0.00000000000E+00 -0.17014877288E+03  0.17014877288E+03  0.00000000000E+00 0.  1.
      99926    2    1    2    0    0  0.00000000000E+00  0.00000000000E+00  0.14093511357E+03  0.48123265932E+03  0.46013277014E+03 0.  0.
      99925    2    3    3    0    0 -0.75345200511E+02 -0.78650105449E+02  0.13554471169E+03  0.31528295953E+03  0.26299855014E+03 0.  0.
         25    1    4    4    0    0 -0.22731493891E+02 -0.51931184200E+01  0.38285416054E+02  0.13287953370E+03  0.12509000000E+03 0.  0.
         25    1    4    4    0    0 -0.52613706621E+02 -0.73456987029E+02  0.97259295632E+02  0.18240342583E+03  0.12509000000E+03 0.  0.
         25    1    3    3    0    0  0.75345200511E+02  0.78650105449E+02  0.53904018800E+01  0.16594969979E+03  0.12509000000E+03 0.  0.
<mgrwt>
<rscale>  2 0.46013277E+03</rscale>
<asrwt>0</asrwt>
<pdfrwt beam="1">  1       21 0.45747630E-01 0.46013277E+03</pdfrwt>
<pdfrwt beam="2">  1       21 0.25021878E-01 0.46013277E+03</pdfrwt>
<totfact> 0.63964665E+04</totfact>
</mgrwt>
</event>
<event>
 7    0  0.4737014E-002  0.4524960E+03  0.7546771E-02  0.1026980E+00
         21   -1    0    0  502  501  0.00000000000E+00  0.00000000000E+00  0.44510393788E+03  0.44510393788E+03  0.00000000000E+00 0.  1.
         21   -1    0    0  501  502 -0.00000000000E+00 -0.00000000000E+00 -0.11500271552E+03  0.11500271552E+03  0.00000000000E+00 0.  1.
      99926    2    1    2    0    0 -0.14210854715E-13 -0.26645352591E-14  0.33010122236E+03  0.56010665339E+03  0.45249601786E+03 0.  0.
      99925    2    3    3    0    0 -0.64811130466E+02 -0.44086822552E+01  0.31941814090E+03  0.41875052356E+03  0.26287665004E+03 0.  0.
         25    1    4    4    0    0 -0.62910991392E+02 -0.24476761372E+02  0.19371478364E+03  0.24027032731E+03  0.12509000000E+03 0.  0.
         25    1    3    3    0    0  0.64811130466E+02  0.44086822552E+01  0.10683081457E+02  0.14135612983E+03  0.12509000000E+03 0.  0.
         25    1    4    4    0    0 -0.19001390740E+01  0.20068079116E+02  0.12570335726E+03  0.17848019625E+03  0.12509000000E+03 0.  0.
<mgrwt>
<rscale>  2 0.45249602E+03</rscale>
<asrwt>0</asrwt>
<pdfrwt beam="1">  1       21 0.65456461E-01 0.45249602E+03</pdfrwt>
<pdfrwt beam="2">  1       21 0.16912164E-01 0.45249602E+03</pdfrwt>
<totfact> 0.62430908E+04</totfact>
</mgrwt>
</event>
<event>
 7    0  0.4737014E-002  0.4530860E+03  0.7546771E-02  0.1026806E+00
         21   -1    0    0  502  501  0.00000000000E+00  0.00000000000E+00  0.73749903993E+02  0.73749903993E+02  0.00000000000E+00 0. -1.
         21   -1    0    0  501  502 -0.00000000000E+00 -0.00000000000E+00 -0.69588885292E+03  0.69588885292E+03  0.00000000000E+00 0. -1.
      99926    2    1    2    0    0  0.00000000000E+00  0.00000000000E+00 -0.62213894893E+03  0.76963875691E+03  0.45308602315E+03 0.  0.
      99925    2    3    3    0    0 -0.95060912128E+02  0.45204466432E+02 -0.33095404384E+03  0.43569837623E+03  0.26310164408E+03 0.  0.
         25    1    3    3    0    0  0.95060912128E+02 -0.45204466432E+02 -0.29118490508E+03  0.33394038068E+03  0.12509000000E+03 0.  0.
         25    1    4    4    0    0 -0.84282314061E+02  0.53892445544E+01 -0.19226957724E+03  0.24443332598E+03  0.12509000000E+03 0.  0.
         25    1    4    4    0    0 -0.10778598067E+02  0.39815221877E+02 -0.13868446660E+03  0.19126505025E+03  0.12509000000E+03 0.  0.
<mgrwt>
<rscale>  2 0.45308602E+03</rscale>
<asrwt>0</asrwt>
<pdfrwt beam="1">  1       21 0.10845575E-01 0.45308602E+03</pdfrwt>
<pdfrwt beam="2">  1       21 0.10233659E+00 0.45308602E+03</pdfrwt>
<totfact> 0.50015614E+04</totfact>
</mgrwt>
</event>
<event>
 7    0  0.4737014E-002  0.4582214E+03  0.7546771E-02  0.1025298E+00
         21   -1    0    0  502  501  0.00000000000E+00  0.00000000000E+00  0.22652419646E+04  0.22652419646E+04  0.00000000000E+00 0.  1.
         21   -1    0    0  501  502 -0.00000000000E+00 -0.00000000000E+00 -0.23172677973E+02  0.23172677973E+02  0.00000000000E+00 0.  1.
      99926    2    1    2    0    0  0.00000000000E+00  0.00000000000E+00  0.22420692866E+04  0.22884146425E+04  0.45822144243E+03 0.  0.
      99925    2    3    3    0    0 -0.84867346992E+02  0.78027734621E+02  0.14517648152E+04  0.14800091381E+04  0.26365730853E+03 0.  0.
         25    1    4    4    0    0 -0.67015606348E+02  0.36956029185E+02  0.93538392536E+03  0.94680908081E+03  0.12509000000E+03 0.  0.
         25    1    3    3    0    0  0.84867346992E+02 -0.78027734621E+02  0.79030447139E+03  0.80840550441E+03  0.12509000000E+03 0.  0.
         25    1    4    4    0    0 -0.17851740644E+02  0.41071705435E+02  0.51638088984E+03  0.53320005732E+03  0.12509000000E+03 0.  0.
<mgrwt>
<rscale>  2 0.45822144E+03</rscale>
<asrwt>0</asrwt>
<pdfrwt beam="1">  1       21 0.33312367E+00 0.45822144E+03</pdfrwt>
<pdfrwt beam="2">  1       21 0.34077483E-02 0.45822144E+03</pdfrwt>
<totfact> 0.93112761E+03</totfact>
</mgrwt>
</event>
<event>
 7    0  0.4737014E-002  0.4610663E+03  0.7546771E-02  0.1024472E+00
         21   -1    0    0  502  501  0.00000000000E+00  0.00000000000E+00  0.10431482419E+03  0.10431482419E+03  0.00000000000E+00 0. -1.
         21   -1    0    0  501  502 -0.00000000000E+00 -0.00000000000E+00 -0.50947251221E+03  0.50947251221E+03  0.00000000000E+00 0. -1.
      99926    2    1    2    0    0  0.00000000000E+00  0.00000000000E+00 -0.40515768803E+03  0.61378733640E+03  0.46106630993E+03 0.  0.
      99925    2    3    3    0    0 -0.31043272884E+02 -0.32979655398E+02 -0.39998681831E+03  0.48064985687E+03  0.26264707808E+03 0.  0.
         25    1    3    3    0    0  0.31043272884E+02  0.32979655398E+02 -0.51708697156E+01  0.13313747953E+03  0.12509000000E+03 0.  0.
         25    1    4    4    0    0 -0.90131396543E+01  0.20092982994E+02 -0.16379810472E+03  0.20727347119E+03  0.12509000000E+03 0.  0.
         25    1    4    4    0    0 -0.22030133230E+02 -0.53072638392E+02 -0.23618871360E+03  0.27337638568E+03  0.12509000000E+03 0.  0.
<mgrwt>
<rscale>  2 0.46106631E+03</rscale>
<asrwt>0</asrwt>
<pdfrwt beam="1">  1       21 0.15340415E-01 0.46106631E+03</pdfrwt>
<pdfrwt beam="2">  1       21 0.74922428E-01 0.46106631E+03</pdfrwt>
<totfact> 0.55147359E+04</totfact>
</mgrwt>
</event>
<event>
 7    0  0.4737014E-002  0.4518671E+03  0.7546771E-02  0.1027167E+00
         21   -1    0    0  502  501  0.00000000000E+00  0.00000000000E+00  0.84178256150E+03  0.84178256150E+03  0.00000000000E+00 0.  1.
         21   -1    0    0  501  502 -0.00000000000E+00 -0.00000000000E+00 -0.60640323252E+02  0.60640323252E+02  0.00000000000E+00 0.  1.
      99926    2    1    2    0    0  0.00000000000E+00  0.35527136788E-14  0.78114223825E+03  0.90242288475E+03  0.45186708947E+03 0.  0.
      99925    2    3    3    0    0  0.10611682927E+03  0.22766894103E+02  0.53924073940E+03  0.60926259384E+03  0.26199469519E+03 0.  0.
         25    1    3    3    0    0 -0.10611682927E+03 -0.22766894103E+02  0.24190149885E+03  0.29316029091E+03  0.12509000000E+03 0.  0.
         25    1    4    4    0    0  0.56169621083E+02  0.50267013329E+02  0.28441086645E+03  0.31971682473E+03  0.12509000000E+03 0.  0.
         25    1    4    4    0    0  0.49947208184E+02 -0.27500119227E+02  0.25482987295E+03  0.28954576911E+03  0.12509000000E+03 0.  0.
<mgrwt>
<rscale>  2 0.45186709E+03</rscale>
<asrwt>0</asrwt>
<pdfrwt beam="1">  1       21 0.12379155E+00 0.45186709E+03</pdfrwt>
<pdfrwt beam="2">  1       21 0.89176951E-02 0.45186709E+03</pdfrwt>
<totfact> 0.44203397E+04</totfact>
</mgrwt>
</event>
<event>
 7    0  0.4737014E-002  0.4581311E+03  0.7546771E-02  0.1025325E+00
         21   -1    0    0  502  501  0.00000000000E+00  0.00000000000E+00  0.94839411469E+03  0.94839411469E+03  0.00000000000E+00 0. -1.
         21   -1    0    0  501  502 -0.00000000000E+00 -0.00000000000E+00 -0.55326180218E+02  0.55326180218E+02  0.00000000000E+00 0. -1.
      99926    2    1    2    0    0  0.00000000000E+00  0.00000000000E+00  0.89306793447E+03  0.10037202949E+04  0.45813108913E+03 0.  0.
      99925    2    3    3    0    0 -0.28610759471E+02 -0.11240534474E+03  0.57385030683E+03  0.64177977634E+03  0.26291361621E+03 0.  0.
         25    1    4    4    0    0 -0.33684004560E+02 -0.18540583169E+02  0.25728551152E+03  0.28865499810E+03  0.12509000000E+03 0.  0.
         25    1    4    4    0    0  0.50732450897E+01 -0.93864761572E+02  0.31656479531E+03  0.35312477824E+03  0.12509000000E+03 0.  0.
         25    1    3    3    0    0  0.28610759471E+02  0.11240534474E+03  0.31921762764E+03  0.36194051857E+03  0.12509000000E+03 0.  0.
<mgrwt>
<rscale>  2 0.45813109E+03</rscale>
<asrwt>0</asrwt>
<pdfrwt beam="1">  1       21 0.13946971E+00 0.45813109E+03</pdfrwt>
<pdfrwt beam="2">  1       21 0.81362035E-02 0.45813109E+03</pdfrwt>
<totfact> 0.38082651E+04</totfact>
</mgrwt>
</event>
<event>
 7    0  0.4737014E-002  0.4397109E+03  0.7546771E-02  0.1030836E+00
         21   -1    0    0  502  501  0.00000000000E+00  0.00000000000E+00  0.32794559969E+02  0.32794559969E+02  0.00000000000E+00 0. -1.
         21   -1    0    0  501  502 -0.00000000000E+00 -0.00000000000E+00 -0.14739159370E+04  0.14739159370E+04  0.00000000000E+00 0. -1.
      99926    2    1    2    0    0  0.00000000000E+00  0.00000000000E+00 -0.14411213771E+04  0.15067104970E+04  0.43971092589E+03 0.  0.
      99925    2    3    3    0    0 -0.55254505077E+02 -0.16337154207E+02 -0.11923242574E+04  0.12223384207E+04  0.26297170369E+03 0.  0.
         25    1    3    3    0    0  0.55254505077E+02  0.16337154207E+02 -0.24879711964E+03  0.28437207630E+03  0.12509000000E+03 0.  0.
         25    1    4    4    0    0 -0.49177429477E+02 -0.27253347365E+02 -0.48900986379E+03  0.50787726814E+03  0.12509000000E+03 0.  0.
         25    1    4    4    0    0 -0.60770755999E+01  0.10916193158E+02 -0.70331439363E+03  0.71446115255E+03  0.12509000000E+03 0.  0.
<mgrwt>
<rscale>  2 0.43971093E+03</rscale>
<asrwt>0</asrwt>
<pdfrwt beam="1">  1       21 0.48227297E-02 0.43971093E+03</pdfrwt>
<pdfrwt beam="2">  1       21 0.21675233E+00 0.43971093E+03</pdfrwt>
<totfact> 0.26641303E+04</totfact>
</mgrwt>
</event>
<event>
 7    0  0.4737014E-002  0.4510036E+03  0.7546771E-02  0.1027423E+00
         21   -1    0    0  502  501  0.00000000000E+00  0.00000000000E+00  0.11850961322E+03  0.11850961322E+03  0.00000000000E+00 0.  1.
         21   -1    0    0  501  502 -0.00000000000E+00 -0.00000000000E+00 -0.42908815521E+03  0.42908815521E+03  0.00000000000E+00 0.  1.
      99926    2    1    2    0    0  0.00000000000E+00 -0.71054273576E-14 -0.31057854199E+03  0.54759776843E+03  0.45100364216E+03 0.  0.
      99925    2    3    3    0    0  0.93072802607E+02 -0.55416682313E+02 -0.21362231975E+03  0.35581254378E+03  0.26312452480E+03 0.  0.
         25    1    3    3    0    0 -0.93072802607E+02  0.55416682313E+02 -0.96956222235E+02  0.19178522465E+03  0.12509000000E+03 0.  0.
         25    1    4    4    0    0  0.39833410051E+02  0.13464845362E+02 -0.92864972113E+02  0.16136732557E+03  0.12509000000E+03 0.  0.
         25    1    4    4    0    0  0.53239392556E+02 -0.68881527675E+02 -0.12075734764E+03  0.19444521821E+03  0.12509000000E+03 0.  0.
<mgrwt>
<rscale>  2 0.45100364E+03</rscale>
<asrwt>0</asrwt>
<pdfrwt beam="1">  1       21 0.17427884E-01 0.45100364E+03</pdfrwt>
<pdfrwt beam="2">  1       21 0.63101199E-01 0.45100364E+03</pdfrwt>
<totfact> 0.64026182E+04</totfact>
</mgrwt>
</event>
<event>
 7    0  0.4737014E-002  0.4597179E+03  0.7546771E-02  0.1024863E+00
         21   -1    0    0  502  501  0.00000000000E+00  0.00000000000E+00  0.39551841994E+03  0.39551841994E+03  0.00000000000E+00 0. -1.
         21   -1    0    0  501  502 -0.00000000000E+00 -0.00000000000E+00 -0.13358451382E+03  0.13358451382E+03  0.00000000000E+00 0. -1.
      99926    2    1    2    0    0  0.00000000000E+00 -0.35527136788E-14  0.26193390613E+03  0.52910293376E+03  0.45971789538E+03 0.  0.
      99925    2    3    3    0    0 -0.74752272833E+02 -0.22157743956E+02  0.26537603066E+03  0.38166405072E+03  0.26299076419E+03 0.  0.
         25    1    4    4    0    0 -0.40691646104E+02 -0.29873902332E+02  0.18491071486E+03  0.22888368372E+03  0.12509000000E+03 0.  0.
         25    1    3    3    0    0  0.74752272833E+02  0.22157743956E+02 -0.34421245337E+01  0.14743888304E+03  0.12509000000E+03 0.  0.
         25    1    4    4    0    0 -0.34060626729E+02  0.77161583762E+01  0.80465315795E+02  0.15278036700E+03  0.12509000000E+03 0.  0.
<mgrwt>
<rscale>  2 0.45971790E+03</rscale>
<asrwt>0</asrwt>
<pdfrwt beam="1">  1       21 0.58164473E-01 0.45971790E+03</pdfrwt>
<pdfrwt beam="2">  1       21 0.19644782E-01 0.45971790E+03</pdfrwt>
<totfact> 0.60955566E+04</totfact>
</mgrwt>
</event>
<event>
 7    0  0.4737014E-002  0.4527212E+03  0.7546771E-02  0.1026914E+00
         21   -1    0    0  502  501  0.00000000000E+00  0.00000000000E+00  0.27866941560E+03  0.27866941560E+03  0.00000000000E+00 0. -1.
         21   -1    0    0  501  502 -0.00000000000E+00 -0.00000000000E+00 -0.18387063393E+03  0.18387063393E+03  0.00000000000E+00 0. -1.
      99926    2    1    2    0    0  0.35527136788E-14  0.00000000000E+00  0.94798781667E+02  0.46254004953E+03  0.45272120384E+03 0.  0.
      99925    2    3    3    0    0  0.16999512120E+02  0.68835345637E+02  0.14696514690E+03  0.30958212726E+03  0.26308753466E+03 0.  0.
         25    1    4    4    0    0 -0.23906901667E+02  0.12908321942E+02  0.53433285514E+02  0.13871117051E+03  0.12509000000E+03 0.  0.
         25    1    4    4    0    0  0.40906413786E+02  0.55927023695E+02  0.93531861386E+02  0.17087095676E+03  0.12509000000E+03 0.  0.
         25    1    3    3    0    0 -0.16999512120E+02 -0.68835345637E+02 -0.52166365234E+02  0.15295792226E+03  0.12509000000E+03 0.  0.
<mgrwt>
<rscale>  2 0.45272120E+03</rscale>
<asrwt>0</asrwt>
<pdfrwt beam="1">  1       21 0.40980797E-01 0.45272120E+03</pdfrwt>
<pdfrwt beam="2">  1       21 0.27039799E-01 0.45272120E+03</pdfrwt>
<totfact> 0.69238399E+04</totfact>
</mgrwt>
</event>
<event>
 7    0  0.4737014E-002  0.4542158E+03  0.7546771E-02  0.1026472E+00
         21   -1    0    0  502  501  0.00000000000E+00  0.00000000000E+00  0.37111792858E+03  0.37111792858E+03  0.00000000000E+00 0. -1.
         21   -1    0    0  501  502 -0.00000000000E+00 -0.00000000000E+00 -0.13898009754E+03  0.13898009754E+03  0.00000000000E+00 0. -1.
      99926    2    1    2    0    0  0.00000000000E+00  0.00000000000E+00  0.23213783104E+03  0.51009802611E+03  0.45421583377E+03 0.  0.
      99925    2    3    3    0    0  0.19316477899E+02 -0.38174307374E+02  0.29347562359E+02  0.26801992873E+03  0.26295056326E+03 0.  0.
         25    1    4    4    0    0 -0.26930248003E+02 -0.20313548521E+01  0.81943582328E+01  0.12823423984E+03  0.12509000000E+03 0.  0.
         25    1    4    4    0    0  0.46246725902E+02 -0.36142952522E+02  0.21153204127E+02  0.13978568889E+03  0.12509000000E+03 0.  0.
         25    1    3    3    0    0 -0.19316477899E+02  0.38174307374E+02  0.20279026868E+03  0.24207809739E+03  0.12509000000E+03 0.  0.
<mgrwt>
<rscale>  2 0.45421583E+03</rscale>
<asrwt>0</asrwt>
<pdfrwt beam="1">  1       21 0.54576166E-01 0.45421583E+03</pdfrwt>
<pdfrwt beam="2">  1       21 0.20438250E-01 0.45421583E+03</pdfrwt>
<totfact> 0.64970295E+04</totfact>
</mgrwt>
</event>
<event>
 7    0  0.4737014E-002  0.4486281E+03  0.7546771E-02  0.1028132E+00
         21   -1    0    0  502  501  0.00000000000E+00  0.00000000000E+00  0.13328842619E+04  0.13328842619E+04  0.00000000000E+00 0. -1.
         21   -1    0    0  501  502 -0.00000000000E+00 -0.00000000000E+00 -0.37750309794E+02  0.37750309794E+02  0.00000000000E+00 0. -1.
      99926    2    1    2    0    0  0.00000000000E+00  0.00000000000E+00  0.12951339521E+04  0.13706345717E+04  0.44862810348E+03 0.  0.
      99925    2    3    3    0    0  0.53248462676E+02 -0.65173461112E+02  0.10222213004E+04  0.10588464989E+04  0.26293828613E+03 0.  0.
         25    1    4    4    0    0  0.45673958575E+02 -0.70162452636E+02  0.57435057905E+03  0.59374655873E+03  0.12509000000E+03 0.  0.
         25    1    3    3    0    0 -0.53248462676E+02  0.65173461112E+02  0.27291265170E+03  0.31178807284E+03  0.12509000000E+03 0.  0.
         25    1    4    4    0    0  0.75745041006E+01  0.49889915246E+01  0.44787072140E+03  0.46509994016E+03  0.12509000000E+03 0.  0.
<mgrwt>
<rscale>  2 0.44862810E+03</rscale>
<asrwt>0</asrwt>
<pdfrwt beam="1">  1       21 0.19601236E+00 0.44862810E+03</pdfrwt>
<pdfrwt beam="2">  1       21 0.55515170E-02 0.44862810E+03</pdfrwt>
<totfact> 0.28511264E+04</totfact>
</mgrwt>
</event>
<event>
 7    0  0.4737014E-002  0.4555670E+03  0.7546771E-02  0.1026075E+00
         21   -1    0    0  502  501  0.00000000000E+00  0.00000000000E+00  0.42621933871E+03  0.42621933871E+03  0.00000000000E+00 0. -1.
         21   -1    0    0  501  502 -0.00000000000E+00 -0.00000000000E+00 -0.12173384289E+03  0.12173384289E+03  0.00000000000E+00 0. -1.
      99926    2    1    2    0    0 -0.71054273576E-14 -0.71054273576E-14  0.30448549582E+03  0.54795318160E+03  0.45556697868E+03 0.  0.
      99925    2    3    3    0    0  0.58330556275E+02  0.48465938998E+02  0.29339766054E+03  0.40124991228E+03  0.26299791607E+03 0.  0.
         25    1    4    4    0    0  0.27869637645E+02 -0.19017614208E+01  0.18742299154E+03  0.22705774432E+03  0.12509000000E+03 0.  0.
         25    1    3    3    0    0 -0.58330556275E+02 -0.48465938998E+02  0.11087835283E+02  0.14670326932E+03  0.12509000000E+03 0.  0.
         25    1    4    4    0    0  0.30460918630E+02  0.50367700418E+02  0.10597466900E+03  0.17419216796E+03  0.12509000000E+03 0.  0.
<mgrwt>
<rscale>  2 0.45556698E+03</rscale>
<asrwt>0</asrwt>
<pdfrwt beam="1">  1       21 0.62679314E-01 0.45556698E+03</pdfrwt>
<pdfrwt beam="2">  1       21 0.17902036E-01 0.45556698E+03</pdfrwt>
<totfact> 0.61724600E+04</totfact>
</mgrwt>
</event>
<event>
 7    0  0.4737014E-002  0.4540149E+03  0.7546771E-02  0.1026531E+00
         21   -1    0    0  502  501  0.00000000000E+00  0.00000000000E+00  0.31815293206E+03  0.31815293206E+03  0.00000000000E+00 0.  1.
         21   -1    0    0  501  502 -0.00000000000E+00 -0.00000000000E+00 -0.16197363172E+03  0.16197363172E+03  0.00000000000E+00 0.  1.
      99926    2    1    2    0    0  0.00000000000E+00  0.00000000000E+00  0.15617930034E+03  0.48012656378E+03  0.45401491538E+03 0.  0.
      99925    2    3    3    0    0 -0.10029373361E+03  0.26059164644E+02  0.14476867346E+03  0.31729037747E+03  0.26263530181E+03 0.  0.
         25    1    4    4    0    0 -0.18303446604E+02  0.10263140816E+02  0.96375753519E+02  0.15929890829E+03  0.12509000000E+03 0.  0.
         25    1    4    4    0    0 -0.81990287010E+02  0.15796023828E+02  0.48392919943E+02  0.15799146918E+03  0.12509000000E+03 0.  0.
         25    1    3    3    0    0  0.10029373361E+03 -0.26059164644E+02  0.11410626879E+02  0.16283618630E+03  0.12509000000E+03 0.  0.
<mgrwt>
<rscale>  2 0.45401492E+03</rscale>
<asrwt>0</asrwt>
<pdfrwt beam="1">  1       21 0.46787196E-01 0.45401492E+03</pdfrwt>
<pdfrwt beam="2">  1       21 0.23819652E-01 0.45401492E+03</pdfrwt>
<totfact> 0.67214919E+04</totfact>
</mgrwt>
</event>
<event>
 7    0  0.4737014E-002  0.4569885E+03  0.7546771E-02  0.1025658E+00
         21   -1    0    0  502  501  0.00000000000E+00  0.00000000000E+00  0.10894770779E+03  0.10894770779E+03  0.00000000000E+00 0. -1.
         21   -1    0    0  501  502 -0.00000000000E+00 -0.00000000000E+00 -0.47921723169E+03  0.47921723169E+03  0.00000000000E+00 0. -1.
      99926    2    1    2    0    0  0.00000000000E+00 -0.71054273576E-14 -0.37026952390E+03  0.58816493948E+03  0.45698848531E+03 0.  0.
      99925    2    3    3    0    0 -0.44811711018E+02 -0.42670431335E+02 -0.10779779890E+03  0.29089777063E+03  0.26300625915E+03 0.  0.
         25    1    3    3    0    0  0.44811711018E+02  0.42670431335E+02 -0.26247172500E+03  0.29726716885E+03  0.12509000000E+03 0.  0.
         25    1    4    4    0    0 -0.13028507992E+02 -0.31742246360E+02 -0.94922387459E+02  0.16073294611E+03  0.12509000000E+03 0.  0.
         25    1    4    4    0    0 -0.31783203025E+02 -0.10928184976E+02 -0.12875411439E+02  0.13016482452E+03  0.12509000000E+03 0.  0.
<mgrwt>
<rscale>  2 0.45698849E+03</rscale>
<asrwt>0</asrwt>
<pdfrwt beam="1">  1       21 0.16021721E-01 0.45698849E+03</pdfrwt>
<pdfrwt beam="2">  1       21 0.70473124E-01 0.45698849E+03</pdfrwt>
<totfact> 0.58488033E+04</totfact>
</mgrwt>
</event>
<event>
 7    0  0.4737014E-002  0.4269210E+03  0.7546771E-02  0.1034837E+00
         21   -1    0    0  502  501  0.00000000000E+00  0.00000000000E+00  0.40591945628E+03  0.40591945628E+03  0.00000000000E+00 0. -1.
         21   -1    0    0  501  502 -0.00000000000E+00 -0.00000000000E+00 -0.11225228138E+03  0.11225228138E+03  0.00000000000E+00 0. -1.
      99926    2    1    2    0    0  0.26645352591E-14  0.00000000000E+00  0.29366717489E+03  0.51817173766E+03  0.42692099984E+03 0.  0.
      99925    2    3    3    0    0  0.26128227445E+01 -0.25301908546E+02  0.28739736784E+03  0.39036785666E+03  0.26295019120E+03 0.  0.
         25    1    3    3    0    0 -0.26128227445E+01  0.25301908546E+02  0.62698070559E+01  0.12780388100E+03  0.12509000000E+03 0.  0.
         25    1    4    4    0    0 -0.19838070037E+02  0.14799955843E+02  0.10941817521E+03  0.16802509599E+03  0.12509000000E+03 0.  0.
         25    1    4    4    0    0  0.22450892782E+02 -0.40101864390E+02  0.17797919263E+03  0.22234276067E+03  0.12509000000E+03 0.  0.
<mgrwt>
<rscale>  2 0.42692100E+03</rscale>
<asrwt>0</asrwt>
<pdfrwt beam="1">  1       21 0.59694037E-01 0.42692100E+03</pdfrwt>
<pdfrwt beam="2">  1       21 0.16507689E-01 0.42692100E+03</pdfrwt>
<totfact> 0.80474914E+04</totfact>
</mgrwt>
</event>
<event>
 7    0  0.4737014E-002  0.4520804E+03  0.7546771E-02  0.1027103E+00
         21   -1    0    0  502  501  0.00000000000E+00  0.00000000000E+00  0.40396402188E+03  0.40396402188E+03  0.00000000000E+00 0. -1.
         21   -1    0    0  501  502 -0.00000000000E+00 -0.00000000000E+00 -0.12648199861E+03  0.12648199861E+03  0.00000000000E+00 0. -1.
      99926    2    1    2    0    0 -0.71054273576E-14 -0.12767564783E-14  0.27748202327E+03  0.53044602050E+03  0.45208042141E+03 0.  0.
      99925    2    3    3    0    0 -0.59126621283E+02  0.42683747654E+00  0.28443197652E+03  0.39191100873E+03  0.26305237114E+03 0.  0.
         25    1    4    4    0    0 -0.35184091424E+02 -0.40050110131E+02  0.14272120607E+03  0.19712631071E+03  0.12509000000E+03 0.  0.
         25    1    4    4    0    0 -0.23942529859E+02  0.40476947607E+02  0.14171077044E+03  0.19478469802E+03  0.12509000000E+03 0.  0.
         25    1    3    3    0    0  0.59126621283E+02 -0.42683747654E+00 -0.69499532459E+01  0.13853501176E+03  0.12509000000E+03 0.  0.
<mgrwt>
<rscale>  2 0.45208042E+03</rscale>
<asrwt>0</asrwt>
<pdfrwt beam="1">  1       21 0.59406473E-01 0.45208042E+03</pdfrwt>
<pdfrwt beam="2">  1       21 0.18600294E-01 0.45208042E+03</pdfrwt>
<totfact> 0.64658853E+04</totfact>
</mgrwt>
</event>
<event>
 7    0  0.4737014E-002  0.4571329E+03  0.7546771E-02  0.1025616E+00
         21   -1    0    0  502  501  0.00000000000E+00  0.00000000000E+00  0.91309741021E+03  0.91309741021E+03  0.00000000000E+00 0. -1.
         21   -1    0    0  501  502 -0.00000000000E+00 -0.00000000000E+00 -0.57214726569E+02  0.57214726569E+02  0.00000000000E+00 0. -1.
      99926    2    1    2    0    0 -0.35527136788E-14  0.14210854715E-13  0.85588268365E+03  0.97031213678E+03  0.45713288509E+03 0.  0.
      99925    2    3    3    0    0 -0.23583623212E+02  0.10518129033E+03  0.45136653309E+03  0.53339095936E+03  0.26297314924E+03 0.  0.
         25    1    4    4    0    0 -0.41789396934E+02  0.31765802078E+02  0.18305099441E+03  0.22783896623E+03  0.12509000000E+03 0.  0.
         25    1    3    3    0    0  0.23583623212E+02 -0.10518129033E+03  0.40451615056E+03  0.43692117742E+03  0.12509000000E+03 0.  0.
         25    1    4    4    0    0  0.18205773721E+02  0.73415488248E+02  0.26831553868E+03  0.30555199313E+03  0.12509000000E+03 0.  0.
<mgrwt>
<rscale>  2 0.45713289E+03</rscale>
<asrwt>0</asrwt>
<pdfrwt beam="1">  1       21 0.13427902E+00 0.45713289E+03</pdfrwt>
<pdfrwt beam="2">  1       21 0.84139309E-02 0.45713289E+03</pdfrwt>
<totfact> 0.39663561E+04</totfact>
</mgrwt>
</event>
<event>
 7    0  0.4737014E-002  0.4446680E+03  0.7546771E-02  0.1029324E+00
         21   -1    0    0  502  501  0.00000000000E+00  0.00000000000E+00  0.54042775007E+03  0.54042775007E+03  0.00000000000E+00 0. -1.
         21   -1    0    0  501  502 -0.00000000000E+00 -0.00000000000E+00 -0.91469025093E+02  0.91469025093E+02  0.00000000000E+00 0. -1.
      99926    2    1    2    0    0  0.00000000000E+00 -0.71054273576E-14  0.44895872498E+03  0.63189677516E+03  0.44466796346E+03 0.  0.
      99925    2    3    3    0    0 -0.18432777372E+02 -0.49747637222E+02  0.41105251022E+03  0.49083301685E+03  0.26294160870E+03 0.  0.
         25    1    3    3    0    0  0.18432777372E+02  0.49747637222E+02  0.37906214756E+02  0.14106375831E+03  0.12509000000E+03 0.  0.
         25    1    4    4    0    0 -0.29638130404E+02 -0.20267211613E+02  0.26973069924E+03  0.29948511958E+03  0.12509000000E+03 0.  0.
         25    1    4    4    0    0  0.11205353032E+02 -0.29480425609E+02  0.14132181098E+03  0.19134789727E+03  0.12509000000E+03 0.  0.
<mgrwt>
<rscale>  2 0.44466796E+03</rscale>
<asrwt>0</asrwt>
<pdfrwt beam="1">  1       21 0.79474668E-01 0.44466796E+03</pdfrwt>
<pdfrwt beam="2">  1       21 0.13451327E-01 0.44466796E+03</pdfrwt>
<totfact> 0.61631018E+04</totfact>
</mgrwt>
</event>
<event>
 7    0  0.4737014E-002  0.4431488E+03  0.7546771E-02  0.1029785E+00
         21   -1    0    0  502  501  0.00000000000E+00  0.00000000000E+00  0.14632086835E+03  0.14632086835E+03  0.00000000000E+00 0.  1.
         21   -1    0    0  501  502 -0.00000000000E+00 -0.00000000000E+00 -0.33553126091E+03  0.33553126091E+03  0.00000000000E+00 0.  1.
      99926    2    1    2    0    0  0.71054273576E-14 -0.14210854715E-13 -0.18921039256E+03  0.48185212926E+03  0.44314884838E+03 0.  0.
      99925    2    3    3    0    0 -0.60039943242E+02  0.74053835481E+02 -0.82513933329E+02  0.29179843199E+03  0.26315206703E+03 0.  0.
         25    1    4    4    0    0  0.36502111762E+01  0.15633757048E+02 -0.21329122037E+02  0.12790691126E+03  0.12509000000E+03 0.  0.
         25    1    4    4    0    0 -0.63690154418E+02  0.58420078433E+02 -0.61184811293E+02  0.16389152073E+03  0.12509000000E+03 0.  0.
         25    1    3    3    0    0  0.60039943242E+02 -0.74053835481E+02 -0.10669645923E+03  0.19005369727E+03  0.12509000000E+03 0.  0.
<mgrwt>
<rscale>  2 0.44314885E+03</rscale>
<asrwt>0</asrwt>
<pdfrwt beam="1">  1       21 0.21517775E-01 0.44314885E+03</pdfrwt>
<pdfrwt beam="2">  1       21 0.49342832E-01 0.44314885E+03</pdfrwt>
<totfact> 0.73215004E+04</totfact>
</mgrwt>
</event>
<event>
 7    0  0.4737014E-002  0.4545426E+03  0.7546771E-02  0.1026376E+00
         21   -1    0    0  502  501  0.00000000000E+00  0.00000000000E+00  0.79983953008E+03  0.79983953008E+03  0.00000000000E+00 0.  1.
         21   -1    0    0  501  502 -0.00000000000E+00 -0.00000000000E+00 -0.64578264301E+02  0.64578264301E+02  0.00000000000E+00 0.  1.
      99926    2    1    2    0    0  0.00000000000E+00  0.00000000000E+00  0.73526126578E+03  0.86441779438E+03  0.45454262098E+03 0.  0.
      99925    2    3    3    0    0 -0.46898959624E+02 -0.96907679779E+02  0.39911046547E+03  0.48993751525E+03  0.26298097722E+03 0.  0.
         25    1    4    4    0    0 -0.58239155675E+02 -0.73683900076E+02  0.22156622753E+03  0.27121986960E+03  0.12509000000E+03 0.  0.
         25    1    3    3    0    0  0.46898959624E+02  0.96907679779E+02  0.33615080031E+03  0.37448027913E+03  0.12509000000E+03 0.  0.
         25    1    4    4    0    0  0.11340196051E+02 -0.23223779704E+02  0.17754423794E+03  0.21871764565E+03  0.12509000000E+03 0.  0.
<mgrwt>
<rscale>  2 0.45454262E+03</rscale>
<asrwt>0</asrwt>
<pdfrwt beam="1">  1       21 0.11762345E+00 0.45454262E+03</pdfrwt>
<pdfrwt beam="2">  1       21 0.94968040E-02 0.45454262E+03</pdfrwt>
<totfact> 0.44962147E+04</totfact>
</mgrwt>
</event>
<event>
 7    0  0.4737014E-002  0.4551311E+03  0.7546771E-02  0.1026203E+00
         21   -1    0    0  502  501  0.00000000000E+00  0.00000000000E+00  0.21563426467E+03  0.21563426467E+03  0.00000000000E+00 0.  1.
         21   -1    0    0  501  502 -0.00000000000E+00 -0.00000000000E+00 -0.24015699398E+03  0.24015699398E+03  0.00000000000E+00 0.  1.
      99926    2    1    2    0    0 -0.71054273576E-14  0.00000000000E+00 -0.24522729311E+02  0.45579125865E+03  0.45513108794E+03 0.  0.
      99925    2    3    3    0    0 -0.42508176120E+02  0.93722993253E+02 -0.62372574706E+02  0.28944504319E+03  0.26324351929E+03 0.  0.
         25    1    3    3    0    0  0.42508176120E+02 -0.93722993253E+02  0.37849845394E+02  0.16634621546E+03  0.12509000000E+03 0.  0.
         25    1    4    4    0    0 -0.48900594595E+01  0.58338518876E+02 -0.68107762800E+02  0.15399178848E+03  0.12509000000E+03 0.  0.
         25    1    4    4    0    0 -0.37618116660E+02  0.35384474377E+02  0.57351880943E+01  0.13545325471E+03  0.12509000000E+03 0.  0.
<mgrwt>
<rscale>  2 0.45513109E+03</rscale>
<asrwt>0</asrwt>
<pdfrwt beam="1">  1       21 0.31710921E-01 0.45513109E+03</pdfrwt>
<pdfrwt beam="2">  1       21 0.35317205E-01 0.45513109E+03</pdfrwt>
<totfact> 0.68416308E+04</totfact>
</mgrwt>
</event>
<event>
 7    0  0.4737014E-002  0.4564467E+03  0.7546771E-02  0.1025817E+00
         21   -1    0    0  502  501  0.00000000000E+00  0.00000000000E+00  0.39606637140E+03  0.39606637140E+03  0.00000000000E+00 0. -1.
         21   -1    0    0  501  502 -0.00000000000E+00 -0.00000000000E+00 -0.13150800281E+03  0.13150800281E+03  0.00000000000E+00 0. -1.
      99926    2    1    2    0    0  0.00000000000E+00 -0.14210854715E-13  0.26455836859E+03  0.52757437421E+03  0.45644669999E+03 0.  0.
      99925    2    3    3    0    0  0.38391951361E+01  0.75696247829E+02  0.67042610657E+02  0.28180081159E+03  0.26300632010E+03 0.  0.
         25    1    4    4    0    0  0.69376809223E+01 -0.39022316756E+01  0.27622177245E+02  0.12835050294E+03  0.12509000000E+03 0.  0.
         25    1    4    4    0    0 -0.30984857862E+01  0.79598479505E+02  0.39420433411E+02  0.15345030865E+03  0.12509000000E+03 0.  0.
         25    1    3    3    0    0 -0.38391951361E+01 -0.75696247829E+02  0.19751575793E+03  0.24577356262E+03  0.12509000000E+03 0.  0.
<mgrwt>
<rscale>  2 0.45644670E+03</rscale>
<asrwt>0</asrwt>
<pdfrwt beam="1">  1       21 0.58245054E-01 0.45644670E+03</pdfrwt>
<pdfrwt beam="2">  1       21 0.19339412E-01 0.45644670E+03</pdfrwt>
<totfact> 0.62649499E+04</totfact>
</mgrwt>
</event>
<event>
 7    0  0.4737014E-002  0.4590052E+03  0.7546771E-02  0.1025070E+00
         21   -1    0    0  502  501  0.00000000000E+00  0.00000000000E+00  0.47466828069E+03  0.47466828069E+03  0.00000000000E+00 0.  1.
         21   -1    0    0  501  502 -0.00000000000E+00 -0.00000000000E+00 -0.11096473092E+03  0.11096473092E+03  0.00000000000E+00 0.  1.
      99926    2    1    2    0    0  0.00000000000E+00  0.00000000000E+00  0.36370354977E+03  0.58563301162E+03  0.45900517664E+03 0.  0.
      99925    2    3    3    0    0  0.63281563075E+02 -0.67529686349E+02  0.31899954603E+03  0.42373560332E+03  0.26310898196E+03 0.  0.
         25    1    4    4    0    0  0.28524648310E+02 -0.60469768332E+02  0.11878465050E+03  0.18500689105E+03  0.12509000000E+03 0.  0.
         25    1    3    3    0    0 -0.63281563075E+02  0.67529686349E+02  0.44704003743E+02  0.16189740830E+03  0.12509000000E+03 0.  0.
         25    1    4    4    0    0  0.34756914765E+02 -0.70599180169E+01  0.20021489553E+03  0.23872871226E+03  0.12509000000E+03 0.  0.
<mgrwt>
<rscale>  2 0.45900518E+03</rscale>
<asrwt>0</asrwt>
<pdfrwt beam="1">  1       21 0.69804158E-01 0.45900518E+03</pdfrwt>
<pdfrwt beam="2">  1       21 0.16318343E-01 0.45900518E+03</pdfrwt>
<totfact> 0.57722155E+04</totfact>
</mgrwt>
</event>
<event>
 7    0  0.4737014E-002  0.4191910E+03  0.7546771E-02  0.1037330E+00
         21   -1    0    0  502  501  0.00000000000E+00  0.00000000000E+00  0.28688014640E+03  0.28688014640E+03  0.00000000000E+00 0. -1.
         21   -1    0    0  501  502 -0.00000000000E+00 -0.00000000000E+00 -0.15313109845E+03  0.15313109845E+03  0.00000000000E+00 0. -1.
      99926    2    1    2    0    0  0.00000000000E+00  0.71054273576E-14  0.13374904796E+03  0.44001124485E+03  0.41919099199E+03 0.  0.
      99925    2    3    3    0    0  0.42179599577E+02 -0.56844568968E+02  0.61828445296E+02  0.27929253148E+03  0.26300406432E+03 0.  0.
         25    1    4    4    0    0  0.90853705775E+01  0.55625565230E+01  0.77087303749E+01  0.12577924558E+03  0.12509000000E+03 0.  0.
         25    1    3    3    0    0 -0.42179599577E+02  0.56844568968E+02  0.71920602661E+02  0.16071871337E+03  0.12509000000E+03 0.  0.
         25    1    4    4    0    0  0.33094229000E+02 -0.62407125491E+02  0.54119714921E+02  0.15351328590E+03  0.12509000000E+03 0.  0.
<mgrwt>
<rscale>  2 0.41919099E+03</rscale>
<asrwt>0</asrwt>
<pdfrwt beam="1">  1       21 0.42188257E-01 0.41919099E+03</pdfrwt>
<pdfrwt beam="2">  1       21 0.22519279E-01 0.41919099E+03</pdfrwt>
<totfact> 0.93636886E+04</totfact>
</mgrwt>
</event>
<event>
 7    0  0.4737014E-002  0.4645783E+03  0.7546771E-02  0.1023462E+00
         21   -1    0    0  502  501  0.00000000000E+00  0.00000000000E+00  0.42397360159E+03  0.42397360159E+03  0.00000000000E+00 0. -1.
         21   -1    0    0  501  502 -0.00000000000E+00 -0.00000000000E+00 -0.12726794137E+03  0.12726794137E+03  0.00000000000E+00 0. -1.
      99926    2    1    2    0    0  0.00000000000E+00  0.00000000000E+00  0.29670566022E+03  0.55124154296E+03  0.46457829252E+03 0.  0.
      99925    2    3    3    0    0 -0.71316245496E+02 -0.58665233859E+02  0.91892514471E+02  0.29409654630E+03  0.26366821537E+03 0.  0.
         25    1    4    4    0    0 -0.14570020022E+02 -0.43236123791E+02  0.80062585990E+02  0.15536786559E+03  0.12509000000E+03 0.  0.
         25    1    4    4    0    0 -0.56746225473E+02 -0.15429110069E+02  0.11829928481E+02  0.13872868071E+03  0.12509000000E+03 0.  0.
         25    1    3    3    0    0  0.71316245496E+02  0.58665233859E+02  0.20481314575E+03  0.25714499666E+03  0.12509000000E+03 0.  0.
<mgrwt>
<rscale>  2 0.46457829E+03</rscale>
<asrwt>0</asrwt>
<pdfrwt beam="1">  1       21 0.62349059E-01 0.46457829E+03</pdfrwt>
<pdfrwt beam="2">  1       21 0.18715874E-01 0.46457829E+03</pdfrwt>
<totfact> 0.57315939E+04</totfact>
</mgrwt>
</event>
<event>
 7    0  0.4737014E-002  0.4323085E+03  0.7546771E-02  0.1033133E+00
         21   -1    0    0  502  501  0.00000000000E+00  0.00000000000E+00  0.19225936435E+03  0.19225936435E+03  0.00000000000E+00 0.  1.
         21   -1    0    0  501  502 -0.00000000000E+00 -0.00000000000E+00 -0.24301893925E+03  0.24301893925E+03  0.00000000000E+00 0.  1.
      99926    2    1    2    0    0 -0.35527136788E-14  0.00000000000E+00 -0.50759574907E+02  0.43527830360E+03  0.43230853235E+03 0.  0.
      99925    2    3    3    0    0  0.17036960317E+02  0.72156384231E+02 -0.84423300689E+02  0.28602162423E+03  0.26302903647E+03 0.  0.
         25    1    4    4    0    0  0.26513072830E+02  0.43895926893E+02 -0.58414566520E+01  0.13531971824E+03  0.12509000000E+03 0.  0.
         25    1    4    4    0    0 -0.94761125131E+01  0.28260457338E+02 -0.78581844037E+02  0.15070190599E+03  0.12509000000E+03 0.  0.
         25    1    3    3    0    0 -0.17036960317E+02 -0.72156384231E+02  0.33663725782E+02  0.14925667937E+03  0.12509000000E+03 0.  0.
<mgrwt>
<rscale>  2 0.43230853E+03</rscale>
<asrwt>0</asrwt>
<pdfrwt beam="1">  1       21 0.28273436E-01 0.43230853E+03</pdfrwt>
<pdfrwt beam="2">  1       21 0.35738079E-01 0.43230853E+03</pdfrwt>
<totfact> 0.84268945E+04</totfact>
</mgrwt>
</event>
<event>
 7    0  0.4737014E-002  0.4624359E+03  0.7546771E-02  0.1024077E+00
         21   -1    0    0  502  501  0.00000000000E+00  0.00000000000E+00  0.79557276314E+02  0.79557276314E+02  0.00000000000E+00 0.  1.
         21   -1    0    0  501  502 -0.00000000000E+00 -0.00000000000E+00 -0.67199068932E+03  0.67199068932E+03  0.00000000000E+00 0.  1.
      99926    2    1    2    0    0  0.00000000000E+00  0.00000000000E+00 -0.59243341301E+03  0.75154796564E+03  0.46243593697E+03 0.  0.
      99925    2    3    3    0    0  0.93469670214E+02  0.35401168222E+02 -0.26348324873E+03  0.38569889752E+03  0.26334463204E+03 0.  0.
         25    1    4    4    0    0  0.70875620869E+02 -0.11642971716E+02 -0.11349640883E+03  0.18354251644E+03  0.12509000000E+03 0.  0.
         25    1    4    4    0    0  0.22594049345E+02  0.47044139938E+02 -0.14998683990E+03  0.20215638108E+03  0.12509000000E+03 0.  0.
         25    1    3    3    0    0 -0.93469670214E+02 -0.35401168222E+02 -0.32895016428E+03  0.36584906812E+03  0.12509000000E+03 0.  0.
<mgrwt>
<rscale>  2 0.46243594E+03</rscale>
<asrwt>0</asrwt>
<pdfrwt beam="1">  1       21 0.11699600E-01 0.46243594E+03</pdfrwt>
<pdfrwt beam="2">  1       21 0.98822159E-01 0.46243594E+03</pdfrwt>
<totfact> 0.47362778E+04</totfact>
</mgrwt>
</event>
<event>
 7    0  0.4737014E-002  0.4559148E+03  0.7546771E-02  0.1025973E+00
         21   -1    0    0  502  501  0.00000000000E+00  0.00000000000E+00  0.72141906729E+03  0.72141906729E+03  0.00000000000E+00 0.  1.
         21   -1    0    0  501  502 -0.00000000000E+00 -0.00000000000E+00 -0.72031052041E+02  0.72031052041E+02  0.00000000000E+00 0.  1.
      99926    2    1    2    0    0  0.14210854715E-13  0.00000000000E+00  0.64938801525E+03  0.79345011933E+03  0.45591479195E+03 0.  0.
      99925    2    3    3    0    0 -0.73747136662E+02  0.85526314266E+02  0.43589780768E+03  0.52145937054E+03  0.26298210165E+03 0.  0.
         25    1    3    3    0    0  0.73747136662E+02 -0.85526314266E+02  0.21349020756E+03  0.27199074878E+03  0.12509000000E+03 0.  0.
         25    1    4    4    0    0 -0.67371517813E+02  0.71605113635E+02  0.26550039385E+03  0.30952250475E+03  0.12509000000E+03 0.  0.
         25    1    4    4    0    0 -0.63756188498E+01  0.13921200631E+02  0.17039741383E+03  0.21193686580E+03  0.12509000000E+03 0.  0.
<mgrwt>
<rscale>  2 0.45591479E+03</rscale>
<asrwt>0</asrwt>
<pdfrwt beam="1">  1       21 0.10609104E+00 0.45591479E+03</pdfrwt>
<pdfrwt beam="2">  1       21 0.10592802E-01 0.45591479E+03</pdfrwt>
<totfact> 0.47739593E+04</totfact>
</mgrwt>
</event>
<event>
 7    0  0.4737014E-002  0.4597636E+03  0.7546771E-02  0.1024850E+00
         21   -1    0    0  502  501  0.00000000000E+00  0.00000000000E+00  0.13118606784E+04  0.13118606784E+04  0.00000000000E+00 0. -1.
         21   -1    0    0  501  502 -0.00000000000E+00 -0.00000000000E+00 -0.40282963074E+02  0.40282963074E+02  0.00000000000E+00 0. -1.
      99926    2    1    2    0    0  0.00000000000E+00  0.35527136788E-14  0.12715777153E+04  0.13521436415E+04  0.45976357083E+03 0.  0.
      99925    2    3    3    0    0  0.11438820241E+03 -0.22096971690E+02  0.75165856292E+03  0.80484448183E+03  0.26308004051E+03 0.  0.
         25    1    4    4    0    0  0.26124205807E+02 -0.37801044936E+02  0.37398964531E+03  0.39702286587E+03  0.12509000000E+03 0.  0.
         25    1    4    4    0    0  0.88263996598E+02  0.15704073246E+02  0.37766891761E+03  0.40782161596E+03  0.12509000000E+03 0.  0.
         25    1    3    3    0    0 -0.11438820241E+03  0.22096971690E+02  0.51991915238E+03  0.54729915962E+03  0.12509000000E+03 0.  0.
<mgrwt>
<rscale>  2 0.45976357E+03</rscale>
<asrwt>0</asrwt>
<pdfrwt beam="1">  1       21 0.19292066E+00 0.45976357E+03</pdfrwt>
<pdfrwt beam="2">  1       21 0.59239660E-02 0.45976357E+03</pdfrwt>
<totfact> 0.26635654E+04</totfact>
</mgrwt>
</event>
<event>
 7    0  0.4737014E-002  0.4532387E+03  0.7546771E-02  0.1026761E+00
         21   -1    0    0  502  501  0.00000000000E+00  0.00000000000E+00  0.11251421358E+03  0.11251421358E+03  0.00000000000E+00 0. -1.
         21   -1    0    0  501  502 -0.00000000000E+00 -0.00000000000E+00 -0.45644294677E+03  0.45644294677E+03  0.00000000000E+00 0. -1.
      99926    2    1    2    0    0 -0.14210854715E-13 -0.17763568394E-14 -0.34392873319E+03  0.56895716036E+03  0.45323865326E+03 0.  0.
      99925    2    3    3    0    0  0.10808082469E+03  0.12633097025E+02 -0.24729982541E+03  0.37705689010E+03  0.26300881148E+03 0.  0.
         25    1    4    4    0    0  0.69538959928E+02  0.70982222158E+01 -0.78521389447E+02  0.16339880173E+03  0.12509000000E+03 0.  0.
         25    1    3    3    0    0 -0.10808082469E+03 -0.12633097025E+02 -0.96628907776E+02  0.19190027026E+03  0.12509000000E+03 0.  0.
         25    1    4    4    0    0  0.38541864762E+02  0.55348748095E+01 -0.16877843597E+03  0.21365808837E+03  0.12509000000E+03 0.  0.
<mgrwt>
<rscale>  2 0.45323865E+03</rscale>
<asrwt>0</asrwt>
<pdfrwt beam="1">  1       21 0.16546208E-01 0.45323865E+03</pdfrwt>
<pdfrwt beam="2">  1       21 0.67123963E-01 0.45323865E+03</pdfrwt>
<totfact> 0.61482829E+04</totfact>
</mgrwt>
</event>
<event>
 7    0  0.4737014E-002  0.4585249E+03  0.7546771E-02  0.1025210E+00
         21   -1    0    0  502  501  0.00000000000E+00  0.00000000000E+00  0.74678096771E+03  0.74678096771E+03  0.00000000000E+00 0. -1.
         21   -1    0    0  501  502 -0.00000000000E+00 -0.00000000000E+00 -0.70383774309E+02  0.70383774309E+02  0.00000000000E+00 0. -1.
      99926    2    1    2    0    0  0.71054273576E-14  0.00000000000E+00  0.67639719340E+03  0.81716474202E+03  0.45852486558E+03 0.  0.
      99925    2    3    3    0    0  0.63045312022E+02  0.23927464463E+02  0.59239740630E+03  0.65208685962E+03  0.26407451709E+03 0.  0.
         25    1    4    4    0    0  0.38488389500E+02  0.40362798336E+02  0.37879162540E+03  0.40279165233E+03  0.12509000000E+03 0.  0.
         25    1    3    3    0    0 -0.63045312022E+02 -0.23927464463E+02  0.83999787100E+02  0.16507788240E+03  0.12509000000E+03 0.  0.
         25    1    4    4    0    0  0.24556922521E+02 -0.16435333873E+02  0.21360578090E+03  0.24929520729E+03  0.12509000000E+03 0.  0.
<mgrwt>
<rscale>  2 0.45852487E+03</rscale>
<asrwt>0</asrwt>
<pdfrwt beam="1">  1       21 0.10982073E+00 0.45852487E+03</pdfrwt>
<pdfrwt beam="2">  1       21 0.10350555E-01 0.45852487E+03</pdfrwt>
<totfact> 0.45669423E+04</totfact>
</mgrwt>
</event>
<event>
 7    0  0.4737014E-002  0.4542108E+03  0.7546771E-02  0.1026474E+00
         21   -1    0    0  502  501  0.00000000000E+00  0.00000000000E+00  0.17759893825E+03  0.17759893825E+03  0.00000000000E+00 0.  1.
         21   -1    0    0  501  502 -0.00000000000E+00 -0.00000000000E+00 -0.29041202131E+03  0.29041202131E+03  0.00000000000E+00 0.  1.
      99926    2    1    2    0    0 -0.14210854715E-13  0.00000000000E+00 -0.11281308306E+03  0.46801095955E+03  0.45421081730E+03 0.  0.
      99925    2    3    3    0    0 -0.69013275849E+02  0.31478830216E+02 -0.15643740975E+03  0.31535337221E+03  0.26309948157E+03 0.  0.
         25    1    3    3    0    0  0.69013275849E+02 -0.31478830216E+02  0.43624326684E+02  0.15265758734E+03  0.12509000000E+03 0.  0.
         25    1    4    4    0    0 -0.75589375811E+02  0.22343538439E+02 -0.92706977638E+02  0.17451383684E+03  0.12509000000E+03 0.  0.
         25    1    4    4    0    0  0.65760999624E+01  0.91352917767E+01 -0.63730432111E+02  0.14083953537E+03  0.12509000000E+03 0.  0.
<mgrwt>
<rscale>  2 0.45421082E+03</rscale>
<asrwt>0</asrwt>
<pdfrwt beam="1">  1       21 0.26117491E-01 0.45421082E+03</pdfrwt>
<pdfrwt beam="2">  1       21 0.42707650E-01 0.45421082E+03</pdfrwt>
<totfact> 0.68008753E+04</totfact>
</mgrwt>
</event>
<event>
 7    0  0.4737014E-002  0.4437401E+03  0.7546771E-02  0.1029605E+00
         21   -1    0    0  502  501  0.00000000000E+00  0.00000000000E+00  0.53878717759E+03  0.53878717759E+03  0.00000000000E+00 0.  1.
         21   -1    0    0  501  502 -0.00000000000E+00 -0.00000000000E+00 -0.91365050171E+02  0.91365050171E+02  0.00000000000E+00 0.  1.
      99926    2    1    2    0    0 -0.17763568394E-14  0.00000000000E+00  0.44742212742E+03  0.63015222776E+03  0.44374009290E+03 0.  0.
      99925    2    3    3    0    0 -0.88465929400E+01 -0.22471665841E+02  0.42518360755E+03  0.50082590470E+03  0.26355691741E+03 0.  0.
         25    1    4    4    0    0 -0.32297760514E+02 -0.40775210479E+02  0.23507794940E+03  0.27132068391E+03  0.12509000000E+03 0.  0.
         25    1    3    3    0    0  0.88465929400E+01  0.22471665841E+02  0.22238519873E+02  0.12932632307E+03  0.12509000000E+03 0.  0.
         25    1    4    4    0    0  0.23451167574E+02  0.18303544638E+02  0.19010565815E+03  0.22950522079E+03  0.12509000000E+03 0.  0.
<mgrwt>
<rscale>  2 0.44374009E+03</rscale>
<asrwt>0</asrwt>
<pdfrwt beam="1">  1       21 0.79233407E-01 0.44374009E+03</pdfrwt>
<pdfrwt beam="2">  1       21 0.13436037E-01 0.44374009E+03</pdfrwt>
<totfact> 0.62206896E+04</totfact>
</mgrwt>
</event>
<event>
 7    0  0.4737014E-002  0.4712715E+03  0.7546771E-02  0.1021562E+00
         21   -1    0    0  502  501  0.00000000000E+00  0.00000000000E+00  0.38364774742E+02  0.38364774742E+02  0.00000000000E+00 0.  1.
         21   -1    0    0  501  502 -0.00000000000E+00 -0.00000000000E+00 -0.14472702179E+04  0.14472702179E+04  0.00000000000E+00 0.  1.
      99926    2    1    2    0    0  0.00000000000E+00  0.00000000000E+00 -0.14089054431E+04  0.14856349926E+04  0.47127145426E+03 0.  0.
      99925    2    3    3    0    0  0.98186871677E+02 -0.72308267642E+02 -0.99450304388E+03  0.10359172990E+04  0.26309541759E+03 0.  0.
         25    1    4    4    0    0  0.19525751544E+02 -0.25291755226E+02 -0.55635091711E+03  0.57113464168E+03  0.12509000000E+03 0.  0.
         25    1    3    3    0    0 -0.98186871677E+02  0.72308267642E+02 -0.41440239924E+03  0.44971769360E+03  0.12509000000E+03 0.  0.
         25    1    4    4    0    0  0.78661120134E+02 -0.47016512416E+02 -0.43815212677E+03  0.46478265733E+03  0.12509000000E+03 0.  0.
<mgrwt>
<rscale>  2 0.47127145E+03</rscale>
<asrwt>0</asrwt>
<pdfrwt beam="1">  1       21 0.56418795E-02 0.47127145E+03</pdfrwt>
<pdfrwt beam="2">  1       21 0.21283382E+00 0.47127145E+03</pdfrwt>
<totfact> 0.21310099E+04</totfact>
</mgrwt>
</event>
<event>
 7    0  0.4737014E-002  0.4571870E+03  0.7546771E-02  0.1025600E+00
         21   -1    0    0  502  501  0.00000000000E+00  0.00000000000E+00  0.20805889706E+03  0.20805889706E+03  0.00000000000E+00 0.  1.
         21   -1    0    0  501  502 -0.00000000000E+00 -0.00000000000E+00 -0.25115481747E+03  0.25115481747E+03  0.00000000000E+00 0.  1.
      99926    2    1    2    0    0  0.00000000000E+00  0.00000000000E+00 -0.43095920408E+02  0.45921371454E+03  0.45718702657E+03 0.  0.
      99925    2    3    3    0    0 -0.11260801941E+03 -0.16023007202E+02 -0.90485448797E+01  0.28674912491E+03  0.26307010792E+03 0.  0.
         25    1    3    3    0    0  0.11260801941E+03  0.16023007202E+02 -0.34047375528E+02  0.17246458963E+03  0.12509000000E+03 0.  0.
         25    1    4    4    0    0 -0.88432794661E+02 -0.25946118839E+02 -0.27004584729E+02  0.15770325282E+03  0.12509000000E+03 0.  0.
         25    1    4    4    0    0 -0.24175224745E+02  0.99231116376E+01  0.17956039850E+02  0.12904587209E+03  0.12509000000E+03 0.  0.
<mgrwt>
<rscale>  2 0.45718703E+03</rscale>
<asrwt>0</asrwt>
<pdfrwt beam="1">  1       21 0.30596897E-01 0.45718703E+03</pdfrwt>
<pdfrwt beam="2">  1       21 0.36934532E-01 0.45718703E+03</pdfrwt>
<totfact> 0.67060377E+04</totfact>
</mgrwt>
</event>
<event>
 7    0  0.4737014E-002  0.4549362E+03  0.7546771E-02  0.1026260E+00
         21   -1    0    0  502  501  0.00000000000E+00  0.00000000000E+00  0.31290874670E+03  0.31290874670E+03  0.00000000000E+00 0.  1.
         21   -1    0    0  501  502 -0.00000000000E+00 -0.00000000000E+00 -0.16535724078E+03  0.16535724078E+03  0.00000000000E+00 0.  1.
      99926    2    1    2    0    0  0.00000000000E+00  0.00000000000E+00  0.14755150592E+03  0.47826598748E+03  0.45493615802E+03 0.  0.
      99925    2    3    3    0    0 -0.25287413263E+02  0.30472622087E+02 -0.18654696454E+02  0.26651130919E+03  0.26289208102E+03 0.  0.
         25    1    4    4    0    0  0.59779022097E+01 -0.20202655397E+02 -0.16804752386E+02  0.12796011255E+03  0.12509000000E+03 0.  0.
         25    1    3    3    0    0  0.25287413263E+02 -0.30472622087E+02  0.16620620238E+03  0.21175467828E+03  0.12509000000E+03 0.  0.
         25    1    4    4    0    0 -0.31265315473E+02  0.50675277484E+02 -0.18499440678E+01  0.13855119665E+03  0.12509000000E+03 0.  0.
<mgrwt>
<rscale>  2 0.45493616E+03</rscale>
<asrwt>0</asrwt>
<pdfrwt beam="1">  1       21 0.46015993E-01 0.45493616E+03</pdfrwt>
<pdfrwt beam="2">  1       21 0.24317241E-01 0.45493616E+03</pdfrwt>
<totfact> 0.66860408E+04</totfact>
</mgrwt>
</event>
<event>
 7    0  0.4737014E-002  0.4583890E+03  0.7546771E-02  0.1025249E+00
         21   -1    0    0  502  501  0.00000000000E+00  0.00000000000E+00  0.83468593221E+02  0.83468593221E+02  0.00000000000E+00 0.  1.
         21   -1    0    0  501  502 -0.00000000000E+00 -0.00000000000E+00 -0.62933987177E+03  0.62933987177E+03  0.00000000000E+00 0.  1.
      99926    2    1    2    0    0 -0.14210854715E-13  0.00000000000E+00 -0.54587127855E+03  0.71280846499E+03  0.45838897785E+03 0.  0.
      99925    2    3    3    0    0  0.90624250767E+02  0.70112894764E+02 -0.30922853102E+03  0.42164550221E+03  0.26274335823E+03 0.  0.
         25    1    3    3    0    0 -0.90624250767E+02 -0.70112894764E+02 -0.23664274753E+03  0.29116296278E+03  0.12509000000E+03 0.  0.
         25    1    4    4    0    0  0.49089207478E+02 -0.58630305442E+01 -0.14540385680E+03  0.19807552875E+03  0.12509000000E+03 0.  0.
         25    1    4    4    0    0  0.41535043289E+02  0.75975925308E+02 -0.16382467423E+03  0.22356997346E+03  0.12509000000E+03 0.  0.
<mgrwt>
<rscale>  2 0.45838898E+03</rscale>
<asrwt>0</asrwt>
<pdfrwt beam="1">  1       21 0.12274793E-01 0.45838898E+03</pdfrwt>
<pdfrwt beam="2">  1       21 0.92549985E-01 0.45838898E+03</pdfrwt>
<totfact> 0.50843872E+04</totfact>
</mgrwt>
</event>
<event>
 7    0  0.4737014E-002  0.4531668E+03  0.7546771E-02  0.1026782E+00
         21   -1    0    0  502  501  0.00000000000E+00  0.00000000000E+00  0.15027924054E+03  0.15027924054E+03  0.00000000000E+00 0.  1.
         21   -1    0    0  501  502 -0.00000000000E+00 -0.00000000000E+00 -0.34163088530E+03  0.34163088530E+03  0.00000000000E+00 0.  1.
      99926    2    1    2    0    0  0.00000000000E+00 -0.14210854715E-13 -0.19135164477E+03  0.49191012584E+03  0.45316676836E+03 0.  0.
      99925    2    3    3    0    0  0.14594859888E+02 -0.11045098289E+03 -0.12009806544E+03  0.30987438698E+03  0.26303262312E+03 0.  0.
         25    1    3    3    0    0 -0.14594859888E+02  0.11045098289E+03 -0.71253579332E+02  0.18203573886E+03  0.12509000000E+03 0.  0.
         25    1    4    4    0    0 -0.21876004630E+02 -0.85109463406E+02 -0.66977665863E+02  0.16690025813E+03  0.12509000000E+03 0.  0.
         25    1    4    4    0    0  0.36470864518E+02 -0.25341519480E+02 -0.53120399573E+02  0.14297412885E+03  0.12509000000E+03 0.  0.
<mgrwt>
<rscale>  2 0.45316677E+03</rscale>
<asrwt>0</asrwt>
<pdfrwt beam="1">  1       21 0.22099888E-01 0.45316677E+03</pdfrwt>
<pdfrwt beam="2">  1       21 0.50239836E-01 0.45316677E+03</pdfrwt>
<totfact> 0.66809842E+04</totfact>
</mgrwt>
</event>
<event>
 7    0  0.4737014E-002  0.4535645E+03  0.7546771E-02  0.1026664E+00
         21   -1    0    0  502  501  0.00000000000E+00  0.00000000000E+00  0.28183407115E+03  0.28183407115E+03  0.00000000000E+00 0.  1.
         21   -1    0    0  501  502 -0.00000000000E+00 -0.00000000000E+00 -0.18248390952E+03  0.18248390952E+03  0.00000000000E+00 0.  1.
      99926    2    1    2    0    0  0.00000000000E+00  0.00000000000E+00  0.99350161625E+02  0.46431798067E+03  0.45356447454E+03 0.  0.
      99925    2    3    3    0    0 -0.86420691373E+02  0.70764564712E+02  0.58700814409E+02  0.29176063645E+03  0.26306334570E+03 0.  0.
         25    1    4    4    0    0 -0.41203395783E+02  0.46316069491E+02 -0.10200930798E+02  0.13998023148E+03  0.12509000000E+03 0.  0.
         25    1    3    3    0    0  0.86420691373E+02 -0.70764564712E+02  0.40649347217E+02  0.17255734422E+03  0.12509000000E+03 0.  0.
         25    1    4    4    0    0 -0.45217295590E+02  0.24448495221E+02  0.68901745207E+02  0.15178040497E+03  0.12509000000E+03 0.  0.
<mgrwt>
<rscale>  2 0.45356447E+03</rscale>
<asrwt>0</asrwt>
<pdfrwt beam="1">  1       21 0.41446187E-01 0.45356447E+03</pdfrwt>
<pdfrwt beam="2">  1       21 0.26835869E-01 0.45356447E+03</pdfrwt>
<totfact> 0.68639413E+04</totfact>
</mgrwt>
</event>
<event>
 7    0  0.4737014E-002  0.4529301E+03  0.7546771E-02  0.1026852E+00
         21   -1    0    0  502  501  0.00000000000E+00  0.00000000000E+00  0.18550083366E+03  0.18550083366E+03  0.00000000000E+00 0. -1.
         21   -1    0    0  501  502 -0.00000000000E+00 -0.00000000000E+00 -0.27647541792E+03  0.27647541792E+03  0.00000000000E+00 0. -1.
      99926    2    1    2    0    0  0.00000000000E+00 -0.35527136788E-14 -0.90974584269E+02  0.46197625158E+03  0.45293010724E+03 0.  0.
      99925    2    3    3    0    0  0.10603299201E+03  0.20491841048E+02 -0.83061120725E+02  0.29652824782E+03  0.26337604492E+03 0.  0.
         25    1    4    4    0    0  0.95174823954E+02  0.40455048198E+00 -0.52886806121E+02  0.16584008302E+03  0.12509000000E+03 0.  0.
         25    1    3    3    0    0 -0.10603299201E+03 -0.20491841048E+02 -0.79134635435E+01  0.16544800376E+03  0.12509000000E+03 0.  0.
         25    1    4    4    0    0  0.10858168051E+02  0.20087290566E+02 -0.30174314604E+02  0.13068816480E+03  0.12509000000E+03 0.  0.
<mgrwt>
<rscale>  2 0.45293011E+03</rscale>
<asrwt>0</asrwt>
<pdfrwt beam="1">  1       21 0.27279535E-01 0.45293011E+03</pdfrwt>
<pdfrwt beam="2">  1       21 0.40658149E-01 0.45293011E+03</pdfrwt>
<totfact> 0.69166368E+04</totfact>
</mgrwt>
</event>
<event>
 7    0  0.4737014E-002  0.4457901E+03  0.7546771E-02  0.1028985E+00
         21   -1    0    0  502  501  0.00000000000E+00  0.00000000000E+00  0.62600129178E+03  0.62600129178E+03  0.00000000000E+00 0. -1.
         21   -1    0    0  501  502 -0.00000000000E+00 -0.00000000000E+00 -0.79364381393E+02  0.79364381393E+02  0.00000000000E+00 0. -1.
      99926    2    1    2    0    0 -0.14210854715E-13 -0.71054273576E-14  0.54663691038E+03  0.70536567317E+03  0.44579010879E+03 0.  0.
      99925    2    3    3    0    0 -0.81981230856E+02 -0.60023048103E+02  0.38414316245E+03  0.47650891724E+03  0.26300397419E+03 0.  0.
         25    1    3    3    0    0  0.81981230856E+02  0.60023048103E+02  0.16249374794E+03  0.22885675593E+03  0.12509000000E+03 0.  0.
         25    1    4    4    0    0 -0.56238528568E+02 -0.14486913843E+02  0.13572566211E+03  0.19349833649E+03  0.12509000000E+03 0.  0.
         25    1    4    4    0    0 -0.25742702289E+02 -0.45536134261E+02  0.24841750034E+03  0.28301058075E+03  0.12509000000E+03 0.  0.
<mgrwt>
<rscale>  2 0.44579011E+03</rscale>
<asrwt>0</asrwt>
<pdfrwt beam="1">  1       21 0.92059011E-01 0.44579011E+03</pdfrwt>
<pdfrwt beam="2">  1       21 0.11671233E-01 0.44579011E+03</pdfrwt>
<totfact> 0.56604439E+04</totfact>
</mgrwt>
</event>
<event>
 7    0  0.4737014E-002  0.4476956E+03  0.7546771E-02  0.1028411E+00
         21   -1    0    0  502  501  0.00000000000E+00  0.00000000000E+00  0.16551064232E+03  0.16551064232E+03  0.00000000000E+00 0. -1.
         21   -1    0    0  501  502 -0.00000000000E+00 -0.00000000000E+00 -0.30274686654E+03  0.30274686654E+03  0.00000000000E+00 0. -1.
      99926    2    1    2    0    0  0.14210854715E-13  0.35527136788E-14 -0.13723622421E+03  0.46825750886E+03  0.44769555880E+03 0.  0.
      99925    2    3    3    0    0 -0.79086829459E+02 -0.16904377611E+02 -0.14789198669E+02  0.27543306346E+03  0.26287671536E+03 0.  0.
         25    1    4    4    0    0 -0.77021062563E+02 -0.22549263461E+02 -0.20719523729E+02  0.15005838905E+03  0.12509000000E+03 0.  0.
         25    1    4    4    0    0 -0.20657668964E+01  0.56448858507E+01  0.59303250600E+01  0.12537467441E+03  0.12509000000E+03 0.  0.
         25    1    3    3    0    0  0.79086829459E+02  0.16904377611E+02 -0.12244702554E+03  0.19282444539E+03  0.12509000000E+03 0.  0.
<mgrwt>
<rscale>  2 0.44769556E+03</rscale>
<asrwt>0</asrwt>
<pdfrwt beam="1">  1       21 0.24339800E-01 0.44769556E+03</pdfrwt>
<pdfrwt beam="2">  1       21 0.44521598E-01 0.44769556E+03</pdfrwt>
<totfact> 0.71627671E+04</totfact>
</mgrwt>
</event>
<event>
 7    0  0.4737014E-002  0.4526138E+03  0.7546771E-02  0.1026945E+00
         21   -1    0    0  502  501  0.00000000000E+00  0.00000000000E+00  0.44677989239E+03  0.44677989239E+03  0.00000000000E+00 0. -1.
         21   -1    0    0  501  502 -0.00000000000E+00 -0.00000000000E+00 -0.11463095351E+03  0.11463095351E+03  0.00000000000E+00 0. -1.
      99926    2    1    2    0    0  0.00000000000E+00  0.00000000000E+00  0.33214893888E+03  0.56141084590E+03  0.45261376503E+03 0.  0.
      99925    2    3    3    0    0 -0.57693064987E+02  0.35162467141E+02  0.10088911729E+03  0.28994537476E+03  0.26329606437E+03 0.  0.
         25    1    4    4    0    0 -0.11959942371E+02  0.43381319809E+02  0.21475283567E+02  0.13466133459E+03  0.12509000000E+03 0.  0.
         25    1    4    4    0    0 -0.45733122616E+02 -0.82188526682E+01  0.79413833724E+02  0.15528404017E+03  0.12509000000E+03 0.  0.
         25    1    3    3    0    0  0.57693064987E+02 -0.35162467141E+02  0.23125982158E+03  0.27146547114E+03  0.12509000000E+03 0.  0.
<mgrwt>
<rscale>  2 0.45261377E+03</rscale>
<asrwt>0</asrwt>
<pdfrwt beam="1">  1       21 0.65702925E-01 0.45261377E+03</pdfrwt>
<pdfrwt beam="2">  1       21 0.16857493E-01 0.45261377E+03</pdfrwt>
<totfact> 0.62286004E+04</totfact>
</mgrwt>
</event>
<event>
 7    0  0.4737014E-002  0.4638665E+03  0.7546771E-02  0.1023666E+00
         21   -1    0    0  502  501  0.00000000000E+00  0.00000000000E+00  0.14686942091E+03  0.14686942091E+03  0.00000000000E+00 0.  1.
         21   -1    0    0  501  502 -0.00000000000E+00 -0.00000000000E+00 -0.36626427071E+03  0.36626427071E+03  0.00000000000E+00 0.  1.
      99926    2    1    2    0    0  0.00000000000E+00  0.35527136788E-14 -0.21939484980E+03  0.51313369161E+03  0.46386645206E+03 0.  0.
      99925    2    3    3    0    0  0.79562931560E+02 -0.27983662060E+02 -0.40837911912E+02  0.27937434188E+03  0.26318993603E+03 0.  0.
         25    1    3    3    0    0 -0.79562931560E+02  0.27983662060E+02 -0.17855693789E+03  0.23375934974E+03  0.12509000000E+03 0.  0.
         25    1    4    4    0    0  0.50467978249E+02  0.21762465048E+02 -0.35008541386E+01  0.13667620785E+03  0.12509000000E+03 0.  0.
         25    1    4    4    0    0  0.29094953311E+02 -0.49746127109E+02 -0.37337057774E+02  0.14269813402E+03  0.12509000000E+03 0.  0.
<mgrwt>
<rscale>  2 0.46386645E+03</rscale>
<asrwt>0</asrwt>
<pdfrwt beam="1">  1       21 0.21598445E-01 0.46386645E+03</pdfrwt>
<pdfrwt beam="2">  1       21 0.53862392E-01 0.46386645E+03</pdfrwt>
<totfact> 0.60021258E+04</totfact>
</mgrwt>
</event>
<event>
 7    0  0.4737014E-002  0.4548481E+03  0.7546771E-02  0.1026286E+00
         21   -1    0    0  502  501  0.00000000000E+00  0.00000000000E+00  0.16031983965E+03  0.16031983965E+03  0.00000000000E+00 0. -1.
         21   -1    0    0  501  502 -0.00000000000E+00 -0.00000000000E+00 -0.32261564967E+03  0.32261564967E+03  0.00000000000E+00 0. -1.
      99926    2    1    2    0    0  0.00000000000E+00  0.00000000000E+00 -0.16229581002E+03  0.48293548932E+03  0.45484805913E+03 0.  0.
      99925    2    3    3    0    0 -0.58464420510E+02  0.90269664162E+02 -0.65208114341E+02  0.29151911205E+03  0.26299162303E+03 0.  0.
         25    1    4    4    0    0 -0.55936069783E+02  0.58470802006E+02 -0.64704352981E+02  0.16242487489E+03  0.12509000000E+03 0.  0.
         25    1    3    3    0    0  0.58464420510E+02 -0.90269664162E+02 -0.97087695675E+02  0.19141637726E+03  0.12509000000E+03 0.  0.
         25    1    4    4    0    0 -0.25283507275E+01  0.31798862156E+02 -0.50376136077E+00  0.12909423716E+03  0.12509000000E+03 0.  0.
<mgrwt>
<rscale>  2 0.45484806E+03</rscale>
<asrwt>0</asrwt>
<pdfrwt beam="1">  1       21 0.23576447E-01 0.45484806E+03</pdfrwt>
<pdfrwt beam="2">  1       21 0.47443477E-01 0.45484806E+03</pdfrwt>
<totfact> 0.66567286E+04</totfact>
</mgrwt>
</event>
<event>
 7    0  0.4737014E-002  0.4503549E+03  0.7546771E-02  0.1027616E+00
         21   -1    0    0  502  501  0.00000000000E+00  0.00000000000E+00  0.14853522973E+03  0.14853522973E+03  0.00000000000E+00 0. -1.
         21   -1    0    0  501  502 -0.00000000000E+00 -0.00000000000E+00 -0.34136611560E+03  0.34136611560E+03  0.00000000000E+00 0. -1.
      99926    2    1    2    0    0 -0.17763568394E-14 -0.14210854715E-13 -0.19283088586E+03  0.48990134533E+03  0.45035494625E+03 0.  0.
      99925    2    3    3    0    0  0.11099041019E+02  0.98907676402E+02 -0.16631725731E+03  0.32786308515E+03  0.26443686460E+03 0.  0.
         25    1    3    3    0    0 -0.11099041019E+02 -0.98907676402E+02 -0.26513628554E+02  0.16203826018E+03  0.12509000000E+03 0.  0.
         25    1    4    4    0    0  0.44903785969E+02  0.60129254725E+02 -0.69882983366E+02  0.16174985852E+03  0.12509000000E+03 0.  0.
         25    1    4    4    0    0 -0.33804744950E+02  0.38778421677E+02 -0.96434273944E+02  0.16611322663E+03  0.12509000000E+03 0.  0.
<mgrwt>
<rscale>  2 0.45035495E+03</rscale>
<asrwt>0</asrwt>
<pdfrwt beam="1">  1       21 0.21843417E-01 0.45035495E+03</pdfrwt>
<pdfrwt beam="2">  1       21 0.50200898E-01 0.45035495E+03</pdfrwt>
<totfact> 0.68476592E+04</totfact>
</mgrwt>
</event>
<event>
 7    0  0.4737014E-002  0.4425210E+03  0.7546771E-02  0.1029976E+00
         21   -1    0    0  502  501  0.00000000000E+00  0.00000000000E+00  0.37780844633E+03  0.37780844633E+03  0.00000000000E+00 0. -1.
         21   -1    0    0  501  502 -0.00000000000E+00 -0.00000000000E+00 -0.12957944439E+03  0.12957944439E+03  0.00000000000E+00 0. -1.
      99926    2    1    2    0    0  0.00000000000E+00 -0.35527136788E-14  0.24822900193E+03  0.50738789072E+03  0.44252099865E+03 0.  0.
      99925    2    3    3    0    0  0.29629519858E+02  0.57945663440E+01  0.47606720773E+02  0.26904298676E+03  0.26307079545E+03 0.  0.
         25    1    4    4    0    0  0.29236230959E+02 -0.32380434986E+02  0.38404696445E+02  0.13793360207E+03  0.12509000000E+03 0.  0.
         25    1    4    4    0    0  0.39328889860E+00  0.38175001330E+02  0.92020243279E+01  0.13110938469E+03  0.12509000000E+03 0.  0.
         25    1    3    3    0    0 -0.29629519858E+02 -0.57945663440E+01  0.20062228116E+03  0.23834490396E+03  0.12509000000E+03 0.  0.
<mgrwt>
<rscale>  2 0.44252100E+03</rscale>
<asrwt>0</asrwt>
<pdfrwt beam="1">  1       21 0.55560065E-01 0.44252100E+03</pdfrwt>
<pdfrwt beam="2">  1       21 0.19055801E-01 0.44252100E+03</pdfrwt>
<totfact> 0.71584888E+04</totfact>
</mgrwt>
</event>
<event>
 7    0  0.4737014E-002  0.4543440E+03  0.7546771E-02  0.1026434E+00
         21   -1    0    0  502  501  0.00000000000E+00  0.00000000000E+00  0.15670317087E+03  0.15670317087E+03  0.00000000000E+00 0.  1.
         21   -1    0    0  501  502 -0.00000000000E+00 -0.00000000000E+00 -0.32933042925E+03  0.32933042925E+03  0.00000000000E+00 0.  1.
      99926    2    1    2    0    0  0.14210854715E-13  0.71054273576E-14 -0.17262725838E+03  0.48603360011E+03  0.45434402175E+03 0.  0.
      99925    2    3    3    0    0  0.86473245322E+02  0.52430019356E+02 -0.16145857886E+03  0.32479223883E+03  0.26304865829E+03 0.  0.
         25    1    4    4    0    0  0.54255439055E+02  0.36594529964E+02 -0.12766140770E+03  0.19033590152E+03  0.12509000000E+03 0.  0.
         25    1    3    3    0    0 -0.86473245322E+02 -0.52430019356E+02 -0.11168679523E+02  0.16124136128E+03  0.12509000000E+03 0.  0.
         25    1    4    4    0    0  0.32217806268E+02  0.15835489391E+02 -0.33797171156E+02  0.13445633731E+03  0.12509000000E+03 0.  0.
<mgrwt>
<rscale>  2 0.45434402E+03</rscale>
<asrwt>0</asrwt>
<pdfrwt beam="1">  1       21 0.23044584E-01 0.45434402E+03</pdfrwt>
<pdfrwt beam="2">  1       21 0.48430945E-01 0.45434402E+03</pdfrwt>
<totfact> 0.66609649E+04</totfact>
</mgrwt>
</event>
<event>
 7    0  0.4737014E-002  0.4456683E+03  0.7546771E-02  0.1029022E+00
         21   -1    0    0  502  501  0.00000000000E+00  0.00000000000E+00  0.52205402712E+03  0.52205402712E+03  0.00000000000E+00 0. -1.
         21   -1    0    0  501  502 -0.00000000000E+00 -0.00000000000E+00 -0.95114783928E+02  0.95114783928E+02  0.00000000000E+00 0. -1.
      99926    2    1    2    0    0  0.14210854715E-13 -0.71054273576E-14  0.42693924319E+03  0.61716881105E+03  0.44566828915E+03 0.  0.
      99925    2    3    3    0    0 -0.85255102686E+02  0.57696145501E+02  0.29329201556E+03  0.40715365137E+03  0.26297644704E+03 0.  0.
         25    1    4    4    0    0 -0.45598951902E+02 -0.66065861087E+01  0.11064736092E+03  0.17324334900E+03  0.12509000000E+03 0.  0.
         25    1    3    3    0    0  0.85255102686E+02 -0.57696145501E+02  0.13364722764E+03  0.21001515968E+03  0.12509000000E+03 0.  0.
         25    1    4    4    0    0 -0.39656150784E+02  0.64302731609E+02  0.18264465464E+03  0.23391030237E+03  0.12509000000E+03 0.  0.
<mgrwt>
<rscale>  2 0.44566829E+03</rscale>
<asrwt>0</asrwt>
<pdfrwt beam="1">  1       21 0.76772649E-01 0.44566829E+03</pdfrwt>
<pdfrwt beam="2">  1       21 0.13987469E-01 0.44566829E+03</pdfrwt>
<totfact> 0.62083774E+04</totfact>
</mgrwt>
</event>
<event>
 7    0  0.4737014E-002  0.4572291E+03  0.7546771E-02  0.1025588E+00
         21   -1    0    0  502  501  0.00000000000E+00  0.00000000000E+00  0.13230262901E+04  0.13230262901E+04  0.00000000000E+00 0. -1.
         21   -1    0    0  501  502 -0.00000000000E+00 -0.00000000000E+00 -0.39503835740E+02  0.39503835740E+02  0.00000000000E+00 0. -1.
      99926    2    1    2    0    0 -0.17763568394E-14  0.00000000000E+00  0.12835224544E+04  0.13625301259E+04  0.45722910338E+03 0.  0.
      99925    2    3    3    0    0 -0.14161762560E+02 -0.34394901322E+02  0.11308739565E+04  0.11617002557E+04  0.26322616469E+03 0.  0.
         25    1    3    3    0    0  0.14161762560E+02  0.34394901322E+02  0.15264849789E+03  0.20082987019E+03  0.12509000000E+03 0.  0.
         25    1    4    4    0    0  0.30638944832E+02 -0.18540870149E+02  0.62717379096E+03  0.64052867303E+03  0.12509000000E+03 0.  0.
         25    1    4    4    0    0 -0.44800707392E+02 -0.15854031173E+02  0.50370016556E+03  0.52117158266E+03  0.12509000000E+03 0.  0.
<mgrwt>
<rscale>  2 0.45722910E+03</rscale>
<asrwt>0</asrwt>
<pdfrwt beam="1">  1       21 0.19456266E+00 0.45722910E+03</pdfrwt>
<pdfrwt beam="2">  1       21 0.58093885E-02 0.45722910E+03</pdfrwt>
<totfact> 0.26879121E+04</totfact>
</mgrwt>
</event>
<event>
 7    0  0.4737014E-002  0.4541056E+03  0.7546771E-02  0.1026505E+00
         21   -1    0    0  502  501  0.00000000000E+00  0.00000000000E+00  0.10505126348E+04  0.10505126348E+04  0.00000000000E+00 0.  1.
         21   -1    0    0  501  502 -0.00000000000E+00 -0.00000000000E+00 -0.49074113288E+02  0.49074113288E+02  0.00000000000E+00 0.  1.
      99926    2    1    2    0    0  0.35527136788E-14 -0.14210854715E-13  0.10014385215E+04  0.10995867481E+04  0.45410560908E+03 0.  0.
      99925    2    3    3    0    0  0.26528719219E+02 -0.10841070867E+03  0.66395132082E+03  0.72275552137E+03  0.26284507329E+03 0.  0.
         25    1    4    4    0    0  0.24348377224E+02 -0.26169892475E+02  0.23767973316E+03  0.27095547679E+03  0.12509000000E+03 0.  0.
         25    1    4    4    0    0  0.21803419949E+01 -0.82240816196E+02  0.42627158766E+03  0.45180004458E+03  0.12509000000E+03 0.  0.
         25    1    3    3    0    0 -0.26528719219E+02  0.10841070867E+03  0.33748720068E+03  0.37683122671E+03  0.12509000000E+03 0.  0.
<mgrwt>
<rscale>  2 0.45410561E+03</rscale>
<asrwt>0</asrwt>
<pdfrwt beam="1">  1       21 0.15448714E+00 0.45410561E+03</pdfrwt>
<pdfrwt beam="2">  1       21 0.72167820E-02 0.45410561E+03</pdfrwt>
<totfact> 0.35757407E+04</totfact>
</mgrwt>
</event>
<event>
 7    0  0.4737014E-002  0.4408844E+03  0.7546771E-02  0.1030476E+00
         21   -1    0    0  502  501  0.00000000000E+00  0.00000000000E+00  0.10924796671E+03  0.10924796671E+03  0.00000000000E+00 0.  1.
         21   -1    0    0  501  502 -0.00000000000E+00 -0.00000000000E+00 -0.44481158630E+03  0.44481158630E+03  0.00000000000E+00 0.  1.
      99926    2    1    2    0    0  0.00000000000E+00  0.00000000000E+00 -0.33556361959E+03  0.55405955301E+03  0.44088439017E+03 0.  0.
      99925    2    3    3    0    0 -0.33268503555E+02  0.90685074934E+02 -0.18469149571E+03  0.33556359879E+03  0.26298555874E+03 0.  0.
         25    1    4    4    0    0 -0.44898598844E+02  0.59736635657E+02 -0.65917306818E+02  0.15992795020E+03  0.12509000000E+03 0.  0.
         25    1    4    4    0    0  0.11630095290E+02  0.30948439277E+02 -0.11877418889E+03  0.17563564859E+03  0.12509000000E+03 0.  0.
         25    1    3    3    0    0  0.33268503555E+02 -0.90685074934E+02 -0.15087212389E+03  0.21849595422E+03  0.12509000000E+03 0.  0.
<mgrwt>
<rscale>  2 0.44088439E+03</rscale>
<asrwt>0</asrwt>
<pdfrwt beam="1">  1       21 0.16065877E-01 0.44088439E+03</pdfrwt>
<pdfrwt beam="2">  1       21 0.65413469E-01 0.44088439E+03</pdfrwt>
<totfact> 0.68985784E+04</totfact>
</mgrwt>
</event>
<event>
 7    0  0.4737014E-002  0.4555940E+03  0.7546771E-02  0.1026067E+00
         21   -1    0    0  502  501  0.00000000000E+00  0.00000000000E+00  0.20871673335E+03  0.20871673335E+03  0.00000000000E+00 0.  1.
         21   -1    0    0  501  502 -0.00000000000E+00 -0.00000000000E+00 -0.24862149494E+03  0.24862149494E+03  0.00000000000E+00 0.  1.
      99926    2    1    2    0    0 -0.71054273576E-14  0.00000000000E+00 -0.39904761590E+02  0.45733822829E+03  0.45559396952E+03 0.  0.
      99925    2    3    3    0    0  0.42451732516E+02  0.90242655170E+02 -0.80036918081E+02  0.29240192395E+03  0.26295834360E+03 0.  0.
         25    1    4    4    0    0  0.20736584248E+02  0.86292657661E+01 -0.58627303885E+02  0.13996120539E+03  0.12509000000E+03 0.  0.
         25    1    4    4    0    0  0.21715148268E+02  0.81613389404E+02 -0.21409614197E+02  0.15244071856E+03  0.12509000000E+03 0.  0.
         25    1    3    3    0    0 -0.42451732516E+02 -0.90242655170E+02  0.40132156491E+02  0.16493630434E+03  0.12509000000E+03 0.  0.
<mgrwt>
<rscale>  2 0.45559397E+03</rscale>
<asrwt>0</asrwt>
<pdfrwt beam="1">  1       21 0.30693638E-01 0.45559397E+03</pdfrwt>
<pdfrwt beam="2">  1       21 0.36561984E-01 0.45559397E+03</pdfrwt>
<totfact> 0.68051782E+04</totfact>
</mgrwt>
</event>
<event>
 7    0  0.4737014E-002  0.4462154E+03  0.7546771E-02  0.1028857E+00
         21   -1    0    0  502  501  0.00000000000E+00  0.00000000000E+00  0.19476641831E+02  0.19476641831E+02  0.00000000000E+00 0.  1.
         21   -1    0    0  501  502 -0.00000000000E+00 -0.00000000000E+00 -0.25557299530E+04  0.25557299530E+04  0.00000000000E+00 0.  1.
      99926    2    1    2    0    0  0.00000000000E+00  0.00000000000E+00 -0.25362533112E+04  0.25752065948E+04  0.44621536017E+03 0.  0.
      99925    2    3    3    0    0  0.98944026658E+02  0.13380375530E+01 -0.14223895088E+04  0.14499813778E+04  0.26355714829E+03 0.  0.
         25    1    4    4    0    0  0.70125058763E+02  0.37367027717E+02 -0.74983940816E+03  0.76434315903E+03  0.12509000000E+03 0.  0.
         25    1    3    3    0    0 -0.98944026658E+02 -0.13380375530E+01 -0.11138638023E+04  0.11252252170E+04  0.12509000000E+03 0.  0.
         25    1    4    4    0    0  0.28818967895E+02 -0.36028990164E+02 -0.67255010068E+03  0.68563821879E+03  0.12509000000E+03 0.  0.
<mgrwt>
<rscale>  2 0.44621536E+03</rscale>
<asrwt>0</asrwt>
<pdfrwt beam="1">  1       21 0.28642138E-02 0.44621536E+03</pdfrwt>
<pdfrwt beam="2">  1       21 0.37584241E+00 0.44621536E+03</pdfrwt>
<totfact> 0.68485879E+03</totfact>
</mgrwt>
</event>
<event>
 7    0  0.4737014E-002  0.4469007E+03  0.7546771E-02  0.1028650E+00
         21   -1    0    0  502  501  0.00000000000E+00  0.00000000000E+00  0.18780804189E+03  0.18780804189E+03  0.00000000000E+00 0. -1.
         21   -1    0    0  501  502 -0.00000000000E+00 -0.00000000000E+00 -0.26585682296E+03  0.26585682296E+03  0.00000000000E+00 0. -1.
      99926    2    1    2    0    0 -0.26645352591E-14 -0.14210854715E-13 -0.78048781068E+02  0.45366486485E+03  0.44690065716E+03 0.  0.
      99925    2    3    3    0    0 -0.50604311717E+01 -0.89541366438E+02  0.63562467103E+01  0.27812290097E+03  0.26318944110E+03 0.  0.
         25    1    4    4    0    0 -0.38353190349E+02 -0.54432514128E+02 -0.14267233026E+02  0.14242516576E+03  0.12509000000E+03 0.  0.
         25    1    4    4    0    0  0.33292759178E+02 -0.35108852310E+02  0.20623479737E+02  0.13569773521E+03  0.12509000000E+03 0.  0.
         25    1    3    3    0    0  0.50604311717E+01  0.89541366438E+02 -0.84405027778E+02  0.17554196388E+03  0.12509000000E+03 0.  0.
<mgrwt>
<rscale>  2 0.44690066E+03</rscale>
<asrwt>0</asrwt>
<pdfrwt beam="1">  1       21 0.27618830E-01 0.44690066E+03</pdfrwt>
<pdfrwt beam="2">  1       21 0.39096591E-01 0.44690066E+03</pdfrwt>
<totfact> 0.73263321E+04</totfact>
</mgrwt>
</event>
<event>
 7    0  0.4737014E-002  0.4501455E+03  0.7546771E-02  0.1027679E+00
         21   -1    0    0  502  501  0.00000000000E+00  0.00000000000E+00  0.71413475115E+03  0.71413475115E+03  0.00000000000E+00 0. -1.
         21   -1    0    0  501  502 -0.00000000000E+00 -0.00000000000E+00 -0.70935836727E+02  0.70935836727E+02  0.00000000000E+00 0. -1.
      99926    2    1    2    0    0  0.00000000000E+00  0.00000000000E+00  0.64319891442E+03  0.78507058788E+03  0.45014551473E+03 0.  0.
      99925    2    3    3    0    0  0.56200920957E+01 -0.77649116169E+01  0.21789235076E+03  0.34164634352E+03  0.26297009000E+03 0.  0.
         25    1    4    4    0    0  0.10121219797E+02  0.23187443578E+02  0.14637721921E+03  0.19420065663E+03  0.12509000000E+03 0.  0.
         25    1    3    3    0    0 -0.56200920957E+01  0.77649116169E+01  0.42530656367E+03  0.44342424436E+03  0.12509000000E+03 0.  0.
         25    1    4    4    0    0 -0.45011277017E+01 -0.30952355195E+02  0.71515131541E+02  0.14744568689E+03  0.12509000000E+03 0.  0.
<mgrwt>
<rscale>  2 0.45014551E+03</rscale>
<asrwt>0</asrwt>
<pdfrwt beam="1">  1       21 0.10501981E+00 0.45014551E+03</pdfrwt>
<pdfrwt beam="2">  1       21 0.10431741E-01 0.45014551E+03</pdfrwt>
<totfact> 0.50388076E+04</totfact>
</mgrwt>
</event>
<event>
 7    0  0.4737014E-002  0.4832657E+03  0.7546771E-02  0.1018241E+00
         21   -1    0    0  502  501  0.00000000000E+00  0.00000000000E+00  0.29593997851E+03  0.29593997851E+03  0.00000000000E+00 0.  1.
         21   -1    0    0  501  502 -0.00000000000E+00 -0.00000000000E+00 -0.19729149724E+03  0.19729149724E+03  0.00000000000E+00 0.  1.
      99926    2    1    2    0    0  0.00000000000E+00  0.00000000000E+00  0.98648481273E+02  0.49323147576E+03  0.48326573003E+03 0.  0.
      99925    2    3    3    0    0 -0.18908431582E+02 -0.10327771743E+03 -0.30683032218E+02  0.28490969537E+03  0.26307464786E+03 0.  0.
         25    1    4    4    0    0 -0.66615457048E+01 -0.18497587584E+02 -0.40605136745E+02  0.13297677304E+03  0.12509000000E+03 0.  0.
         25    1    3    3    0    0  0.18908431582E+02  0.10327771743E+03  0.12933151349E+03  0.20832178039E+03  0.12509000000E+03 0.  0.
         25    1    4    4    0    0 -0.12246885878E+02 -0.84780129842E+02  0.99221045265E+01  0.15193292233E+03  0.12509000000E+03 0.  0.
<mgrwt>
<rscale>  2 0.48326573E+03</rscale>
<asrwt>0</asrwt>
<pdfrwt beam="1">  1       21 0.43520585E-01 0.48326573E+03</pdfrwt>
<pdfrwt beam="2">  1       21 0.29013455E-01 0.48326573E+03</pdfrwt>
<totfact> 0.52852806E+04</totfact>
</mgrwt>
</event>
<event>
 7    0  0.4737014E-002  0.4578316E+03  0.7546771E-02  0.1025412E+00
         21   -1    0    0  502  501  0.00000000000E+00  0.00000000000E+00  0.44395931046E+03  0.44395931046E+03  0.00000000000E+00 0.  1.
         21   -1    0    0  501  502 -0.00000000000E+00 -0.00000000000E+00 -0.11803435333E+03  0.11803435333E+03  0.00000000000E+00 0.  1.
      99926    2    1    2    0    0  0.00000000000E+00  0.00000000000E+00  0.32592495714E+03  0.56199366379E+03  0.45783162894E+03 0.  0.
      99925    2    3    3    0    0  0.46227385444E+02 -0.10115532188E+02  0.75230630935E+02  0.27785558390E+03  0.26325801510E+03 0.  0.
         25    1    4    4    0    0  0.60964549715E+01 -0.27432415812E+02  0.59858688359E+01  0.12834735263E+03  0.12509000000E+03 0.  0.
         25    1    4    4    0    0  0.40130930473E+02  0.17316883624E+02  0.69244762099E+02  0.14950823127E+03  0.12509000000E+03 0.  0.
         25    1    3    3    0    0 -0.46227385444E+02  0.10115532188E+02  0.25069432620E+03  0.28413807989E+03  0.12509000000E+03 0.  0.
<mgrwt>
<rscale>  2 0.45783163E+03</rscale>
<asrwt>0</asrwt>
<pdfrwt beam="1">  1       21 0.65288134E-01 0.45783163E+03</pdfrwt>
<pdfrwt beam="2">  1       21 0.17357993E-01 0.45783163E+03</pdfrwt>
<totfact> 0.59731763E+04</totfact>
</mgrwt>
</event>
<event>
 7    0  0.4737014E-002  0.4626643E+03  0.7546771E-02  0.1024011E+00
         21   -1    0    0  502  501  0.00000000000E+00  0.00000000000E+00  0.14566441408E+03  0.14566441408E+03  0.00000000000E+00 0. -1.
         21   -1    0    0  501  502 -0.00000000000E+00 -0.00000000000E+00 -0.36738257552E+03  0.36738257552E+03  0.00000000000E+00 0. -1.
      99926    2    1    2    0    0  0.00000000000E+00  0.00000000000E+00 -0.22171816144E+03  0.51304698960E+03  0.46266431721E+03 0.  0.
      99925    2    3    3    0    0 -0.83261818842E+02  0.34911278431E+02 -0.50484691491E+02  0.28256979513E+03  0.26295561832E+03 0.  0.
         25    1    4    4    0    0 -0.47667901106E+02 -0.13308283400E+02  0.12466443427E+01  0.13453029928E+03  0.12509000000E+03 0.  0.
         25    1    4    4    0    0 -0.35593917736E+02  0.48219561831E+02 -0.51731335833E+02  0.14803949585E+03  0.12509000000E+03 0.  0.
         25    1    3    3    0    0  0.83261818842E+02 -0.34911278431E+02 -0.17123346995E+03  0.23047719447E+03  0.12509000000E+03 0.  0.
<mgrwt>
<rscale>  2 0.46266432E+03</rscale>
<asrwt>0</asrwt>
<pdfrwt beam="1">  1       21 0.21421238E-01 0.46266432E+03</pdfrwt>
<pdfrwt beam="2">  1       21 0.54026849E-01 0.46266432E+03</pdfrwt>
<totfact> 0.60592944E+04</totfact>
</mgrwt>
</event>
<event>
 7    0  0.4737014E-002  0.4582237E+03  0.7546771E-02  0.1025298E+00
         21   -1    0    0  502  501  0.00000000000E+00  0.00000000000E+00  0.33381897987E+03  0.33381897987E+03  0.00000000000E+00 0. -1.
         21   -1    0    0  501  502 -0.00000000000E+00 -0.00000000000E+00 -0.15724760647E+03  0.15724760647E+03  0.00000000000E+00 0. -1.
      99926    2    1    2    0    0  0.00000000000E+00  0.00000000000E+00  0.17657137341E+03  0.49106658634E+03  0.45822368153E+03 0.  0.
      99925    2    3    3    0    0  0.56008785155E+02 -0.51374872792E+02  0.16603482287E+02  0.27424039821E+03  0.26297482544E+03 0.  0.
         25    1    4    4    0    0  0.50519391727E+02  0.70665563110E+01  0.16226481559E+02  0.13606230912E+03  0.12509000000E+03 0.  0.
         25    1    3    3    0    0 -0.56008785155E+02  0.51374872792E+02  0.15996789112E+03  0.21682618813E+03  0.12509000000E+03 0.  0.
         25    1    4    4    0    0  0.54893934287E+01 -0.58441429103E+02  0.37700072752E+00  0.13817808909E+03  0.12509000000E+03 0.  0.
<mgrwt>
<rscale>  2 0.45822368E+03</rscale>
<asrwt>0</asrwt>
<pdfrwt beam="1">  1       21 0.49091026E-01 0.45822368E+03</pdfrwt>
<pdfrwt beam="2">  1       21 0.23124648E-01 0.45822368E+03</pdfrwt>
<totfact> 0.64243033E+04</totfact>
</mgrwt>
</event>
<event>
 7    0  0.4737014E-002  0.4478939E+03  0.7546771E-02  0.1028352E+00
         21   -1    0    0  502  501  0.00000000000E+00  0.00000000000E+00  0.15927480813E+04  0.15927480813E+04  0.00000000000E+00 0. -1.
         21   -1    0    0  501  502 -0.00000000000E+00 -0.00000000000E+00 -0.31487860410E+02  0.31487860410E+02  0.00000000000E+00 0. -1.
      99926    2    1    2    0    0 -0.35527136788E-14  0.00000000000E+00  0.15612602209E+04  0.16242359417E+04  0.44789386802E+03 0.  0.
      99925    2    3    3    0    0  0.16653549964E+02  0.93087626238E+02  0.81163943239E+03  0.85838903694E+03  0.26292684088E+03 0.  0.
         25    1    4    4    0    0  0.48149249803E+02  0.54901109934E+02  0.42835860447E+03  0.45218478994E+03  0.12509000000E+03 0.  0.
         25    1    3    3    0    0 -0.16653549964E+02 -0.93087626238E+02  0.74962078849E+03  0.76584690475E+03  0.12509000000E+03 0.  0.
         25    1    4    4    0    0 -0.31495699838E+02  0.38186516304E+02  0.38328082792E+03  0.40620424701E+03  0.12509000000E+03 0.  0.
<mgrwt>
<rscale>  2 0.44789387E+03</rscale>
<asrwt>0</asrwt>
<pdfrwt beam="1">  1       21 0.23422760E+00 0.44789387E+03</pdfrwt>
<pdfrwt beam="2">  1       21 0.46305688E-02 0.44789387E+03</pdfrwt>
<totfact> 0.22081089E+04</totfact>
</mgrwt>
</event>
<event>
 7    0  0.4737014E-002  0.4293128E+03  0.7546771E-02  0.1034077E+00
         21   -1    0    0  502  501  0.00000000000E+00  0.00000000000E+00  0.84335881750E+03  0.84335881750E+03  0.00000000000E+00 0.  1.
         21   -1    0    0  501  502 -0.00000000000E+00 -0.00000000000E+00 -0.54635534700E+02  0.54635534700E+02  0.00000000000E+00 0.  1.
      99926    2    1    2    0    0 -0.17763568394E-14  0.00000000000E+00  0.78872328280E+03  0.89799435219E+03  0.42931275284E+03 0.  0.
      99925    2    3    3    0    0 -0.13080148594E+02  0.11957244540E+02  0.68742044240E+03  0.73605658774E+03  0.26252308421E+03 0.  0.
         25    1    4    4    0    0  0.14068892180E+02 -0.44148424714E+00  0.43380162548E+03  0.45169623311E+03  0.12509000000E+03 0.  0.
         25    1    4    4    0    0 -0.27149040774E+02  0.12398728787E+02  0.25361881692E+03  0.28436035463E+03  0.12509000000E+03 0.  0.
         25    1    3    3    0    0  0.13080148594E+02 -0.11957244540E+02  0.10130284040E+03  0.16193776445E+03  0.12509000000E+03 0.  0.
<mgrwt>
<rscale>  2 0.42931275E+03</rscale>
<asrwt>0</asrwt>
<pdfrwt beam="1">  1       21 0.12402335E+00 0.42931275E+03</pdfrwt>
<pdfrwt beam="2">  1       21 0.80346380E-02 0.42931275E+03</pdfrwt>
<totfact> 0.53244066E+04</totfact>
</mgrwt>
</event>
<event>
 7    0  0.4737014E-002  0.4578561E+03  0.7546771E-02  0.1025405E+00
         21   -1    0    0  502  501  0.00000000000E+00  0.00000000000E+00  0.43939696107E+03  0.43939696107E+03  0.00000000000E+00 0. -1.
         21   -1    0    0  501  502 -0.00000000000E+00 -0.00000000000E+00 -0.11927267309E+03  0.11927267309E+03  0.00000000000E+00 0. -1.
      99926    2    1    2    0    0 -0.71054273576E-14  0.00000000000E+00  0.32012428798E+03  0.55866963416E+03  0.45785609134E+03 0.  0.
      99925    2    3    3    0    0 -0.36789520255E+02 -0.36365410686E+02  0.74602613980E+02  0.27830502798E+03  0.26308216719E+03 0.  0.
         25    1    3    3    0    0  0.36789520255E+02  0.36365410686E+02  0.24552167400E+03  0.28036460618E+03  0.12509000000E+03 0.  0.
         25    1    4    4    0    0 -0.93800463594E+01  0.14810761272E+02  0.12080042094E+02  0.12688884678E+03  0.12509000000E+03 0.  0.
         25    1    4    4    0    0 -0.27409473896E+02 -0.51176171958E+02  0.62522571887E+02  0.15141618121E+03  0.12509000000E+03 0.  0.
<mgrwt>
<rscale>  2 0.45785609E+03</rscale>
<asrwt>0</asrwt>
<pdfrwt beam="1">  1       21 0.64617200E-01 0.45785609E+03</pdfrwt>
<pdfrwt beam="2">  1       21 0.17540099E-01 0.45785609E+03</pdfrwt>
<totfact> 0.59931712E+04</totfact>
</mgrwt>
</event>
<event>
 7    0  0.4737014E-002  0.4601308E+03  0.7546771E-02  0.1024743E+00
         21   -1    0    0  502  501  0.00000000000E+00  0.00000000000E+00  0.20872068021E+03  0.20872068021E+03  0.00000000000E+00 0. -1.
         21   -1    0    0  501  502 -0.00000000000E+00 -0.00000000000E+00 -0.25359290438E+03  0.25359290438E+03  0.00000000000E+00 0. -1.
      99926    2    1    2    0    0  0.00000000000E+00  0.00000000000E+00 -0.44872224176E+02  0.46231358459E+03  0.46013077923E+03 0.  0.
      99925    2    3    3    0    0 -0.59638998422E+02 -0.29204428593E+02  0.69818373261E+02  0.28007431872E+03  0.26297777469E+03 0.  0.
         25    1    4    4    0    0 -0.34143185819E+02 -0.33668626062E+01  0.74794335259E+02  0.14972906728E+03  0.12509000000E+03 0.  0.
         25    1    3    3    0    0  0.59638998422E+02  0.29204428593E+02 -0.11469059744E+03  0.18223926586E+03  0.12509000000E+03 0.  0.
         25    1    4    4    0    0 -0.25495812603E+02 -0.25837565987E+02 -0.49759619973E+01  0.13034525144E+03  0.12509000000E+03 0.  0.
<mgrwt>
<rscale>  2 0.46013078E+03</rscale>
<asrwt>0</asrwt>
<pdfrwt beam="1">  1       21 0.30694218E-01 0.46013078E+03</pdfrwt>
<pdfrwt beam="2">  1       21 0.37293074E-01 0.46013078E+03</pdfrwt>
<totfact> 0.65298968E+04</totfact>
</mgrwt>
</event>
<event>
 7    0  0.4737014E-002  0.4306967E+03  0.7546771E-02  0.1033640E+00
         21   -1    0    0  502  501  0.00000000000E+00  0.00000000000E+00  0.48103144391E+02  0.48103144391E+02  0.00000000000E+00 0.  1.
         21   -1    0    0  501  502 -0.00000000000E+00 -0.00000000000E+00 -0.96407223014E+03  0.96407223014E+03  0.00000000000E+00 0.  1.
      99926    2    1    2    0    0  0.00000000000E+00  0.14210854715E-13 -0.91596908575E+03  0.10121753745E+04  0.43069667140E+03 0.  0.
      99925    2    3    3    0    0 -0.44156131319E+01  0.87864431128E+02 -0.61184664347E+03  0.67176734893E+03  0.26301216714E+03 0.  0.
         25    1    4    4    0    0 -0.51141174776E+01  0.84609217781E+02 -0.30473617409E+03  0.34014190837E+03  0.12509000000E+03 0.  0.
         25    1    4    4    0    0  0.69850434570E+00  0.32552133468E+01 -0.30711046938E+03  0.33162544056E+03  0.12509000000E+03 0.  0.
         25    1    3    3    0    0  0.44156131319E+01 -0.87864431128E+02 -0.30412244228E+03  0.34040802560E+03  0.12509000000E+03 0.  0.
<mgrwt>
<rscale>  2 0.43069667E+03</rscale>
<asrwt>0</asrwt>
<pdfrwt beam="1">  1       21 0.70739916E-02 0.43069667E+03</pdfrwt>
<pdfrwt beam="2">  1       21 0.14177533E+00 0.43069667E+03</pdfrwt>
<totfact> 0.47002653E+04</totfact>
</mgrwt>
</event>
<event>
 7    0  0.4737014E-002  0.3991687E+03  0.7546771E-02  0.1044068E+00
         21   -1    0    0  502  501  0.00000000000E+00  0.00000000000E+00  0.75836060325E+03  0.75836060325E+03  0.00000000000E+00 0. -1.
         21   -1    0    0  501  502 -0.00000000000E+00 -0.00000000000E+00 -0.52526354191E+02  0.52526354191E+02  0.00000000000E+00 0. -1.
      99926    2    1    2    0    0  0.00000000000E+00  0.35527136788E-14  0.70583424906E+03  0.81088695744E+03  0.39916872448E+03 0.  0.
      99925    2    3    3    0    0  0.19098414588E+02  0.30512546577E+02  0.52110133227E+03  0.58490128625E+03  0.26318653314E+03 0.  0.
         25    1    3    3    0    0 -0.19098414588E+02 -0.30512546577E+02  0.18473291679E+03  0.22598567119E+03  0.12509000000E+03 0.  0.
         25    1    4    4    0    0 -0.20778262121E+02  0.20942983329E+02  0.31661762998E+03  0.34170832071E+03  0.12509000000E+03 0.  0.
         25    1    4    4    0    0  0.39876676709E+02  0.95695632477E+01  0.20448370229E+03  0.24319296554E+03  0.12509000000E+03 0.  0.
<mgrwt>
<rscale>  2 0.39916872E+03</rscale>
<asrwt>0</asrwt>
<pdfrwt beam="1">  1       21 0.11152361E+00 0.39916872E+03</pdfrwt>
<pdfrwt beam="2">  1       21 0.77244643E-02 0.39916872E+03</pdfrwt>
<totfact> 0.75137313E+04</totfact>
</mgrwt>
</event>
<event>
 7    0  0.4737014E-002  0.4585175E+03  0.7546771E-02  0.1025212E+00
         21   -1    0    0  502  501  0.00000000000E+00  0.00000000000E+00  0.31280351489E+03  0.31280351489E+03  0.00000000000E+00 0. -1.
         21   -1    0    0  501  502 -0.00000000000E+00 -0.00000000000E+00 -0.16802743034E+03  0.16802743034E+03  0.00000000000E+00 0. -1.
      99926    2    1    2    0    0  0.00000000000E+00  0.00000000000E+00  0.14477608455E+03  0.48083094524E+03  0.45851748412E+03 0.  0.
      99925    2    3    3    0    0 -0.80541769635E+02  0.50066727395E+02  0.20202191608E+02  0.28043180165E+03  0.26313535107E+03 0.  0.
         25    1    4    4    0    0 -0.18973145734E+02 -0.77392154833E+01 -0.75089700561E+01  0.12697940166E+03  0.12509000000E+03 0.  0.
         25    1    3    3    0    0  0.80541769635E+02 -0.50066727395E+02  0.12457389294E+03  0.20039914359E+03  0.12509000000E+03 0.  0.
         25    1    4    4    0    0 -0.61568623901E+02  0.57805942879E+02  0.27711161664E+02  0.15345239999E+03  0.12509000000E+03 0.  0.
<mgrwt>
<rscale>  2 0.45851748E+03</rscale>
<asrwt>0</asrwt>
<pdfrwt beam="1">  1       21 0.46000516E-01 0.45851748E+03</pdfrwt>
<pdfrwt beam="2">  1       21 0.24709916E-01 0.45851748E+03</pdfrwt>
<totfact> 0.64811228E+04</totfact>
</mgrwt>
</event>
<event>
 7    0  0.4737014E-002  0.4443184E+03  0.7546771E-02  0.1029430E+00
         21   -1    0    0  502  501  0.00000000000E+00  0.00000000000E+00  0.53256115805E+02  0.53256115805E+02  0.00000000000E+00 0.  1.
         21   -1    0    0  501  502 -0.00000000000E+00 -0.00000000000E+00 -0.92674268807E+03  0.92674268807E+03  0.00000000000E+00 0.  1.
      99926    2    1    2    0    0 -0.99920072216E-15 -0.14210854715E-13 -0.87348657227E+03  0.97999880388E+03  0.44431842599E+03 0.  0.
      99925    2    3    3    0    0 -0.58218770614E+00 -0.91590985806E+02 -0.45311458350E+03  0.53194817654E+03  0.26318584520E+03 0.  0.
         25    1    3    3    0    0  0.58218770614E+00  0.91590985806E+02 -0.42037198877E+03  0.44805062734E+03  0.12509000000E+03 0.  0.
         25    1    4    4    0    0  0.88638689678E+01 -0.84967022508E+02 -0.27553031658E+03  0.31442395988E+03  0.12509000000E+03 0.  0.
         25    1    4    4    0    0 -0.94460566740E+01 -0.66239632976E+01 -0.17758426692E+03  0.21752421666E+03  0.12509000000E+03 0.  0.
<mgrwt>
<rscale>  2 0.44431843E+03</rscale>
<asrwt>0</asrwt>
<pdfrwt beam="1">  1       21 0.78317818E-02 0.44431843E+03</pdfrwt>
<pdfrwt beam="2">  1       21 0.13628569E+00 0.44431843E+03</pdfrwt>
<totfact> 0.43466583E+04</totfact>
</mgrwt>
</event>
<event>
 7    0  0.4737014E-002  0.4585966E+03  0.7546771E-02  0.1025189E+00
         21   -1    0    0  502  501  0.00000000000E+00  0.00000000000E+00  0.18326704284E+03  0.18326704284E+03  0.00000000000E+00 0.  1.
         21   -1    0    0  501  502 -0.00000000000E+00 -0.00000000000E+00 -0.28689129315E+03  0.28689129315E+03  0.00000000000E+00 0.  1.
      99926    2    1    2    0    0  0.00000000000E+00  0.00000000000E+00 -0.10362425031E+03  0.47015833599E+03  0.45859663719E+03 0.  0.
      99925    2    3    3    0    0  0.76944230894E+02  0.87425817708E+02 -0.62487966635E+02  0.29436473484E+03  0.26302502328E+03 0.  0.
         25    1    4    4    0    0  0.67602883481E+02  0.72556397054E+02 -0.50749087848E+02  0.16750390630E+03  0.12509000000E+03 0.  0.
         25    1    4    4    0    0  0.93413474136E+01  0.14869420654E+02 -0.11738878787E+02  0.12686082854E+03  0.12509000000E+03 0.  0.
         25    1    3    3    0    0 -0.76944230894E+02 -0.87425817708E+02 -0.41136283677E+02  0.17579360115E+03  0.12509000000E+03 0.  0.
<mgrwt>
<rscale>  2 0.45859664E+03</rscale>
<asrwt>0</asrwt>
<pdfrwt beam="1">  1       21 0.26951036E-01 0.45859664E+03</pdfrwt>
<pdfrwt beam="2">  1       21 0.42189895E-01 0.45859664E+03</pdfrwt>
<totfact> 0.65534474E+04</totfact>
</mgrwt>
</event>
<event>
 7    0  0.4737014E-002  0.4538129E+03  0.7546771E-02  0.1026591E+00
         21   -1    0    0  502  501  0.00000000000E+00  0.00000000000E+00  0.97488269663E+02  0.97488269663E+02  0.00000000000E+00 0.  1.
         21   -1    0    0  501  502 -0.00000000000E+00 -0.00000000000E+00 -0.52813053042E+03  0.52813053042E+03  0.00000000000E+00 0.  1.
      99926    2    1    2    0    0  0.00000000000E+00  0.00000000000E+00 -0.43064226076E+03  0.62561880008E+03  0.45381287583E+03 0.  0.
      99925    2    3    3    0    0  0.10166272388E+03  0.43010178099E+02 -0.24163511294E+03  0.37351486344E+03  0.26256549765E+03 0.  0.
         25    1    4    4    0    0  0.40293107945E+02  0.44674098929E+02 -0.16079783466E+03  0.21242118866E+03  0.12509000000E+03 0.  0.
         25    1    4    4    0    0  0.61369615931E+02 -0.16639208305E+01 -0.80837278284E+02  0.16109367477E+03  0.12509000000E+03 0.  0.
         25    1    3    3    0    0 -0.10166272388E+03 -0.43010178099E+02 -0.18900714782E+03  0.25210393665E+03  0.12509000000E+03 0.  0.
<mgrwt>
<rscale>  2 0.45381288E+03</rscale>
<asrwt>0</asrwt>
<pdfrwt beam="1">  1       21 0.14336510E-01 0.45381288E+03</pdfrwt>
<pdfrwt beam="2">  1       21 0.77666253E-01 0.45381288E+03</pdfrwt>
<totfact> 0.57667019E+04</totfact>
</mgrwt>
</event>
<event>
 6    0  0.4737014E-002  0.4561269E+03  0.7546771E-02  0.1025911E+00
         21   -1    0    0  502  501  0.00000000000E+00  0.00000000000E+00  0.78601833756E+02  0.78601833756E+02  0.00000000000E+00 0. -1.
         21   -1    0    0  501  502 -0.00000000000E+00 -0.00000000000E+00 -0.66172675815E+03  0.66172675815E+03  0.00000000000E+00 0. -1.
      99926    2    1    2    0    0  0.00000000000E+00  0.17763568394E-14 -0.58312492439E+03  0.74032859190E+03  0.45612689741E+03 0.  0.
         25    1    3    3    0    0 -0.19243678247E+02  0.26820792309E+02 -0.10216146296E+03  0.16484582696E+03  0.12509000000E+03 0.  0.
         25    1    3    3    0    0  0.23495931367E+02  0.69643313812E+01 -0.40641373078E+03  0.42593448953E+03  0.12509000000E+03 0.  0.
         25    1    3    3    0    0 -0.42522531200E+01 -0.33785123691E+02 -0.74549730656E+02  0.14954827542E+03  0.12509000000E+03 0.  0.
<mgrwt>
<rscale>  2 0.45612690E+03</rscale>
<asrwt>0</asrwt>
<pdfrwt beam="1">  1       21 0.11559093E-01 0.45612690E+03</pdfrwt>
<pdfrwt beam="2">  1       21 0.97312757E-01 0.45612690E+03</pdfrwt>
<totfact> 0.50320197E+04</totfact>
</mgrwt>
</event>
<event>
 7    0  0.4737014E-002  0.4642777E+03  0.7546771E-02  0.1023548E+00
         21   -1    0    0  502  501  0.00000000000E+00  0.00000000000E+00  0.38894509733E+03  0.38894509733E+03  0.00000000000E+00 0. -1.
         21   -1    0    0  501  502 -0.00000000000E+00 -0.00000000000E+00 -0.13855029081E+03  0.13855029081E+03  0.00000000000E+00 0. -1.
      99926    2    1    2    0    0  0.00000000000E+00  0.14210854715E-13  0.25039480652E+03  0.52749538813E+03  0.46427774593E+03 0.  0.
      99925    2    3    3    0    0  0.48549139805E+02  0.80148129699E+02  0.24540418285E+03  0.37112033867E+03  0.26215711156E+03 0.  0.
         25    1    3    3    0    0 -0.48549139805E+02 -0.80148129699E+02  0.49906236684E+01  0.15637504946E+03  0.12509000000E+03 0.  0.
         25    1    4    4    0    0 -0.71634110009E+01  0.57708276050E+02  0.10191229740E+03  0.17150855385E+03  0.12509000000E+03 0.  0.
         25    1    4    4    0    0  0.55712550806E+02  0.22439853649E+02  0.14349188546E+03  0.19961178482E+03  0.12509000000E+03 0.  0.
<mgrwt>
<rscale>  2 0.46427775E+03</rscale>
<asrwt>0</asrwt>
<pdfrwt beam="1">  1       21 0.57197808E-01 0.46427775E+03</pdfrwt>
<pdfrwt beam="2">  1       21 0.20375043E-01 0.46427775E+03</pdfrwt>
<totfact> 0.58921657E+04</totfact>
</mgrwt>
</event>
<event>
 7    0  0.4737014E-002  0.4536745E+03  0.7546771E-02  0.1026632E+00
         21   -1    0    0  502  501  0.00000000000E+00  0.00000000000E+00  0.23614430679E+03  0.23614430679E+03  0.00000000000E+00 0.  1.
         21   -1    0    0  501  502 -0.00000000000E+00 -0.00000000000E+00 -0.21789703131E+03  0.21789703131E+03  0.00000000000E+00 0.  1.
      99926    2    1    2    0    0  0.71054273576E-14  0.00000000000E+00  0.18247275475E+02  0.45404133810E+03  0.45367452391E+03 0.  0.
      99925    2    3    3    0    0 -0.57842472470E+02  0.68764911782E+02  0.78060934668E+02  0.28881559362E+03  0.26314743564E+03 0.  0.
         25    1    3    3    0    0  0.57842472470E+02 -0.68764911782E+02 -0.59813659193E+02  0.16522574448E+03  0.12509000000E+03 0.  0.
         25    1    4    4    0    0 -0.15794239800E+02  0.30223109785E+01  0.10259661676E+02  0.12653600726E+03  0.12509000000E+03 0.  0.
         25    1    4    4    0    0 -0.42048232669E+02  0.65742600803E+02  0.67801272992E+02  0.16227958636E+03  0.12509000000E+03 0.  0.
<mgrwt>
<rscale>  2 0.45367452E+03</rscale>
<asrwt>0</asrwt>
<pdfrwt beam="1">  1       21 0.34727104E-01 0.45367452E+03</pdfrwt>
<pdfrwt beam="2">  1       21 0.32043681E-01 0.45367452E+03</pdfrwt>
<totfact> 0.69346601E+04</totfact>
</mgrwt>
</event>
<event>
 7    0  0.4737014E-002  0.4582514E+03  0.7546771E-02  0.1025290E+00
         21   -1    0    0  502  501  0.00000000000E+00  0.00000000000E+00  0.14914282716E+03  0.14914282716E+03  0.00000000000E+00 0.  1.
         21   -1    0    0  501  502 -0.00000000000E+00 -0.00000000000E+00 -0.35200212527E+03  0.35200212527E+03  0.00000000000E+00 0.  1.
      99926    2    1    2    0    0  0.00000000000E+00  0.00000000000E+00 -0.20285929810E+03  0.50114495243E+03  0.45825142500E+03 0.  0.
      99925    2    3    3    0    0  0.35535439041E+02  0.63716421621E+02 -0.22615243717E+03  0.35447311382E+03  0.26302797146E+03 0.  0.
         25    1    4    4    0    0  0.33177325527E+02  0.88682826950E+01 -0.14911491711E+03  0.19764146319E+03  0.12509000000E+03 0.  0.
         25    1    3    3    0    0 -0.35535439041E+02 -0.63716421621E+02  0.23293139071E+02  0.14667183861E+03  0.12509000000E+03 0.  0.
         25    1    4    4    0    0  0.23581135149E+01  0.54848138926E+02 -0.77037520064E+02  0.15683165063E+03  0.12509000000E+03 0.  0.
<mgrwt>
<rscale>  2 0.45825143E+03</rscale>
<asrwt>0</asrwt>
<pdfrwt beam="1">  1       21 0.21932769E-01 0.45825143E+03</pdfrwt>
<pdfrwt beam="2">  1       21 0.51765018E-01 0.45825143E+03</pdfrwt>
<totfact> 0.63534554E+04</totfact>
</mgrwt>
</event>
<event>
 7    0  0.4737014E-002  0.4500679E+03  0.7546771E-02  0.1027702E+00
         21   -1    0    0  502  501  0.00000000000E+00  0.00000000000E+00  0.41844313582E+02  0.41844313582E+02  0.00000000000E+00 0. -1.
         21   -1    0    0  501  502 -0.00000000000E+00 -0.00000000000E+00 -0.12102069079E+04  0.12102069079E+04  0.00000000000E+00 0. -1.
      99926    2    1    2    0    0 -0.71054273576E-14  0.00000000000E+00 -0.11683625943E+04  0.12520512214E+04  0.45006789422E+03 0.  0.
      99925    2    3    3    0    0  0.59991037592E+02 -0.58290926653E+02 -0.93137372153E+03  0.97132361213E+03  0.26270857164E+03 0.  0.
         25    1    4    4    0    0  0.58258867558E+02 -0.73011291501E+00 -0.46778723725E+03  0.48771614301E+03  0.12509000000E+03 0.  0.
         25    1    3    3    0    0 -0.59991037592E+02  0.58290926653E+02 -0.23698887276E+03  0.28072760931E+03  0.12509000000E+03 0.  0.
         25    1    4    4    0    0  0.17321700345E+01 -0.57560813738E+02 -0.46358648427E+03  0.48360746912E+03  0.12509000000E+03 0.  0.
<mgrwt>
<rscale>  2 0.45006789E+03</rscale>
<asrwt>0</asrwt>
<pdfrwt beam="1">  1       21 0.61535750E-02 0.45006789E+03</pdfrwt>
<pdfrwt beam="2">  1       21 0.17797162E+00 0.45006789E+03</pdfrwt>
<totfact> 0.31740833E+04</totfact>
</mgrwt>
</event>
<event>
 7    0  0.4737014E-002  0.4551744E+03  0.7546771E-02  0.1026190E+00
         21   -1    0    0  502  501  0.00000000000E+00  0.00000000000E+00  0.23276700171E+03  0.23276700171E+03  0.00000000000E+00 0.  1.
         21   -1    0    0  501  502 -0.00000000000E+00 -0.00000000000E+00 -0.22252271248E+03  0.22252271248E+03  0.00000000000E+00 0.  1.
      99926    2    1    2    0    0  0.00000000000E+00  0.00000000000E+00  0.10244289229E+02  0.45528971418E+03  0.45517444829E+03 0.  0.
      99925    2    3    3    0    0 -0.99619845437E+02 -0.37504128646E+02  0.45147669468E+02  0.28737179578E+03  0.26308470818E+03 0.  0.
         25    1    4    4    0    0 -0.41053814760E+02  0.17292792927E+02  0.40036422427E+02  0.13868986846E+03  0.12509000000E+03 0.  0.
         25    1    3    3    0    0  0.99619845437E+02  0.37504128646E+02 -0.34903380240E+02  0.16791791841E+03  0.12509000000E+03 0.  0.
         25    1    4    4    0    0 -0.58566030676E+02 -0.54796921572E+02  0.51112470413E+01  0.14868192731E+03  0.12509000000E+03 0.  0.
<mgrwt>
<rscale>  2 0.45517445E+03</rscale>
<asrwt>0</asrwt>
<pdfrwt beam="1">  1       21 0.34230441E-01 0.45517445E+03</pdfrwt>
<pdfrwt beam="2">  1       21 0.32723928E-01 0.45517445E+03</pdfrwt>
<totfact> 0.68429281E+04</totfact>
</mgrwt>
</event>
<event>
 7    0  0.4737014E-002  0.4624771E+03  0.7546771E-02  0.1024065E+00
         21   -1    0    0  502  501  0.00000000000E+00  0.00000000000E+00  0.54615455325E+03  0.54615455325E+03  0.00000000000E+00 0.  1.
         21   -1    0    0  501  502 -0.00000000000E+00 -0.00000000000E+00 -0.97905008818E+02  0.97905008818E+02  0.00000000000E+00 0.  1.
      99926    2    1    2    0    0  0.00000000000E+00  0.00000000000E+00  0.44824954443E+03  0.64405956207E+03  0.46247709717E+03 0.  0.
      99925    2    3    3    0    0 -0.30564708021E+02 -0.83446755992E+02  0.16750925848E+03  0.32412178887E+03  0.26286502217E+03 0.  0.
         25    1    4    4    0    0 -0.50742793886E+02 -0.26425052861E+02  0.69713254972E+02  0.15420946978E+03  0.12509000000E+03 0.  0.
         25    1    4    4    0    0  0.20178085865E+02 -0.57021703131E+02  0.97796003505E+02  0.16991231909E+03  0.12509000000E+03 0.  0.
         25    1    3    3    0    0  0.30564708021E+02  0.83446755992E+02  0.28074028595E+03  0.31993777320E+03  0.12509000000E+03 0.  0.
<mgrwt>
<rscale>  2 0.46247710E+03</rscale>
<asrwt>0</asrwt>
<pdfrwt beam="1">  1       21 0.80316845E-01 0.46247710E+03</pdfrwt>
<pdfrwt beam="2">  1       21 0.14397796E-01 0.46247710E+03</pdfrwt>
<totfact> 0.52856670E+04</totfact>
</mgrwt>
</event>
<event>
 7    0  0.4737014E-002  0.4611242E+03  0.7546771E-02  0.1024456E+00
         21   -1    0    0  502  501  0.00000000000E+00  0.00000000000E+00  0.14521065831E+03  0.14521065831E+03  0.00000000000E+00 0.  1.
         21   -1    0    0  501  502 -0.00000000000E+00 -0.00000000000E+00 -0.36608116561E+03  0.36608116561E+03  0.00000000000E+00 0.  1.
      99926    2    1    2    0    0  0.71054273576E-14  0.00000000000E+00 -0.22087050730E+03  0.51129182391E+03  0.46112422210E+03 0.  0.
      99925    2    3    3    0    0 -0.59500420969E+02 -0.39193444961E+02 -0.32968318582E+02  0.27458278976E+03  0.26312045185E+03 0.  0.
         25    1    3    3    0    0  0.59500420969E+02  0.39193444961E+02 -0.18790218872E+03  0.23670903415E+03  0.12509000000E+03 0.  0.
         25    1    4    4    0    0 -0.60120316094E+01 -0.47893164488E+02 -0.33727336890E+02  0.13825679398E+03  0.12509000000E+03 0.  0.
         25    1    4    4    0    0 -0.53488389360E+02  0.86997195272E+01  0.75901830765E+00  0.13632599578E+03  0.12509000000E+03 0.  0.
<mgrwt>
<rscale>  2 0.46112422E+03</rscale>
<asrwt>0</asrwt>
<pdfrwt beam="1">  1       21 0.21354509E-01 0.46112422E+03</pdfrwt>
<pdfrwt beam="2">  1       21 0.53835465E-01 0.46112422E+03</pdfrwt>
<totfact> 0.61443150E+04</totfact>
</mgrwt>
</event>
<event>
 7    0  0.4737014E-002  0.4503279E+03  0.7546771E-02  0.1027624E+00
         21   -1    0    0  502  501  0.00000000000E+00  0.00000000000E+00  0.13731732369E+04  0.13731732369E+04  0.00000000000E+00 0.  1.
         21   -1    0    0  501  502 -0.00000000000E+00 -0.00000000000E+00 -0.36920901992E+02  0.36920901992E+02  0.00000000000E+00 0.  1.
      99926    2    1    2    0    0  0.00000000000E+00  0.00000000000E+00  0.13362523349E+04  0.14100941389E+04  0.45032785611E+03 0.  0.
      99925    2    3    3    0    0  0.11601431357E+02  0.54788137114E+02  0.55628063215E+03  0.61817261602E+03  0.26372885378E+03 0.  0.
         25    1    3    3    0    0 -0.11601431357E+02 -0.54788137114E+02  0.77997170275E+03  0.79192152286E+03  0.12509000000E+03 0.  0.
         25    1    4    4    0    0 -0.29516113594E+02  0.45676259033E+01  0.25806854539E+03  0.28833824995E+03  0.12509000000E+03 0.  0.
         25    1    4    4    0    0  0.41117544951E+02  0.50220511210E+02  0.29821208676E+03  0.32983436607E+03  0.12509000000E+03 0.  0.
<mgrwt>
<rscale>  2 0.45032786E+03</rscale>
<asrwt>0</asrwt>
<pdfrwt beam="1">  1       21 0.20193721E+00 0.45032786E+03</pdfrwt>
<pdfrwt beam="2">  1       21 0.54295453E-02 0.45032786E+03</pdfrwt>
<totfact> 0.27032478E+04</totfact>
</mgrwt>
</event>
<event>
 7    0  0.4737014E-002  0.4588523E+03  0.7546771E-02  0.1025115E+00
         21   -1    0    0  502  501  0.00000000000E+00  0.00000000000E+00  0.11316110407E+03  0.11316110407E+03  0.00000000000E+00 0. -1.
         21   -1    0    0  501  502 -0.00000000000E+00 -0.00000000000E+00 -0.46514531014E+03  0.46514531014E+03  0.00000000000E+00 0. -1.
      99926    2    1    2    0    0  0.00000000000E+00  0.00000000000E+00 -0.35198420606E+03  0.57830641421E+03  0.45885229366E+03 0.  0.
      99925    2    3    3    0    0  0.53956697453E+02  0.10359046519E+03 -0.22119053259E+03  0.36290724337E+03  0.26293365304E+03 0.  0.
         25    1    4    4    0    0 -0.12416919960E+02  0.40807976962E+02 -0.11397259385E+03  0.17451856960E+03  0.12509000000E+03 0.  0.
         25    1    3    3    0    0 -0.53956697453E+02 -0.10359046519E+03 -0.13079367347E+03  0.21539917084E+03  0.12509000000E+03 0.  0.
         25    1    4    4    0    0  0.66373617412E+02  0.62782488230E+02 -0.10721793874E+03  0.18838867377E+03  0.12509000000E+03 0.  0.
<mgrwt>
<rscale>  2 0.45885229E+03</rscale>
<asrwt>0</asrwt>
<pdfrwt beam="1">  1       21 0.16641339E-01 0.45885229E+03</pdfrwt>
<pdfrwt beam="2">  1       21 0.68403723E-01 0.45885229E+03</pdfrwt>
<totfact> 0.58239664E+04</totfact>
</mgrwt>
</event>
<event>
 7    0  0.4737014E-002  0.4447229E+03  0.7546771E-02  0.1029308E+00
         21   -1    0    0  502  501  0.00000000000E+00  0.00000000000E+00  0.64352312560E+03  0.64352312560E+03  0.00000000000E+00 0.  1.
         21   -1    0    0  501  502 -0.00000000000E+00 -0.00000000000E+00 -0.76834245992E+02  0.76834245992E+02  0.00000000000E+00 0.  1.
      99926    2    1    2    0    0  0.00000000000E+00  0.00000000000E+00  0.56668887961E+03  0.72035737159E+03  0.44472289860E+03 0.  0.
      99925    2    3    3    0    0  0.68656612206E+02  0.75844291938E+02  0.33853256615E+03  0.44077035742E+03  0.26307436710E+03 0.  0.
         25    1    4    4    0    0  0.75359068400E+02  0.35915533433E+02  0.19228533614E+03  0.24411078085E+03  0.12509000000E+03 0.  0.
         25    1    3    3    0    0 -0.68656612206E+02 -0.75844291938E+02  0.22815631346E+03  0.27958701417E+03  0.12509000000E+03 0.  0.
         25    1    4    4    0    0 -0.67024561943E+01  0.39928758505E+02  0.14624723000E+03  0.19665957658E+03  0.12509000000E+03 0.  0.
<mgrwt>
<rscale>  2 0.44472290E+03</rscale>
<asrwt>0</asrwt>
<pdfrwt beam="1">  1       21 0.94635751E-01 0.44472290E+03</pdfrwt>
<pdfrwt beam="2">  1       21 0.11299154E-01 0.44472290E+03</pdfrwt>
<totfact> 0.56220128E+04</totfact>
</mgrwt>
</event>
<event>
 7    0  0.4737014E-002  0.4521289E+03  0.7546771E-02  0.1027089E+00
         21   -1    0    0  502  501  0.00000000000E+00  0.00000000000E+00  0.21068098981E+03  0.21068098981E+03  0.00000000000E+00 0. -1.
         21   -1    0    0  501  502 -0.00000000000E+00 -0.00000000000E+00 -0.24257122797E+03  0.24257122797E+03  0.00000000000E+00 0. -1.
      99926    2    1    2    0    0  0.14210854715E-13  0.44408920985E-15 -0.31890238164E+02  0.45325221778E+03  0.45212894801E+03 0.  0.
      99925    2    3    3    0    0  0.10575799618E+03  0.25809931192E+01  0.11482243110E+02  0.28378217466E+03  0.26307615906E+03 0.  0.
         25    1    4    4    0    0  0.19830308295E+02 -0.38327960012E+01 -0.21037631468E+02  0.12844462422E+03  0.12509000000E+03 0.  0.
         25    1    3    3    0    0 -0.10575799618E+03 -0.25809931192E+01 -0.43372481274E+02  0.16947004311E+03  0.12509000000E+03 0.  0.
         25    1    4    4    0    0  0.85927687884E+02  0.64137891204E+01  0.32519874578E+02  0.15533755045E+03  0.12509000000E+03 0.  0.
<mgrwt>
<rscale>  2 0.45212895E+03</rscale>
<asrwt>0</asrwt>
<pdfrwt beam="1">  1       21 0.30982499E-01 0.45212895E+03</pdfrwt>
<pdfrwt beam="2">  1       21 0.35672239E-01 0.45212895E+03</pdfrwt>
<totfact> 0.70270022E+04</totfact>
</mgrwt>
</event>
<event>
 7    0  0.4737014E-002  0.4529617E+03  0.7546771E-02  0.1026842E+00
         21   -1    0    0  502  501  0.00000000000E+00  0.00000000000E+00  0.43150140715E+03  0.43150140715E+03  0.00000000000E+00 0.  1.
         21   -1    0    0  501  502 -0.00000000000E+00 -0.00000000000E+00 -0.11887234291E+03  0.11887234291E+03  0.00000000000E+00 0.  1.
      99926    2    1    2    0    0  0.00000000000E+00  0.22204460493E-14  0.31262906425E+03  0.55037375006E+03  0.45296173453E+03 0.  0.
      99925    2    3    3    0    0 -0.31401840830E+02 -0.21407444634E+01  0.67528569357E+02  0.27340368112E+03  0.26305666077E+03 0.  0.
         25    1    4    4    0    0  0.13516891353E+02  0.26147785143E+02  0.24114671792E+02  0.13074952587E+03  0.12509000000E+03 0.  0.
         25    1    3    3    0    0  0.31401840830E+02  0.21407444634E+01  0.24510049489E+03  0.27697006894E+03  0.12509000000E+03 0.  0.
         25    1    4    4    0    0 -0.44918732182E+02 -0.28288529606E+02  0.43413897565E+02  0.14265415525E+03  0.12509000000E+03 0.  0.
<mgrwt>
<rscale>  2 0.45296173E+03</rscale>
<asrwt>0</asrwt>
<pdfrwt beam="1">  1       21 0.63456089E-01 0.45296173E+03</pdfrwt>
<pdfrwt beam="2">  1       21 0.17481227E-01 0.45296173E+03</pdfrwt>
<totfact> 0.62849234E+04</totfact>
</mgrwt>
</event>
<event>
 7    0  0.4737014E-002  0.4519302E+03  0.7546771E-02  0.1027148E+00
         21   -1    0    0  502  501  0.00000000000E+00  0.00000000000E+00  0.85263889606E+03  0.85263889606E+03  0.00000000000E+00 0. -1.
         21   -1    0    0  501  502 -0.00000000000E+00 -0.00000000000E+00 -0.59884947725E+02  0.59884947725E+02  0.00000000000E+00 0. -1.
      99926    2    1    2    0    0  0.14210854715E-13  0.00000000000E+00  0.79275394834E+03  0.91252384379E+03  0.45193024116E+03 0.  0.
      99925    2    3    3    0    0 -0.76969362443E+02 -0.64017030110E+01  0.65914456500E+03  0.71386775913E+03  0.26300257679E+03 0.  0.
         25    1    4    4    0    0 -0.32093242875E+02  0.87251428436E+01  0.22486133371E+03  0.25945371814E+03  0.12509000000E+03 0.  0.
         25    1    3    3    0    0  0.76969362443E+02  0.64017030110E+01  0.13360938334E+03  0.19865608466E+03  0.12509000000E+03 0.  0.
         25    1    4    4    0    0 -0.44876119568E+02 -0.15126845855E+02  0.43428323129E+03  0.45441404099E+03  0.12509000000E+03 0.  0.
<mgrwt>
<rscale>  2 0.45193024E+03</rscale>
<asrwt>0</asrwt>
<pdfrwt beam="1">  1       21 0.12538807E+00 0.45193024E+03</pdfrwt>
<pdfrwt beam="2">  1       21 0.88066104E-02 0.45193024E+03</pdfrwt>
<totfact> 0.43737823E+04</totfact>
</mgrwt>
</event>
<event>
 7    0  0.4737014E-002  0.4574549E+03  0.7546771E-02  0.1025522E+00
         21   -1    0    0  502  501  0.00000000000E+00  0.00000000000E+00  0.19060160440E+03  0.19060160440E+03  0.00000000000E+00 0. -1.
         21   -1    0    0  501  502 -0.00000000000E+00 -0.00000000000E+00 -0.27447957030E+03  0.27447957030E+03  0.00000000000E+00 0. -1.
      99926    2    1    2    0    0  0.00000000000E+00  0.44408920985E-15 -0.83877965895E+02  0.46508117470E+03  0.45745490040E+03 0.  0.
      99925    2    3    3    0    0 -0.74243237775E+02  0.20000224575E+01  0.36761766596E+02  0.27609040349E+03  0.26335987730E+03 0.  0.
         25    1    3    3    0    0  0.74243237775E+02 -0.20000224575E+01 -0.12063973249E+03  0.18899077121E+03  0.12509000000E+03 0.  0.
         25    1    4    4    0    0 -0.51710685441E+02 -0.19912777929E+01  0.57802202280E+02  0.14719566184E+03  0.12509000000E+03 0.  0.
         25    1    4    4    0    0 -0.22532552334E+02  0.39913002504E+01 -0.21040435684E+02  0.12889474165E+03  0.12509000000E+03 0.  0.
<mgrwt>
<rscale>  2 0.45745490E+03</rscale>
<asrwt>0</asrwt>
<pdfrwt beam="1">  1       21 0.28029648E-01 0.45745490E+03</pdfrwt>
<pdfrwt beam="2">  1       21 0.40364642E-01 0.45745490E+03</pdfrwt>
<totfact> 0.66496940E+04</totfact>
</mgrwt>
</event>
<event>
 7    0  0.4737014E-002  0.4286202E+03  0.7546771E-02  0.1034297E+00
         21   -1    0    0  502  501  0.00000000000E+00  0.00000000000E+00  0.88006697256E+02  0.88006697256E+02  0.00000000000E+00 0. -1.
         21   -1    0    0  501  502 -0.00000000000E+00 -0.00000000000E+00 -0.52187864226E+03  0.52187864226E+03  0.00000000000E+00 0. -1.
      99926    2    1    2    0    0  0.00000000000E+00  0.00000000000E+00 -0.43387194500E+03  0.60988533951E+03  0.42862018466E+03 0.  0.
      99925    2    3    3    0    0  0.80142217538E+02  0.29853194919E+02 -0.29409411239E+03  0.40373166172E+03  0.26304737112E+03 0.  0.
         25    1    3    3    0    0 -0.80142217538E+02 -0.29853194919E+02 -0.13977783261E+03  0.20615367779E+03  0.12509000000E+03 0.  0.
         25    1    4    4    0    0  0.57093834178E+02  0.44862778559E+02 -0.18938203185E+03  0.23829695107E+03  0.12509000000E+03 0.  0.
         25    1    4    4    0    0  0.23048383359E+02 -0.15009583640E+02 -0.10471208054E+03  0.16543471065E+03  0.12509000000E+03 0.  0.
<mgrwt>
<rscale>  2 0.42862018E+03</rscale>
<asrwt>0</asrwt>
<pdfrwt beam="1">  1       21 0.12942162E-01 0.42862018E+03</pdfrwt>
<pdfrwt beam="2">  1       21 0.76746857E-01 0.42862018E+03</pdfrwt>
<totfact> 0.71928556E+04</totfact>
</mgrwt>
</event>
<event>
 7    0  0.4737014E-002  0.4449181E+03  0.7546771E-02  0.1029248E+00
         21   -1    0    0  502  501  0.00000000000E+00  0.00000000000E+00  0.50132278886E+03  0.50132278886E+03  0.00000000000E+00 0.  1.
         21   -1    0    0  501  502 -0.00000000000E+00 -0.00000000000E+00 -0.98714920978E+02  0.98714920978E+02  0.00000000000E+00 0.  1.
      99926    2    1    2    0    0  0.14210854715E-13  0.00000000000E+00  0.40260786788E+03  0.60003770984E+03  0.44491814747E+03 0.  0.
      99925    2    3    3    0    0  0.85761905875E+02 -0.53680570379E+02  0.22657659812E+03  0.36156082591E+03  0.26296875837E+03 0.  0.
         25    1    3    3    0    0 -0.85761905875E+02  0.53680570379E+02  0.17603126976E+03  0.23847688393E+03  0.12509000000E+03 0.  0.
         25    1    4    4    0    0  0.36598427834E+02 -0.37537440625E+01  0.65499604219E+02  0.14591518690E+03  0.12509000000E+03 0.  0.
         25    1    4    4    0    0  0.49163478041E+02 -0.49926826316E+02  0.16107699391E+03  0.21564563901E+03  0.12509000000E+03 0.  0.
<mgrwt>
<rscale>  2 0.44491815E+03</rscale>
<asrwt>0</asrwt>
<pdfrwt beam="1">  1       21 0.73723939E-01 0.44491815E+03</pdfrwt>
<pdfrwt beam="2">  1       21 0.14516900E-01 0.44491815E+03</pdfrwt>
<totfact> 0.63592021E+04</totfact>
</mgrwt>
</event>
<event>
 7    0  0.4737014E-002  0.4546994E+03  0.7546771E-02  0.1026330E+00
         21   -1    0    0  502  501  0.00000000000E+00  0.00000000000E+00  0.26534143625E+02  0.26534143625E+02  0.00000000000E+00 0.  1.
         21   -1    0    0  501  502 -0.00000000000E+00 -0.00000000000E+00 -0.19479762080E+04  0.19479762080E+04  0.00000000000E+00 0.  1.
      99926    2    1    2    0    0  0.00000000000E+00  0.00000000000E+00 -0.19214420644E+04  0.19745103517E+04  0.45469937534E+03 0.  0.
      99925    2    3    3    0    0  0.42405876415E+02  0.78911791701E+02 -0.91428157689E+03  0.95566537575E+03  0.26336320802E+03 0.  0.
         25    1    4    4    0    0  0.51409112074E+02  0.68434672010E+02 -0.53446623026E+03  0.55554285211E+03  0.12509000000E+03 0.  0.
         25    1    4    4    0    0 -0.90032356597E+01  0.10477119692E+02 -0.37981534663E+03  0.40012252364E+03  0.12509000000E+03 0.  0.
         25    1    3    3    0    0 -0.42405876415E+02 -0.78911791701E+02 -0.10071604875E+04  0.10188449759E+04  0.12509000000E+03 0.  0.
<mgrwt>
<rscale>  2 0.45469938E+03</rscale>
<asrwt>0</asrwt>
<pdfrwt beam="1">  1       21 0.39020792E-02 0.45469938E+03</pdfrwt>
<pdfrwt beam="2">  1       21 0.28646714E+00 0.45469938E+03</pdfrwt>
<totfact> 0.14163482E+04</totfact>
</mgrwt>
</event>
<event>
 7    0  0.4737014E-002  0.4571755E+03  0.7546771E-02  0.1025604E+00
         21   -1    0    0  502  501  0.00000000000E+00  0.00000000000E+00  0.59128968192E+03  0.59128968192E+03  0.00000000000E+00 0.  1.
         21   -1    0    0  501  502 -0.00000000000E+00 -0.00000000000E+00 -0.88370169940E+02  0.88370169940E+02  0.00000000000E+00 0.  1.
      99926    2    1    2    0    0 -0.14210854715E-13  0.71054273576E-14  0.50291951198E+03  0.67965985186E+03  0.45717554473E+03 0.  0.
      99925    2    3    3    0    0  0.10251784317E+03 -0.22512656505E+02  0.24576855030E+03  0.37504394114E+03  0.26313314044E+03 0.  0.
         25    1    3    3    0    0 -0.10251784317E+03  0.22512656505E+02  0.25715096168E+03  0.30461591072E+03  0.12509000000E+03 0.  0.
         25    1    4    4    0    0  0.69055121640E+02 -0.49039589832E+02  0.13461277360E+03  0.20234030274E+03  0.12509000000E+03 0.  0.
         25    1    4    4    0    0  0.33462721526E+02  0.26526933327E+02  0.11115577670E+03  0.17270363840E+03  0.12509000000E+03 0.  0.
<mgrwt>
<rscale>  2 0.45717554E+03</rscale>
<asrwt>0</asrwt>
<pdfrwt beam="1">  1       21 0.86954363E-01 0.45717554E+03</pdfrwt>
<pdfrwt beam="2">  1       21 0.12995614E-01 0.45717554E+03</pdfrwt>
<totfact> 0.53105678E+04</totfact>
</mgrwt>
</event>
<event>
 7    0  0.4737014E-002  0.4769474E+03  0.7546771E-02  0.1019977E+00
         21   -1    0    0  502  501  0.00000000000E+00  0.00000000000E+00  0.15855760371E+03  0.15855760371E+03  0.00000000000E+00 0. -1.
         21   -1    0    0  501  502 -0.00000000000E+00 -0.00000000000E+00 -0.35866912523E+03  0.35866912523E+03  0.00000000000E+00 0. -1.
      99926    2    1    2    0    0  0.00000000000E+00  0.71054273576E-14 -0.20011152152E+03  0.51722672893E+03  0.47694744792E+03 0.  0.
      99925    2    3    3    0    0  0.61215007057E+02 -0.61662023632E+02 -0.15406095605E+02  0.27782521535E+03  0.26343883589E+03 0.  0.
         25    1    4    4    0    0  0.38043998019E+02 -0.65601892638E+02  0.14746185584E+02  0.14702350898E+03  0.12509000000E+03 0.  0.
         25    1    4    4    0    0  0.23171009037E+02  0.39398690062E+01 -0.30152281189E+02  0.13080170637E+03  0.12509000000E+03 0.  0.
         25    1    3    3    0    0 -0.61215007057E+02  0.61662023632E+02 -0.18470542591E+03  0.23940151359E+03  0.12509000000E+03 0.  0.
<mgrwt>
<rscale>  2 0.47694745E+03</rscale>
<asrwt>0</asrwt>
<pdfrwt beam="1">  1       21 0.23317295E-01 0.47694745E+03</pdfrwt>
<pdfrwt beam="2">  1       21 0.52745458E-01 0.47694745E+03</pdfrwt>
<totfact> 0.54032598E+04</totfact>
</mgrwt>
</event>
<event>
 7    0  0.4737014E-002  0.4470986E+03  0.7546771E-02  0.1028591E+00
         21   -1    0    0  502  501  0.00000000000E+00  0.00000000000E+00  0.61587162465E+03  0.61587162465E+03  0.00000000000E+00 0. -1.
         21   -1    0    0  501  502 -0.00000000000E+00 -0.00000000000E+00 -0.81144004677E+02  0.81144004677E+02  0.00000000000E+00 0. -1.
      99926    2    1    2    0    0  0.00000000000E+00  0.00000000000E+00  0.53472761997E+03  0.69701562933E+03  0.44709860206E+03 0.  0.
      99925    2    3    3    0    0 -0.10536110726E+03 -0.63184205678E+01  0.33295381913E+03  0.43720596791E+03  0.26296373768E+03 0.  0.
         25    1    4    4    0    0 -0.85498938258E+02 -0.38141765596E+01  0.22199738896E+03  0.26880283702E+03  0.12509000000E+03 0.  0.
         25    1    3    3    0    0  0.10536110726E+03  0.63184205678E+01  0.20177380084E+03  0.25980966142E+03  0.12509000000E+03 0.  0.
         25    1    4    4    0    0 -0.19862169003E+02 -0.25042440082E+01  0.11095643018E+03  0.16840313089E+03  0.12509000000E+03 0.  0.
<mgrwt>
<rscale>  2 0.44709860E+03</rscale>
<asrwt>0</asrwt>
<pdfrwt beam="1">  1       21 0.90569354E-01 0.44709860E+03</pdfrwt>
<pdfrwt beam="2">  1       21 0.11932942E-01 0.44709860E+03</pdfrwt>
<totfact> 0.56497555E+04</totfact>
</mgrwt>
</event>
<event>
 7    0  0.4737014E-002  0.4644260E+03  0.7546771E-02  0.1023505E+00
         21   -1    0    0  502  501  0.00000000000E+00  0.00000000000E+00  0.87707223209E+02  0.87707223209E+02  0.00000000000E+00 0. -1.
         21   -1    0    0  501  502 -0.00000000000E+00 -0.00000000000E+00 -0.61480533896E+03  0.61480533896E+03  0.00000000000E+00 0. -1.
      99926    2    1    2    0    0  0.00000000000E+00  0.00000000000E+00 -0.52709811575E+03  0.70251256216E+03  0.46442596436E+03 0.  0.
      99925    2    3    3    0    0 -0.45279381515E+02  0.45828605436E+02 -0.17258753493E+03  0.32109973664E+03  0.26299828933E+03 0.  0.
         25    1    4    4    0    0 -0.31644852593E+02  0.26194426130E+02 -0.40816142781E+02  0.13784415210E+03  0.12509000000E+03 0.  0.
         25    1    3    3    0    0  0.45279381515E+02 -0.45828605436E+02 -0.35451058082E+03  0.38141282553E+03  0.12509000000E+03 0.  0.
         25    1    4    4    0    0 -0.13634528921E+02  0.19634179306E+02 -0.13177139215E+03  0.18325558454E+03  0.12509000000E+03 0.  0.
<mgrwt>
<rscale>  2 0.46442596E+03</rscale>
<asrwt>0</asrwt>
<pdfrwt beam="1">  1       21 0.12898121E-01 0.46442596E+03</pdfrwt>
<pdfrwt beam="2">  1       21 0.90412551E-01 0.46442596E+03</pdfrwt>
<totfact> 0.49027509E+04</totfact>
</mgrwt>
</event>
<event>
 7    0  0.4737014E-002  0.4496556E+03  0.7546771E-02  0.1027825E+00
         21   -1    0    0  502  501  0.00000000000E+00  0.00000000000E+00  0.25071854297E+03  0.25071854297E+03  0.00000000000E+00 0. -1.
         21   -1    0    0  501  502 -0.00000000000E+00 -0.00000000000E+00 -0.20161067637E+03  0.20161067637E+03  0.00000000000E+00 0. -1.
      99926    2    1    2    0    0  0.00000000000E+00  0.00000000000E+00  0.49107866594E+02  0.45232921934E+03  0.44965557943E+03 0.  0.
      99925    2    3    3    0    0 -0.46938180285E+02 -0.95972340933E+02  0.47859442918E+02  0.28782101391E+03  0.26293825659E+03 0.  0.
         25    1    4    4    0    0 -0.15286792955E+02 -0.69947644598E+01  0.10215214279E+02  0.12662729355E+03  0.12509000000E+03 0.  0.
         25    1    4    4    0    0 -0.31651387330E+02 -0.88977576473E+02  0.37644228638E+02  0.16119372036E+03  0.12509000000E+03 0.  0.
         25    1    3    3    0    0  0.46938180285E+02  0.95972340933E+02  0.12484236766E+01  0.16450820543E+03  0.12509000000E+03 0.  0.
<mgrwt>
<rscale>  2 0.44965558E+03</rscale>
<asrwt>0</asrwt>
<pdfrwt beam="1">  1       21 0.36870374E-01 0.44965558E+03</pdfrwt>
<pdfrwt beam="2">  1       21 0.29648629E-01 0.44965558E+03</pdfrwt>
<totfact> 0.71752953E+04</totfact>
</mgrwt>
</event>
<event>
 7    0  0.4737014E-002  0.4542158E+03  0.7546771E-02  0.1026472E+00
         21   -1    0    0  502  501  0.00000000000E+00  0.00000000000E+00  0.12047206403E+03  0.12047206403E+03  0.00000000000E+00 0. -1.
         21   -1    0    0  501  502 -0.00000000000E+00 -0.00000000000E+00 -0.42813251186E+03  0.42813251186E+03  0.00000000000E+00 0. -1.
      99926    2    1    2    0    0  0.00000000000E+00 -0.35527136788E-14 -0.30766044783E+03  0.54860457589E+03  0.45421584024E+03 0.  0.
      99925    2    3    3    0    0 -0.10702171406E+03 -0.25727823508E+02 -0.16622313550E+03  0.33004659822E+03  0.26303052682E+03 0.  0.
         25    1    4    4    0    0 -0.45558148624E+02  0.15683560422E+02 -0.11263955359E+03  0.17509053688E+03  0.12509000000E+03 0.  0.
         25    1    4    4    0    0 -0.61463565434E+02 -0.41411383930E+02 -0.53583581907E+02  0.15495606134E+03  0.12509000000E+03 0.  0.
         25    1    3    3    0    0  0.10702171406E+03  0.25727823508E+02 -0.14143731233E+03  0.21855797767E+03  0.12509000000E+03 0.  0.
<mgrwt>
<rscale>  2 0.45421584E+03</rscale>
<asrwt>0</asrwt>
<pdfrwt beam="1">  1       21 0.17716480E-01 0.45421584E+03</pdfrwt>
<pdfrwt beam="2">  1       21 0.62960664E-01 0.45421584E+03</pdfrwt>
<totfact> 0.62344729E+04</totfact>
</mgrwt>
</event>
<event>
 7    0  0.4737014E-002  0.4168266E+03  0.7546771E-02  0.1038104E+00
         21   -1    0    0  502  501  0.00000000000E+00  0.00000000000E+00  0.37854947745E+03  0.37854947745E+03  0.00000000000E+00 0.  1.
         21   -1    0    0  501  502 -0.00000000000E+00 -0.00000000000E+00 -0.11474353607E+03  0.11474353607E+03  0.00000000000E+00 0.  1.
      99926    2    1    2    0    0 -0.35527136788E-14  0.35527136788E-14  0.26380594138E+03  0.49329301352E+03  0.41682660962E+03 0.  0.
      99925    2    3    3    0    0  0.19876780009E+02 -0.30786173938E+02  0.99457401278E+02  0.28352927590E+03  0.26297186301E+03 0.  0.
         25    1    4    4    0    0  0.39651028522E+02 -0.27997892525E+02  0.24672556900E+02  0.13642701057E+03  0.12509000000E+03 0.  0.
         25    1    4    4    0    0 -0.19774248513E+02 -0.27882814127E+01  0.74784844378E+02  0.14710226533E+03  0.12509000000E+03 0.  0.
         25    1    3    3    0    0 -0.19876780009E+02  0.30786173938E+02  0.16434854010E+03  0.20976373762E+03  0.12509000000E+03 0.  0.
<mgrwt>
<rscale>  2 0.41682661E+03</rscale>
<asrwt>0</asrwt>
<pdfrwt beam="1">  1       21 0.55669040E-01 0.41682661E+03</pdfrwt>
<pdfrwt beam="2">  1       21 0.16874050E-01 0.41682661E+03</pdfrwt>
<totfact> 0.90081306E+04</totfact>
</mgrwt>
</event>
<event>
 7    0  0.4737014E-002  0.4520452E+03  0.7546771E-02  0.1027114E+00
         21   -1    0    0  502  501  0.00000000000E+00  0.00000000000E+00  0.22932491345E+02  0.22932491345E+02  0.00000000000E+00 0.  1.
         21   -1    0    0  501  502 -0.00000000000E+00 -0.00000000000E+00 -0.22276785929E+04  0.22276785929E+04  0.00000000000E+00 0.  1.
      99926    2    1    2    0    0  0.00000000000E+00 -0.71054273576E-14 -0.22047461015E+04  0.22506110842E+04  0.45204521920E+03 0.  0.
      99925    2    3    3    0    0 -0.24874677839E+02 -0.63722547574E+02 -0.18226683768E+04  0.18427995977E+04  0.26288977348E+03 0.  0.
         25    1    4    4    0    0 -0.44913455554E+02 -0.54788968079E+02 -0.89317597765E+03  0.90467114725E+03  0.12509000000E+03 0.  0.
         25    1    4    4    0    0  0.20038777715E+02 -0.89335794948E+01 -0.92949239913E+03  0.93812845048E+03  0.12509000000E+03 0.  0.
         25    1    3    3    0    0  0.24874677839E+02  0.63722547574E+02 -0.38207772476E+03  0.40781148650E+03  0.12509000000E+03 0.  0.
<mgrwt>
<rscale>  2 0.45204522E+03</rscale>
<asrwt>0</asrwt>
<pdfrwt beam="1">  1       21 0.33724260E-02 0.45204522E+03</pdfrwt>
<pdfrwt beam="2">  1       21 0.32759972E+00 0.45204522E+03</pdfrwt>
<totfact> 0.10266241E+04</totfact>
</mgrwt>
</event>
<event>
 7    0  0.4737014E-002  0.4544050E+03  0.7546771E-02  0.1026417E+00
         21   -1    0    0  502  501  0.00000000000E+00  0.00000000000E+00  0.45125342938E+02  0.45125342938E+02  0.00000000000E+00 0. -1.
         21   -1    0    0  501  502 -0.00000000000E+00 -0.00000000000E+00 -0.11439462545E+04  0.11439462545E+04  0.00000000000E+00 0. -1.
      99926    2    1    2    0    0  0.00000000000E+00 -0.71054273576E-14 -0.10988209115E+04  0.11890715974E+04  0.45440496052E+03 0.  0.
      99925    2    3    3    0    0  0.53836666991E+02 -0.50490529314E+02 -0.46946516969E+03  0.54317389796E+03  0.26304497260E+03 0.  0.
         25    1    4    4    0    0  0.25915079574E+02 -0.65659180607E+02 -0.26377013613E+03  0.30034132609E+03  0.12509000000E+03 0.  0.
         25    1    3    3    0    0 -0.53836666991E+02  0.50490529314E+02 -0.62935574185E+03  0.64589769945E+03  0.12509000000E+03 0.  0.
         25    1    4    4    0    0  0.27921587417E+02  0.15168651293E+02 -0.20569503356E+03  0.24283257186E+03  0.12509000000E+03 0.  0.
<mgrwt>
<rscale>  2 0.45440496E+03</rscale>
<asrwt>0</asrwt>
<pdfrwt beam="1">  1       21 0.66360801E-02 0.45440496E+03</pdfrwt>
<pdfrwt beam="2">  1       21 0.16822738E+00 0.45440496E+03</pdfrwt>
<totfact> 0.32655366E+04</totfact>
</mgrwt>
</event>
<event>
 6    0  0.4737014E-002  0.5885205E+03  0.7546771E-02  0.9929513E-01
         21   -1    0    0  502  501  0.00000000000E+00  0.00000000000E+00  0.14916065193E+03  0.14916065193E+03  0.00000000000E+00 0.  1.
         21   -1    0    0  501  502 -0.00000000000E+00 -0.00000000000E+00 -0.58050897875E+03  0.58050897875E+03  0.00000000000E+00 0.  1.
      99925    2    1    2    0    0  0.42585813979E+02 -0.31255107297E+02 -0.50743643026E+03  0.57401828674E+03  0.26308711384E+03 0.  0.
         25    1    3    3    0    0  0.46526490260E+02 -0.22247667350E+02 -0.19515556797E+03  0.23747184424E+03  0.12509000000E+03 0.  0.
         25    1    1    2    0    0 -0.42585813979E+02  0.31255107297E+02  0.76088103442E+02  0.15565134394E+03  0.12509000000E+03 0.  0.
         25    1    3    3    0    0 -0.39406762814E+01 -0.90074399472E+01 -0.31228086229E+03  0.33654644249E+03  0.12509000000E+03 0.  0.
<mgrwt>
<rscale>  2 0.58852051E+03</rscale>
<asrwt>0</asrwt>
<pdfrwt beam="1">  1       21 0.21935390E-01 0.58852051E+03</pdfrwt>
<pdfrwt beam="2">  1       21 0.85368968E-01 0.58852051E+03</pdfrwt>
<totfact> 0.20162286E+04</totfact>
</mgrwt>
</event>
<event>
 7    0  0.4737014E-002  0.4559301E+03  0.7546771E-02  0.1025968E+00
         21   -1    0    0  502  501  0.00000000000E+00  0.00000000000E+00  0.12919809013E+03  0.12919809013E+03  0.00000000000E+00 0. -1.
         21   -1    0    0  501  502 -0.00000000000E+00 -0.00000000000E+00 -0.40223557947E+03  0.40223557947E+03  0.00000000000E+00 0. -1.
      99926    2    1    2    0    0  0.14210854715E-13  0.71054273576E-14 -0.27303748934E+03  0.53143366960E+03  0.45593012031E+03 0.  0.
      99925    2    3    3    0    0 -0.91972521412E+02 -0.63702285665E+02 -0.19747308300E+03  0.34738363972E+03  0.26298830534E+03 0.  0.
         25    1    4    4    0    0 -0.11186489737E+02 -0.21142161829E+02 -0.62113710301E+02  0.14169597618E+03  0.12509000000E+03 0.  0.
         25    1    3    3    0    0  0.91972521412E+02  0.63702285665E+02 -0.75564406345E+02  0.18405002988E+03  0.12509000000E+03 0.  0.
         25    1    4    4    0    0 -0.80786031674E+02 -0.42560123836E+02 -0.13535937269E+03  0.20568766354E+03  0.12509000000E+03 0.  0.
<mgrwt>
<rscale>  2 0.45593012E+03</rscale>
<asrwt>0</asrwt>
<pdfrwt beam="1">  1       21 0.18999719E-01 0.45593012E+03</pdfrwt>
<pdfrwt beam="2">  1       21 0.59152291E-01 0.45593012E+03</pdfrwt>
<totfact> 0.62646471E+04</totfact>
</mgrwt>
</event>
<event>
 7    0  0.4737014E-002  0.4573933E+03  0.7546771E-02  0.1025540E+00
         21   -1    0    0  502  501  0.00000000000E+00  0.00000000000E+00  0.24339974994E+03  0.24339974994E+03  0.00000000000E+00 0.  1.
         21   -1    0    0  501  502 -0.00000000000E+00 -0.00000000000E+00 -0.21488169353E+03  0.21488169353E+03  0.00000000000E+00 0.  1.
      99926    2    1    2    0    0  0.71054273576E-14 -0.14210854715E-13  0.28518056409E+02  0.45828144346E+03  0.45739326830E+03 0.  0.
      99925    2    3    3    0    0  0.57236261502E+02 -0.98695471052E+02  0.35077877493E+02  0.28884908236E+03  0.26303336148E+03 0.  0.
         25    1    3    3    0    0 -0.57236261502E+02  0.98695471052E+02 -0.65598210836E+01  0.16943236110E+03  0.12509000000E+03 0.  0.
         25    1    4    4    0    0  0.15387096977E+02 -0.80160353651E+01  0.83282183326E+01  0.12656179083E+03  0.12509000000E+03 0.  0.
         25    1    4    4    0    0  0.41849164524E+02 -0.90679435687E+02  0.26749659160E+02  0.16228729153E+03  0.12509000000E+03 0.  0.
<mgrwt>
<rscale>  2 0.45739327E+03</rscale>
<asrwt>0</asrwt>
<pdfrwt beam="1">  1       21 0.35794081E-01 0.45739327E+03</pdfrwt>
<pdfrwt beam="2">  1       21 0.31600249E-01 0.45739327E+03</pdfrwt>
<totfact> 0.67017204E+04</totfact>
</mgrwt>
</event>
<event>
 7    0  0.4737014E-002  0.4648896E+03  0.7546771E-02  0.1023373E+00
         21   -1    0    0  502  501  0.00000000000E+00  0.00000000000E+00  0.24078513415E+03  0.24078513415E+03  0.00000000000E+00 0. -1.
         21   -1    0    0  501  502 -0.00000000000E+00 -0.00000000000E+00 -0.22439339626E+03  0.22439339626E+03  0.00000000000E+00 0. -1.
      99926    2    1    2    0    0  0.00000000000E+00  0.00000000000E+00  0.16391737889E+02  0.46517853041E+03  0.46488963860E+03 0.  0.
      99925    2    3    3    0    0 -0.64256694707E+02 -0.99379553922E+02  0.41203835050E+02  0.29120046622E+03  0.26285877758E+03 0.  0.
         25    1    4    4    0    0 -0.45529734370E+02 -0.45388172354E+02 -0.17387261120E+02  0.14171403548E+03  0.12509000000E+03 0.  0.
         25    1    3    3    0    0  0.64256694707E+02  0.99379553922E+02 -0.24812097161E+02  0.17397806419E+03  0.12509000000E+03 0.  0.
         25    1    4    4    0    0 -0.18726960336E+02 -0.53991381568E+02  0.58591096170E+02  0.14948643075E+03  0.12509000000E+03 0.  0.
<mgrwt>
<rscale>  2 0.46488964E+03</rscale>
<asrwt>0</asrwt>
<pdfrwt beam="1">  1       21 0.35409579E-01 0.46488964E+03</pdfrwt>
<pdfrwt beam="2">  1       21 0.32999029E-01 0.46488964E+03</pdfrwt>
<totfact> 0.62710097E+04</totfact>
</mgrwt>
</event>
<event>
 7    0  0.4737014E-002  0.4550473E+03  0.7546771E-02  0.1026227E+00
         21   -1    0    0  502  501  0.00000000000E+00  0.00000000000E+00  0.97233082558E+02  0.97233082558E+02  0.00000000000E+00 0.  1.
         21   -1    0    0  501  502 -0.00000000000E+00 -0.00000000000E+00 -0.53240124233E+03  0.53240124233E+03  0.00000000000E+00 0.  1.
      99926    2    1    2    0    0 -0.14210854715E-13 -0.71054273576E-14 -0.43516815977E+03  0.62963432489E+03  0.45504731160E+03 0.  0.
      99925    2    3    3    0    0 -0.10396532556E+03 -0.44568561331E+02 -0.27951702143E+03  0.40013502087E+03  0.26302685049E+03 0.  0.
         25    1    4    4    0    0 -0.11629402255E+02 -0.31369808971E+02 -0.14166383265E+03  0.19192565616E+03  0.12509000000E+03 0.  0.
         25    1    4    4    0    0 -0.92335923303E+02 -0.13198752359E+02 -0.13785318878E+03  0.20820936471E+03  0.12509000000E+03 0.  0.
         25    1    3    3    0    0  0.10396532556E+03  0.44568561331E+02 -0.15565113834E+03  0.22949930402E+03  0.12509000000E+03 0.  0.
<mgrwt>
<rscale>  2 0.45504731E+03</rscale>
<asrwt>0</asrwt>
<pdfrwt beam="1">  1       21 0.14298983E-01 0.45504731E+03</pdfrwt>
<pdfrwt beam="2">  1       21 0.78294301E-01 0.45504731E+03</pdfrwt>
<totfact> 0.56869044E+04</totfact>
</mgrwt>
</event>
<event>
 7    0  0.4737014E-002  0.4524407E+03  0.7546771E-02  0.1026997E+00
         21   -1    0    0  502  501  0.00000000000E+00  0.00000000000E+00  0.96158352159E+02  0.96158352159E+02  0.00000000000E+00 0.  1.
         21   -1    0    0  501  502 -0.00000000000E+00 -0.00000000000E+00 -0.53220169595E+03  0.53220169595E+03  0.00000000000E+00 0.  1.
      99926    2    1    2    0    0  0.00000000000E+00 -0.14210854715E-13 -0.43604334379E+03  0.62836004811E+03  0.45244066174E+03 0.  0.
      99925    2    3    3    0    0  0.25023385906E+02 -0.87374535020E+02 -0.36277186191E+03  0.45725570167E+03  0.26309479985E+03 0.  0.
         25    1    4    4    0    0  0.41600926810E+02 -0.70768730166E+02 -0.21917372025E+03  0.26537422262E+03  0.12509000000E+03 0.  0.
         25    1    3    3    0    0 -0.25023385906E+02  0.87374535020E+02 -0.73271481883E+02  0.17110434644E+03  0.12509000000E+03 0.  0.
         25    1    4    4    0    0 -0.16577540904E+02 -0.16605804854E+02 -0.14359814165E+03  0.19188147905E+03  0.12509000000E+03 0.  0.
<mgrwt>
<rscale>  2 0.45244066E+03</rscale>
<asrwt>0</asrwt>
<pdfrwt beam="1">  1       21 0.14140934E-01 0.45244066E+03</pdfrwt>
<pdfrwt beam="2">  1       21 0.78264955E-01 0.45244066E+03</pdfrwt>
<totfact> 0.58131351E+04</totfact>
</mgrwt>
</event>
<event>
 7    0  0.4737014E-002  0.4525510E+03  0.7546771E-02  0.1026964E+00
         21   -1    0    0  502  501  0.00000000000E+00  0.00000000000E+00  0.15264787655E+03  0.15264787655E+03  0.00000000000E+00 0. -1.
         21   -1    0    0  501  502 -0.00000000000E+00 -0.00000000000E+00 -0.33541637545E+03  0.33541637545E+03  0.00000000000E+00 0. -1.
      99926    2    1    2    0    0  0.00000000000E+00  0.00000000000E+00 -0.18276849890E+03  0.48806425200E+03  0.45255098043E+03 0.  0.
      99925    2    3    3    0    0 -0.71421956279E+02  0.16787258399E+02 -0.25682548917E+02  0.27427367300E+03  0.26302765349E+03 0.  0.
         25    1    4    4    0    0 -0.49750202557E+02 -0.28602464786E+01 -0.49799978600E+02  0.14356465315E+03  0.12509000000E+03 0.  0.
         25    1    3    3    0    0  0.71421956279E+02 -0.16787258399E+02 -0.15708594999E+03  0.21379057899E+03  0.12509000000E+03 0.  0.
         25    1    4    4    0    0 -0.21671753722E+02  0.19647504878E+02  0.24117429683E+02  0.13070901986E+03  0.12509000000E+03 0.  0.
<mgrwt>
<rscale>  2 0.45255098E+03</rscale>
<asrwt>0</asrwt>
<pdfrwt beam="1">  1       21 0.22448217E-01 0.45255098E+03</pdfrwt>
<pdfrwt beam="2">  1       21 0.49325938E-01 0.45255098E+03</pdfrwt>
<totfact> 0.67418853E+04</totfact>
</mgrwt>
</event>
<event>
 7    0  0.4737014E-002  0.4492611E+03  0.7546771E-02  0.1027943E+00
         21   -1    0    0  502  501  0.00000000000E+00  0.00000000000E+00  0.90175012345E+02  0.90175012345E+02  0.00000000000E+00 0. -1.
         21   -1    0    0  501  502 -0.00000000000E+00 -0.00000000000E+00 -0.55956615491E+03  0.55956615491E+03  0.00000000000E+00 0. -1.
      99926    2    1    2    0    0  0.00000000000E+00 -0.88817841970E-15 -0.46939114257E+03  0.64974116726E+03  0.44926110416E+03 0.  0.
      99925    2    3    3    0    0 -0.34533043939E+02 -0.63638834846E+01 -0.44425973359E+03  0.51740777784E+03  0.26288983917E+03 0.  0.
         25    1    4    4    0    0 -0.66756128045E+01  0.85951557037E+01 -0.14682015944E+03  0.19318930567E+03  0.12509000000E+03 0.  0.
         25    1    4    4    0    0 -0.27857431135E+02 -0.14959039188E+02 -0.29743957416E+03  0.32421847217E+03  0.12509000000E+03 0.  0.
         25    1    3    3    0    0  0.34533043939E+02  0.63638834846E+01 -0.25131408970E+02  0.13233338941E+03  0.12509000000E+03 0.  0.
<mgrwt>
<rscale>  2 0.44926110E+03</rscale>
<asrwt>0</asrwt>
<pdfrwt beam="1">  1       21 0.13261031E-01 0.44926110E+03</pdfrwt>
<pdfrwt beam="2">  1       21 0.82289139E-01 0.44926110E+03</pdfrwt>
<totfact> 0.58311798E+04</totfact>
</mgrwt>
</event>
<event>
 7    0  0.4737014E-002  0.4551381E+03  0.7546771E-02  0.1026201E+00
         21   -1    0    0  502  501  0.00000000000E+00  0.00000000000E+00  0.51690246013E+03  0.51690246013E+03  0.00000000000E+00 0. -1.
         21   -1    0    0  501  502 -0.00000000000E+00 -0.00000000000E+00 -0.10018848333E+03  0.10018848333E+03  0.00000000000E+00 0. -1.
      99926    2    1    2    0    0  0.14210854715E-13 -0.35527136788E-14  0.41671397680E+03  0.61709094346E+03  0.45513810435E+03 0.  0.
      99925    2    3    3    0    0 -0.89214739522E+02  0.29318320801E+02  0.17614803650E+03  0.33014440939E+03  0.26296077009E+03 0.  0.
         25    1    4    4    0    0 -0.43017328376E+02 -0.13730965498E+02  0.12020674316E+03  0.17926572220E+03  0.12509000000E+03 0.  0.
         25    1    3    3    0    0  0.89214739522E+02 -0.29318320801E+02  0.24056594030E+03  0.28694653407E+03  0.12509000000E+03 0.  0.
         25    1    4    4    0    0 -0.46197411146E+02  0.43049286299E+02  0.55941293343E+02  0.15087868719E+03  0.12509000000E+03 0.  0.
<mgrwt>
<rscale>  2 0.45513810E+03</rscale>
<asrwt>0</asrwt>
<pdfrwt beam="1">  1       21 0.76015067E-01 0.45513810E+03</pdfrwt>
<pdfrwt beam="2">  1       21 0.14733601E-01 0.45513810E+03</pdfrwt>
<totfact> 0.57575600E+04</totfact>
</mgrwt>
</event>
<event>
 7    0  0.4737014E-002  0.4546012E+03  0.7546771E-02  0.1026359E+00
         21   -1    0    0  502  501  0.00000000000E+00  0.00000000000E+00  0.42693342420E+02  0.42693342420E+02  0.00000000000E+00 0.  1.
         21   -1    0    0  501  502 -0.00000000000E+00 -0.00000000000E+00 -0.12101548245E+04  0.12101548245E+04  0.00000000000E+00 0.  1.
      99926    2    1    2    0    0 -0.35527136788E-14  0.00000000000E+00 -0.11674614821E+04  0.12528481669E+04  0.45460116279E+03 0.  0.
      99925    2    3    3    0    0  0.15983138610E+02 -0.36157283519E+02 -0.10260080851E+04  0.10599249141E+04  0.26303122042E+03 0.  0.
         25    1    4    4    0    0  0.37498661489E+02 -0.35015715913E+02 -0.61853303265E+03  0.63313732361E+03  0.12509000000E+03 0.  0.
         25    1    3    3    0    0 -0.15983138610E+02  0.36157283519E+02 -0.14145339698E+03  0.19292325285E+03  0.12509000000E+03 0.  0.
         25    1    4    4    0    0 -0.21515522879E+02 -0.11415676064E+01 -0.40747505244E+03  0.42678759045E+03  0.12509000000E+03 0.  0.
<mgrwt>
<rscale>  2 0.45460116E+03</rscale>
<asrwt>0</asrwt>
<pdfrwt beam="1">  1       21 0.62784328E-02 0.45460116E+03</pdfrwt>
<pdfrwt beam="2">  1       21 0.17796394E+00 0.45460116E+03</pdfrwt>
<totfact> 0.30610324E+04</totfact>
</mgrwt>
</event>
<event>
 7    0  0.4737014E-002  0.4483870E+03  0.7546771E-02  0.1028204E+00
         21   -1    0    0  502  501  0.00000000000E+00  0.00000000000E+00  0.26017146375E+03  0.26017146375E+03  0.00000000000E+00 0.  1.
         21   -1    0    0  501  502 -0.00000000000E+00 -0.00000000000E+00 -0.19319079521E+03  0.19319079521E+03  0.00000000000E+00 0.  1.
      99926    2    1    2    0    0  0.00000000000E+00  0.00000000000E+00  0.66980668539E+02  0.45336225897E+03  0.44838702914E+03 0.  0.
      99925    2    3    3    0    0 -0.43561407252E+02 -0.68750737183E+02 -0.27587925949E+02  0.27668462250E+03  0.26300005058E+03 0.  0.
         25    1    4    4    0    0 -0.19927347005E+02 -0.76131723884E+02 -0.14153967314E+02  0.14846205384E+03  0.12509000000E+03 0.  0.
         25    1    4    4    0    0 -0.23634060247E+02  0.73809867014E+01 -0.13433958635E+02  0.12822256866E+03  0.12509000000E+03 0.  0.
         25    1    3    3    0    0  0.43561407252E+02  0.68750737183E+02  0.94568594488E+02  0.17667763647E+03  0.12509000000E+03 0.  0.
<mgrwt>
<rscale>  2 0.44838703E+03</rscale>
<asrwt>0</asrwt>
<pdfrwt beam="1">  1       21 0.38260510E-01 0.44838703E+03</pdfrwt>
<pdfrwt beam="2">  1       21 0.28410411E-01 0.44838703E+03</pdfrwt>
<totfact> 0.72411029E+04</totfact>
</mgrwt>
</event>
<event>
 7    0  0.4737014E-002  0.4462487E+03  0.7546771E-02  0.1028847E+00
         21   -1    0    0  502  501  0.00000000000E+00  0.00000000000E+00  0.10407892150E+03  0.10407892150E+03  0.00000000000E+00 0.  1.
         21   -1    0    0  501  502 -0.00000000000E+00 -0.00000000000E+00 -0.47833378707E+03  0.47833378707E+03  0.00000000000E+00 0.  1.
      99926    2    1    2    0    0  0.00000000000E+00  0.00000000000E+00 -0.37425486557E+03  0.58241270857E+03  0.44624865120E+03 0.  0.
      99925    2    3    3    0    0  0.25374508111E+02  0.47846145399E+02 -0.35445428010E+03  0.44467131836E+03  0.26298597948E+03 0.  0.
         25    1    4    4    0    0  0.24908335242E+02 -0.14023813456E+02 -0.15455536367E+03  0.20087797551E+03  0.12509000000E+03 0.  0.
         25    1    3    3    0    0 -0.25374508111E+02 -0.47846145399E+02 -0.19800585470E+02  0.13774139021E+03  0.12509000000E+03 0.  0.
         25    1    4    4    0    0  0.46617286842E+00  0.61869958854E+02 -0.19989891643E+03  0.24379334285E+03  0.12509000000E+03 0.  0.
<mgrwt>
<rscale>  2 0.44624865E+03</rscale>
<asrwt>0</asrwt>
<pdfrwt beam="1">  1       21 0.15305724E-01 0.44624865E+03</pdfrwt>
<pdfrwt beam="2">  1       21 0.70343204E-01 0.44624865E+03</pdfrwt>
<totfact> 0.64094308E+04</totfact>
</mgrwt>
</event>
<event>
 7    0  0.4737014E-002  0.4522043E+03  0.7546771E-02  0.1027067E+00
         21   -1    0    0  502  501  0.00000000000E+00  0.00000000000E+00  0.46953188056E+02  0.46953188056E+02  0.00000000000E+00 0. -1.
         21   -1    0    0  501  502 -0.00000000000E+00 -0.00000000000E+00 -0.10887905239E+04  0.10887905239E+04  0.00000000000E+00 0. -1.
      99926    2    1    2    0    0  0.00000000000E+00  0.71054273576E-14 -0.10418373359E+04  0.11357437120E+04  0.45220431764E+03 0.  0.
      99925    2    3    3    0    0  0.97230399414E+01  0.48527932780E+02 -0.90539367897E+03  0.94413505515E+03  0.26306613365E+03 0.  0.
         25    1    4    4    0    0  0.18382545891E+02 -0.86367832055E+01 -0.36206182570E+03  0.38359977287E+03  0.12509000000E+03 0.  0.
         25    1    3    3    0    0 -0.97230399414E+01 -0.48527932780E+02 -0.13644365689E+03  0.19160865683E+03  0.12509000000E+03 0.  0.
         25    1    4    4    0    0 -0.86595059499E+01  0.57164715985E+02 -0.54333185327E+03  0.56053528228E+03  0.12509000000E+03 0.  0.
<mgrwt>
<rscale>  2 0.45220432E+03</rscale>
<asrwt>0</asrwt>
<pdfrwt beam="1">  1       21 0.69048807E-02 0.45220432E+03</pdfrwt>
<pdfrwt beam="2">  1       21 0.16011625E+00 0.45220432E+03</pdfrwt>
<totfact> 0.35018861E+04</totfact>
</mgrwt>
</event>
<event>
 7    0  0.4737014E-002  0.4191617E+03  0.7546771E-02  0.1037339E+00
         21   -1    0    0  502  501  0.00000000000E+00  0.00000000000E+00  0.19356579885E+03  0.19356579885E+03  0.00000000000E+00 0. -1.
         21   -1    0    0  501  502 -0.00000000000E+00 -0.00000000000E+00 -0.22692094493E+03  0.22692094493E+03  0.00000000000E+00 0. -1.
      99926    2    1    2    0    0  0.26645352591E-14  0.00000000000E+00 -0.33355146080E+02  0.42048674378E+03  0.41916170618E+03 0.  0.
      99925    2    3    3    0    0  0.22084809292E+01  0.61149054232E+02 -0.64793193562E+02  0.27772840550E+03  0.26304148925E+03 0.  0.
         25    1    4    4    0    0 -0.16272719499E+02  0.18432716485E+01 -0.63154607920E+01  0.12631544718E+03  0.12509000000E+03 0.  0.
         25    1    4    4    0    0  0.18481200429E+02  0.59305782584E+02 -0.58477732770E+02  0.15141295832E+03  0.12509000000E+03 0.  0.
         25    1    3    3    0    0 -0.22084809292E+01 -0.61149054232E+02  0.31438047482E+02  0.14275833829E+03  0.12509000000E+03 0.  0.
<mgrwt>
<rscale>  2 0.41916171E+03</rscale>
<asrwt>0</asrwt>
<pdfrwt beam="1">  1       21 0.28465559E-01 0.41916171E+03</pdfrwt>
<pdfrwt beam="2">  1       21 0.33370727E-01 0.41916171E+03</pdfrwt>
<totfact> 0.95735377E+04</totfact>
</mgrwt>
</event>
<event>
 7    0  0.4737014E-002  0.4548516E+03  0.7546771E-02  0.1026285E+00
         21   -1    0    0  502  501  0.00000000000E+00  0.00000000000E+00  0.82455992710E+02  0.82455992710E+02  0.00000000000E+00 0. -1.
         21   -1    0    0  501  502 -0.00000000000E+00 -0.00000000000E+00 -0.62727406480E+03  0.62727406480E+03  0.00000000000E+00 0. -1.
      99926    2    1    2    0    0  0.00000000000E+00  0.00000000000E+00 -0.54481807209E+03  0.70973005751E+03  0.45485164928E+03 0.  0.
      99925    2    3    3    0    0 -0.11240411975E+03 -0.11829449545E+02 -0.34108312685E+03  0.44528713734E+03  0.26299869439E+03 0.  0.
         25    1    4    4    0    0 -0.95443911776E+02  0.11186001270E+02 -0.17977412838E+03  0.23916712202E+03  0.12509000000E+03 0.  0.
         25    1    3    3    0    0  0.11240411975E+03  0.11829449545E+02 -0.20373494524E+03  0.26444292017E+03  0.12509000000E+03 0.  0.
         25    1    4    4    0    0 -0.16960207976E+02 -0.23015450815E+02 -0.16130899847E+03  0.20612001532E+03  0.12509000000E+03 0.  0.
<mgrwt>
<rscale>  2 0.45485165E+03</rscale>
<asrwt>0</asrwt>
<pdfrwt beam="1">  1       21 0.12125881E-01 0.45485165E+03</pdfrwt>
<pdfrwt beam="2">  1       21 0.92246187E-01 0.45485165E+03</pdfrwt>
<totfact> 0.52439049E+04</totfact>
</mgrwt>
</event>
<event>
 7    0  0.4737014E-002  0.4450705E+03  0.7546771E-02  0.1029202E+00
         21   -1    0    0  502  501  0.00000000000E+00  0.00000000000E+00  0.10302670236E+03  0.10302670236E+03  0.00000000000E+00 0.  1.
         21   -1    0    0  501  502 -0.00000000000E+00 -0.00000000000E+00 -0.48067085291E+03  0.48067085291E+03  0.00000000000E+00 0.  1.
      99926    2    1    2    0    0  0.35527136788E-14  0.00000000000E+00 -0.37764415055E+03  0.58369755527E+03  0.44507047934E+03 0.  0.
      99925    2    3    3    0    0  0.19489996742E+02 -0.43991986686E+02 -0.11940768599E+03  0.29275299939E+03  0.26292768647E+03 0.  0.
         25    1    3    3    0    0 -0.19489996742E+02  0.43991986686E+02 -0.25823646456E+03  0.29094455588E+03  0.12509000000E+03 0.  0.
         25    1    4    4    0    0 -0.88687341398E+01 -0.54810827983E+02 -0.44961467302E+02  0.14405527742E+03  0.12509000000E+03 0.  0.
         25    1    4    4    0    0  0.28358730882E+02  0.10818841297E+02 -0.74446218690E+02  0.14869772198E+03  0.12509000000E+03 0.  0.
<mgrwt>
<rscale>  2 0.44507048E+03</rscale>
<asrwt>0</asrwt>
<pdfrwt beam="1">  1       21 0.15150986E-01 0.44507048E+03</pdfrwt>
<pdfrwt beam="2">  1       21 0.70686889E-01 0.44507048E+03</pdfrwt>
<totfact> 0.64617495E+04</totfact>
</mgrwt>
</event>
<event>
 7    0  0.4737014E-002  0.4559400E+03  0.7546771E-02  0.1025965E+00
         21   -1    0    0  502  501  0.00000000000E+00  0.00000000000E+00  0.13325635317E+04  0.13325635317E+04  0.00000000000E+00 0. -1.
         21   -1    0    0  501  502 -0.00000000000E+00 -0.00000000000E+00 -0.39000263450E+02  0.39000263450E+02  0.00000000000E+00 0. -1.
      99926    2    1    2    0    0  0.88817841970E-15 -0.14210854715E-13  0.12935632682E+04  0.13715637951E+04  0.45594003465E+03 0.  0.
      99925    2    3    3    0    0 -0.76740979563E+01  0.11378666398E+03  0.81719359712E+03  0.86601274100E+03  0.26299504885E+03 0.  0.
         25    1    4    4    0    0  0.75431098023E+01  0.88911467948E+02  0.36733532713E+03  0.39817696857E+03  0.12509000000E+03 0.  0.
         25    1    3    3    0    0  0.76740979563E+01 -0.11378666398E+03  0.47636967110E+03  0.50555105413E+03  0.12509000000E+03 0.  0.
         25    1    4    4    0    0 -0.15217207759E+02  0.24875196034E+02  0.44985826999E+03  0.46783577243E+03  0.12509000000E+03 0.  0.
<mgrwt>
<rscale>  2 0.45594003E+03</rscale>
<asrwt>0</asrwt>
<pdfrwt beam="1">  1       21 0.19596520E+00 0.45594003E+03</pdfrwt>
<pdfrwt beam="2">  1       21 0.57353337E-02 0.45594003E+03</pdfrwt>
<totfact> 0.26902650E+04</totfact>
</mgrwt>
</event>
<event>
 7    0  0.4737014E-002  0.4548672E+03  0.7546771E-02  0.1026280E+00
         21   -1    0    0  502  501  0.00000000000E+00  0.00000000000E+00  0.23229927247E+02  0.23229927247E+02  0.00000000000E+00 0.  1.
         21   -1    0    0  501  502 -0.00000000000E+00 -0.00000000000E+00 -0.22266980593E+04  0.22266980593E+04  0.00000000000E+00 0.  1.
      99926    2    1    2    0    0  0.00000000000E+00  0.00000000000E+00 -0.22034681320E+04  0.22499279865E+04  0.45486716266E+03 0.  0.
      99925    2    3    3    0    0 -0.62939228240E+02 -0.91626905677E+02 -0.12843183849E+04  0.13156685996E+04  0.26297017683E+03 0.  0.
         25    1    4    4    0    0 -0.20530010036E+02 -0.58395109114E+02 -0.47918629857E+03  0.49909767272E+03  0.12509000000E+03 0.  0.
         25    1    4    4    0    0 -0.42409218204E+02 -0.33231796563E+02 -0.80513208632E+03  0.81657092688E+03  0.12509000000E+03 0.  0.
         25    1    3    3    0    0  0.62939228240E+02  0.91626905677E+02 -0.91914974712E+03  0.93425938690E+03  0.12509000000E+03 0.  0.
<mgrwt>
<rscale>  2 0.45486716E+03</rscale>
<asrwt>0</asrwt>
<pdfrwt beam="1">  1       21 0.34161648E-02 0.45486716E+03</pdfrwt>
<pdfrwt beam="2">  1       21 0.32745569E+00 0.45486716E+03</pdfrwt>
<totfact> 0.10051910E+04</totfact>
</mgrwt>
</event>
<event>
 7    0  0.4737014E-002  0.3972468E+03  0.7546771E-02  0.1044737E+00
         21   -1    0    0  502  501  0.00000000000E+00  0.00000000000E+00  0.25745570479E+02  0.25745570479E+02  0.00000000000E+00 0.  1.
         21   -1    0    0  501  502 -0.00000000000E+00 -0.00000000000E+00 -0.15323513032E+04  0.15323513032E+04  0.00000000000E+00 0.  1.
      99926    2    1    2    0    0  0.17763568394E-14  0.00000000000E+00 -0.15066057327E+04  0.15580968737E+04  0.39724681736E+03 0.  0.
      99925    2    3    3    0    0  0.12383713062E+02  0.14878864639E+02 -0.11471617753E+04  0.11770165624E+04  0.26270346908E+03 0.  0.
         25    1    4    4    0    0 -0.76290089203E+01  0.92406714446E+01 -0.73908593581E+03  0.74969268397E+03  0.12509000000E+03 0.  0.
         25    1    3    3    0    0 -0.12383713062E+02 -0.14878864639E+02 -0.35944395745E+03  0.38108031123E+03  0.12509000000E+03 0.  0.
         25    1    4    4    0    0  0.20012721982E+02  0.56381931941E+01 -0.40807583945E+03  0.42732387846E+03  0.12509000000E+03 0.  0.
<mgrwt>
<rscale>  2 0.39724682E+03</rscale>
<asrwt>0</asrwt>
<pdfrwt beam="1">  1       21 0.37861119E-02 0.39724682E+03</pdfrwt>
<pdfrwt beam="2">  1       21 0.22534586E+00 0.39724682E+03</pdfrwt>
<totfact> 0.36052229E+04</totfact>
</mgrwt>
</event>
<event>
 7    0  0.4737014E-002  0.4607552E+03  0.7546771E-02  0.1024562E+00
         21   -1    0    0  502  501  0.00000000000E+00  0.00000000000E+00  0.52678110094E+02  0.52678110094E+02  0.00000000000E+00 0. -1.
         21   -1    0    0  501  502 -0.00000000000E+00 -0.00000000000E+00 -0.10075122191E+04  0.10075122191E+04  0.00000000000E+00 0. -1.
      99926    2    1    2    0    0  0.00000000000E+00  0.00000000000E+00 -0.95483410904E+03  0.10601903292E+04  0.46075520442E+03 0.  0.
      99925    2    3    3    0    0  0.40913884801E+02 -0.82286900737E+02 -0.42366537477E+03  0.50680726808E+03  0.26251890826E+03 0.  0.
         25    1    3    3    0    0 -0.40913884801E+02  0.82286900737E+02 -0.53116873427E+03  0.55338306115E+03  0.12509000000E+03 0.  0.
         25    1    4    4    0    0  0.24780776835E+02 -0.10201132379E+02 -0.15141297484E+03  0.19822095513E+03  0.12509000000E+03 0.  0.
         25    1    4    4    0    0  0.16133107966E+02 -0.72085768358E+02 -0.27225239993E+03  0.30858631295E+03  0.12509000000E+03 0.  0.
<mgrwt>
<rscale>  2 0.46075520E+03</rscale>
<asrwt>0</asrwt>
<pdfrwt beam="1">  1       21 0.77467816E-02 0.46075520E+03</pdfrwt>
<pdfrwt beam="2">  1       21 0.14816355E+00 0.46075520E+03</pdfrwt>
<totfact> 0.35293579E+04</totfact>
</mgrwt>
</event>
<event>
 7    0  0.4737014E-002  0.4501978E+03  0.7546771E-02  0.1027663E+00
         21   -1    0    0  502  501  0.00000000000E+00  0.00000000000E+00  0.15889614323E+04  0.15889614323E+04  0.00000000000E+00 0.  1.
         21   -1    0    0  501  502 -0.00000000000E+00 -0.00000000000E+00 -0.31888441436E+02  0.31888441436E+02  0.00000000000E+00 0.  1.
      99926    2    1    2    0    0 -0.35527136788E-14  0.17763568394E-14  0.15570729909E+04  0.16208498738E+04  0.45019775023E+03 0.  0.
      99925    2    3    3    0    0 -0.23983196695E+02 -0.44854645986E+01  0.60129524848E+03  0.65661239569E+03  0.26265671365E+03 0.  0.
         25    1    4    4    0    0 -0.30538759588E+02 -0.35436930504E+02  0.33714981980E+03  0.36263742357E+03  0.12509000000E+03 0.  0.
         25    1    3    3    0    0  0.23983196695E+02  0.44854645986E+01  0.95577774241E+03  0.96423747806E+03  0.12509000000E+03 0.  0.
         25    1    4    4    0    0  0.65555628933E+01  0.30951465906E+02  0.26414542867E+03  0.29397497212E+03  0.12509000000E+03 0.  0.
<mgrwt>
<rscale>  2 0.45019775E+03</rscale>
<asrwt>0</asrwt>
<pdfrwt beam="1">  1       21 0.23367075E+00 0.45019775E+03</pdfrwt>
<pdfrwt beam="2">  1       21 0.46894778E-02 0.45019775E+03</pdfrwt>
<totfact> 0.21762967E+04</totfact>
</mgrwt>
</event>
<event>
 7    0  0.4737014E-002  0.4576291E+03  0.7546771E-02  0.1025471E+00
         21   -1    0    0  502  501  0.00000000000E+00  0.00000000000E+00  0.11583577944E+03  0.11583577944E+03  0.00000000000E+00 0.  1.
         21   -1    0    0  501  502 -0.00000000000E+00 -0.00000000000E+00 -0.45198557417E+03  0.45198557417E+03  0.00000000000E+00 0.  1.
      99926    2    1    2    0    0  0.00000000000E+00  0.14210854715E-13 -0.33614979473E+03  0.56782135361E+03  0.45762911307E+03 0.  0.
      99925    2    3    3    0    0  0.79169751897E+02  0.79974087939E+02 -0.24457487801E+03  0.37625627895E+03  0.26284636605E+03 0.  0.
         25    1    3    3    0    0 -0.79169751897E+02 -0.79974087939E+02 -0.91574916721E+02  0.19156507466E+03  0.12509000000E+03 0.  0.
         25    1    4    4    0    0  0.32102681120E+02  0.43223394087E+02 -0.69323476760E+02  0.15281392758E+03  0.12509000000E+03 0.  0.
         25    1    4    4    0    0  0.47067070777E+02  0.36750693852E+02 -0.17525140125E+03  0.22344235138E+03  0.12509000000E+03 0.  0.
<mgrwt>
<rscale>  2 0.45762911E+03</rscale>
<asrwt>0</asrwt>
<pdfrwt beam="1">  1       21 0.17034673E-01 0.45762911E+03</pdfrwt>
<pdfrwt beam="2">  1       21 0.66468467E-01 0.45762911E+03</pdfrwt>
<totfact> 0.59458074E+04</totfact>
</mgrwt>
</event>
<event>
 7    0  0.4737014E-002  0.4086087E+03  0.7546771E-02  0.1040839E+00
         21   -1    0    0  502  501  0.00000000000E+00  0.00000000000E+00  0.63674832233E+02  0.63674832233E+02  0.00000000000E+00 0.  1.
         21   -1    0    0  501  502 -0.00000000000E+00 -0.00000000000E+00 -0.65552218174E+03  0.65552218174E+03  0.00000000000E+00 0.  1.
      99926    2    1    2    0    0  0.00000000000E+00  0.00000000000E+00 -0.59184734951E+03  0.71919701397E+03  0.40860868785E+03 0.  0.
      99925    2    3    3    0    0 -0.31921509954E+02  0.36260614272E+02 -0.32758567698E+03  0.42286012020E+03  0.26299142675E+03 0.  0.
         25    1    4    4    0    0  0.22937236389E+02  0.73612037462E+01 -0.14492763011E+03  0.19295551353E+03  0.12509000000E+03 0.  0.
         25    1    3    3    0    0  0.31921509954E+02 -0.36260614272E+02 -0.26426167253E+03  0.29633689377E+03  0.12509000000E+03 0.  0.
         25    1    4    4    0    0 -0.54858746343E+02  0.28899410526E+02 -0.18265804687E+03  0.22990460667E+03  0.12509000000E+03 0.  0.
<mgrwt>
<rscale>  2 0.40860869E+03</rscale>
<asrwt>0</asrwt>
<pdfrwt beam="1">  1       21 0.93639457E-02 0.40860869E+03</pdfrwt>
<pdfrwt beam="2">  1       21 0.96400323E-01 0.40860869E+03</pdfrwt>
<totfact> 0.76053717E+04</totfact>
</mgrwt>
</event>
<event>
 7    0  0.4737014E-002  0.4591710E+03  0.7546771E-02  0.1025022E+00
         21   -1    0    0  502  501  0.00000000000E+00  0.00000000000E+00  0.20339372709E+04  0.20339372709E+04  0.00000000000E+00 0.  1.
         21   -1    0    0  501  502 -0.00000000000E+00 -0.00000000000E+00 -0.25915005634E+02  0.25915005634E+02  0.00000000000E+00 0.  1.
      99926    2    1    2    0    0  0.00000000000E+00  0.00000000000E+00  0.20080222652E+04  0.20598522765E+04  0.45917097397E+03 0.  0.
      99925    2    3    3    0    0  0.93037405689E+02  0.61564126942E+02  0.10980553885E+04  0.11345775468E+04  0.26285827530E+03 0.  0.
         25    1    3    3    0    0 -0.93037405689E+02 -0.61564126942E+02  0.90996687670E+03  0.92527472968E+03  0.12509000000E+03 0.  0.
         25    1    4    4    0    0  0.51812315591E+02  0.68376596721E+02  0.65347502651E+03  0.67084796594E+03  0.12509000000E+03 0.  0.
         25    1    4    4    0    0  0.41225090098E+02 -0.68124697789E+01  0.44458036203E+03  0.46372958090E+03  0.12509000000E+03 0.  0.
<mgrwt>
<rscale>  2 0.45917097E+03</rscale>
<asrwt>0</asrwt>
<pdfrwt beam="1">  1       21 0.29910831E+00 0.45917097E+03</pdfrwt>
<pdfrwt beam="2">  1       21 0.38110316E-02 0.45917097E+03</pdfrwt>
<totfact> 0.12352289E+04</totfact>
</mgrwt>
</event>
<event>
 7    0  0.4737014E-002  0.4580293E+03  0.7546771E-02  0.1025354E+00
         21   -1    0    0  502  501  0.00000000000E+00  0.00000000000E+00  0.17307347445E+04  0.17307347445E+04  0.00000000000E+00 0.  1.
         21   -1    0    0  501  502 -0.00000000000E+00 -0.00000000000E+00 -0.30303729624E+02  0.30303729624E+02  0.00000000000E+00 0.  1.
      99926    2    1    2    0    0  0.00000000000E+00  0.00000000000E+00  0.17004310148E+04  0.17610384741E+04  0.45802933420E+03 0.  0.
      99925    2    3    3    0    0 -0.69741211520E+02 -0.86234965771E+02  0.94137074733E+03  0.98378671068E+03  0.26335736610E+03 0.  0.
         25    1    4    4    0    0 -0.30998293080E+02 -0.60085467640E+00  0.39888817746E+03  0.41919034032E+03  0.12509000000E+03 0.  0.
         25    1    3    3    0    0  0.69741211520E+02  0.86234965771E+02  0.75906026751E+03  0.77725176341E+03  0.12509000000E+03 0.  0.
         25    1    4    4    0    0 -0.38742918440E+02 -0.85634111095E+02  0.54248256988E+03  0.56459637037E+03  0.12509000000E+03 0.  0.
<mgrwt>
<rscale>  2 0.45802933E+03</rscale>
<asrwt>0</asrwt>
<pdfrwt beam="1">  1       21 0.25451975E+00 0.45802933E+03</pdfrwt>
<pdfrwt beam="2">  1       21 0.44564320E-02 0.45802933E+03</pdfrwt>
<totfact> 0.17602621E+04</totfact>
</mgrwt>
</event>
<event>
 7    0  0.4737014E-002  0.4564681E+03  0.7546771E-02  0.1025811E+00
         21   -1    0    0  502  501  0.00000000000E+00  0.00000000000E+00  0.92216945918E+03  0.92216945918E+03  0.00000000000E+00 0. -1.
         21   -1    0    0  501  502 -0.00000000000E+00 -0.00000000000E+00 -0.56487223696E+02  0.56487223696E+02  0.00000000000E+00 0. -1.
      99926    2    1    2    0    0  0.00000000000E+00  0.35527136788E-14  0.86568223549E+03  0.97865668288E+03  0.45646814796E+03 0.  0.
      99925    2    3    3    0    0 -0.75425767504E+02  0.20556877560E+02  0.36450218223E+03  0.45621952350E+03  0.26298817683E+03 0.  0.
         25    1    3    3    0    0  0.75425767504E+02 -0.20556877560E+02  0.50118005325E+03  0.52243715938E+03  0.12509000000E+03 0.  0.
         25    1    4    4    0    0 -0.59152021085E+02  0.38945057509E+02  0.15859640666E+03  0.21404674117E+03  0.12509000000E+03 0.  0.
         25    1    4    4    0    0 -0.16273746419E+02 -0.18388179949E+02  0.20590577558E+03  0.24217278233E+03  0.12509000000E+03 0.  0.
<mgrwt>
<rscale>  2 0.45646815E+03</rscale>
<asrwt>0</asrwt>
<pdfrwt beam="1">  1       21 0.13561315E+00 0.45646815E+03</pdfrwt>
<pdfrwt beam="2">  1       21 0.83069452E-02 0.45646815E+03</pdfrwt>
<totfact> 0.39545777E+04</totfact>
</mgrwt>
</event>
<event>
 7    0  0.4737014E-002  0.4117250E+03  0.7546771E-02  0.1039794E+00
         21   -1    0    0  502  501  0.00000000000E+00  0.00000000000E+00  0.38722897059E+02  0.38722897059E+02  0.00000000000E+00 0.  1.
         21   -1    0    0  501  502 -0.00000000000E+00 -0.00000000000E+00 -0.10944267801E+04  0.10944267801E+04  0.00000000000E+00 0.  1.
      99926    2    1    2    0    0  0.17763568394E-14  0.00000000000E+00 -0.10557038831E+04  0.11331496772E+04  0.41172503225E+03 0.  0.
      99925    2    3    3    0    0  0.69522871559E+01  0.64353491479E+02 -0.70085010568E+03  0.75136646961E+03  0.26300379248E+03 0.  0.
         25    1    3    3    0    0 -0.69522871559E+01 -0.64353491479E+02 -0.35485377740E+03  0.38178320759E+03  0.12509000000E+03 0.  0.
         25    1    4    4    0    0 -0.25956275793E+02  0.39740592221E+02 -0.42770401257E+03  0.44814202369E+03  0.12509000000E+03 0.  0.
         25    1    4    4    0    0  0.32908562949E+02  0.24612899257E+02 -0.27314609311E+03  0.30322444592E+03  0.12509000000E+03 0.  0.
<mgrwt>
<rscale>  2 0.41172503E+03</rscale>
<asrwt>0</asrwt>
<pdfrwt beam="1">  1       21 0.56945438E-02 0.41172503E+03</pdfrwt>
<pdfrwt beam="2">  1       21 0.16094511E+00 0.41172503E+03</pdfrwt>
<totfact> 0.48865813E+04</totfact>
</mgrwt>
</event>
<event>
 7    0  0.4737014E-002  0.4584374E+03  0.7546771E-02  0.1025235E+00
         21   -1    0    0  502  501  0.00000000000E+00  0.00000000000E+00  0.50843417166E+03  0.50843417166E+03  0.00000000000E+00 0.  1.
         21   -1    0    0  501  502 -0.00000000000E+00 -0.00000000000E+00 -0.10333925755E+03  0.10333925755E+03  0.00000000000E+00 0.  1.
      99926    2    1    2    0    0 -0.35527136788E-14  0.00000000000E+00  0.40509491411E+03  0.61177342922E+03  0.45843738859E+03 0.  0.
      99925    2    3    3    0    0 -0.19014694247E+02  0.84287078835E+02  0.35817125361E+03  0.45266589240E+03  0.26297127785E+03 0.  0.
         25    1    4    4    0    0 -0.39474278363E+02  0.14903635249E+02  0.16069637631E+03  0.20796915746E+03  0.12509000000E+03 0.  0.
         25    1    3    3    0    0  0.19014694247E+02 -0.84287078835E+02  0.46923660495E+02  0.15910753681E+03  0.12509000000E+03 0.  0.
         25    1    4    4    0    0  0.20459584116E+02  0.69383443585E+02  0.19747487730E+03  0.24469673494E+03  0.12509000000E+03 0.  0.
<mgrwt>
<rscale>  2 0.45843739E+03</rscale>
<asrwt>0</asrwt>
<pdfrwt beam="1">  1       21 0.74769730E-01 0.45843739E+03</pdfrwt>
<pdfrwt beam="2">  1       21 0.15196950E-01 0.45843739E+03</pdfrwt>
<totfact> 0.56412071E+04</totfact>
</mgrwt>
</event>
<event>
 7    0  0.4737014E-002  0.4555563E+03  0.7546771E-02  0.1026078E+00
         21   -1    0    0  502  501  0.00000000000E+00  0.00000000000E+00  0.11670545454E+04  0.11670545454E+04  0.00000000000E+00 0.  1.
         21   -1    0    0  501  502 -0.00000000000E+00 -0.00000000000E+00 -0.44456265820E+02  0.44456265820E+02  0.00000000000E+00 0.  1.
      99926    2    1    2    0    0  0.00000000000E+00  0.00000000000E+00  0.11225982796E+04  0.12115108112E+04  0.45555630649E+03 0.  0.
      99925    2    3    3    0    0  0.31769692344E+02  0.37232689420E+02  0.97911673751E+03  0.10149655301E+04  0.26284949138E+03 0.  0.
         25    1    3    3    0    0 -0.31769692344E+02 -0.37232689420E+02  0.14348154207E+03  0.19654528111E+03  0.12509000000E+03 0.  0.
         25    1    4    4    0    0 -0.11070630458E+02  0.29631415595E+02  0.37743855238E+03  0.39888337716E+03  0.12509000000E+03 0.  0.
         25    1    4    4    0    0  0.42840322801E+02  0.76012738248E+01  0.60167818513E+03  0.61608215295E+03  0.12509000000E+03 0.  0.
<mgrwt>
<rscale>  2 0.45555631E+03</rscale>
<asrwt>0</asrwt>
<pdfrwt beam="1">  1       21 0.17162565E+00 0.45555631E+03</pdfrwt>
<pdfrwt beam="2">  1       21 0.65376869E-02 0.45555631E+03</pdfrwt>
<totfact> 0.31655850E+04</totfact>
</mgrwt>
</event>
<event>
 7    0  0.4737014E-002  0.4519617E+03  0.7546771E-02  0.1027139E+00
         21   -1    0    0  502  501  0.00000000000E+00  0.00000000000E+00  0.45442552423E+03  0.45442552423E+03  0.00000000000E+00 0.  1.
         21   -1    0    0  501  502 -0.00000000000E+00 -0.00000000000E+00 -0.11237783153E+03  0.11237783153E+03  0.00000000000E+00 0.  1.
      99926    2    1    2    0    0  0.71054273576E-14 -0.14210854715E-13  0.34204769271E+03  0.56680335576E+03  0.45196174618E+03 0.  0.
      99925    2    3    3    0    0  0.39709588652E+02 -0.68510050199E+02  0.11930780338E+03  0.29935047242E+03  0.26287996306E+03 0.  0.
         25    1    4    4    0    0  0.27116765409E+02 -0.38185807294E+02  0.17404000168E+02  0.13469922853E+03  0.12509000000E+03 0.  0.
         25    1    4    4    0    0  0.12592823243E+02 -0.30324242904E+02  0.10190380321E+03  0.16465124389E+03  0.12509000000E+03 0.  0.
         25    1    3    3    0    0 -0.39709588652E+02  0.68510050199E+02  0.22273988933E+03  0.26745288334E+03  0.12509000000E+03 0.  0.
<mgrwt>
<rscale>  2 0.45196175E+03</rscale>
<asrwt>0</asrwt>
<pdfrwt beam="1">  1       21 0.66827282E-01 0.45196175E+03</pdfrwt>
<pdfrwt beam="2">  1       21 0.16526152E-01 0.45196175E+03</pdfrwt>
<totfact> 0.62251948E+04</totfact>
</mgrwt>
</event>
<event>
 7    0  0.4737014E-002  0.4656650E+03  0.7546771E-02  0.1023151E+00
         21   -1    0    0  502  501  0.00000000000E+00  0.00000000000E+00  0.26338791995E+03  0.26338791995E+03  0.00000000000E+00 0.  1.
         21   -1    0    0  501  502 -0.00000000000E+00 -0.00000000000E+00 -0.20582178908E+03  0.20582178908E+03  0.00000000000E+00 0.  1.
      99926    2    1    2    0    0  0.14210854715E-13  0.00000000000E+00  0.57566130864E+02  0.46920970903E+03  0.46566499936E+03 0.  0.
      99925    2    3    3    0    0  0.91336070989E+02  0.73344741767E+02 -0.10903598727E+01  0.28807489456E+03  0.26318097762E+03 0.  0.
         25    1    4    4    0    0  0.35389231302E+02  0.75336750921E+02  0.99810262707E+01  0.15058271055E+03  0.12509000000E+03 0.  0.
         25    1    3    3    0    0 -0.91336070989E+02 -0.73344741767E+02  0.58656490737E+02  0.18113481447E+03  0.12509000000E+03 0.  0.
         25    1    4    4    0    0  0.55946839687E+02 -0.19920091540E+01 -0.11071386143E+02  0.13749218401E+03  0.12509000000E+03 0.  0.
<mgrwt>
<rscale>  2 0.46566500E+03</rscale>
<asrwt>0</asrwt>
<pdfrwt beam="1">  1       21 0.38733518E-01 0.46566500E+03</pdfrwt>
<pdfrwt beam="2">  1       21 0.30267910E-01 0.46566500E+03</pdfrwt>
<totfact> 0.62065307E+04</totfact>
</mgrwt>
</event>
<event>
 7    0  0.4737014E-002  0.4554311E+03  0.7546771E-02  0.1026115E+00
         21   -1    0    0  502  501  0.00000000000E+00  0.00000000000E+00  0.11359522686E+03  0.11359522686E+03  0.00000000000E+00 0.  1.
         21   -1    0    0  501  502 -0.00000000000E+00 -0.00000000000E+00 -0.45648362258E+03  0.45648362258E+03  0.00000000000E+00 0.  1.
      99926    2    1    2    0    0 -0.35527136788E-14 -0.14210854715E-13 -0.34288839572E+03  0.57007884944E+03  0.45543105149E+03 0.  0.
      99925    2    3    3    0    0 -0.24476083091E+02 -0.11082269196E+03 -0.21346690565E+03  0.35729215369E+03  0.26307568413E+03 0.  0.
         25    1    4    4    0    0 -0.29007533888E+02 -0.29234940352E+02 -0.13472220327E+03  0.18839771472E+03  0.12509000000E+03 0.  0.
         25    1    3    3    0    0  0.24476083091E+02  0.11082269196E+03 -0.12942149007E+03  0.21278669575E+03  0.12509000000E+03 0.  0.
         25    1    4    4    0    0  0.45314507967E+01 -0.81587751613E+02 -0.78744702388E+02  0.16889443897E+03  0.12509000000E+03 0.  0.
<mgrwt>
<rscale>  2 0.45543105E+03</rscale>
<asrwt>0</asrwt>
<pdfrwt beam="1">  1       21 0.16705180E-01 0.45543105E+03</pdfrwt>
<pdfrwt beam="2">  1       21 0.67129945E-01 0.45543105E+03</pdfrwt>
<totfact> 0.60352873E+04</totfact>
</mgrwt>
</event>
<event>
 7    0  0.4737014E-002  0.4334404E+03  0.7546771E-02  0.1032779E+00
         21   -1    0    0  502  501  0.00000000000E+00  0.00000000000E+00  0.59025070563E+02  0.59025070563E+02  0.00000000000E+00 0.  1.
         21   -1    0    0  501  502 -0.00000000000E+00 -0.00000000000E+00 -0.79572362617E+03  0.79572362617E+03  0.00000000000E+00 0.  1.
      99926    2    1    2    0    0  0.00000000000E+00  0.00000000000E+00 -0.73669855560E+03  0.85474869673E+03  0.43344039121E+03 0.  0.
      99925    2    3    3    0    0  0.77598969717E+02 -0.23437821565E+02 -0.38952312867E+03  0.47692702352E+03  0.26298324360E+03 0.  0.
         25    1    4    4    0    0  0.61286047040E+02  0.78545155578E-01 -0.25783164995E+03  0.29305401131E+03  0.12509000000E+03 0.  0.
         25    1    3    3    0    0 -0.77598969717E+02  0.23437821565E+02 -0.34717542694E+03  0.37782167321E+03  0.12509000000E+03 0.  0.
         25    1    4    4    0    0  0.16312922677E+02 -0.23516366721E+02 -0.13169147872E+03  0.18387301220E+03  0.12509000000E+03 0.  0.
<mgrwt>
<rscale>  2 0.43344039E+03</rscale>
<asrwt>0</asrwt>
<pdfrwt beam="1">  1       21 0.86801581E-02 0.43344039E+03</pdfrwt>
<pdfrwt beam="2">  1       21 0.11701817E+00 0.43344039E+03</pdfrwt>
<totfact> 0.53756655E+04</totfact>
</mgrwt>
</event>
<event>
 7    0  0.4737014E-002  0.4607792E+03  0.7546771E-02  0.1024555E+00
         21   -1    0    0  502  501  0.00000000000E+00  0.00000000000E+00  0.32792285811E+03  0.32792285811E+03  0.00000000000E+00 0. -1.
         21   -1    0    0  501  502 -0.00000000000E+00 -0.00000000000E+00 -0.16186539888E+03  0.16186539888E+03  0.00000000000E+00 0. -1.
      99926    2    1    2    0    0 -0.35527136788E-14  0.00000000000E+00  0.16605745923E+03  0.48978825699E+03  0.46077918456E+03 0.  0.
      99925    2    3    3    0    0  0.20359981242E+02  0.72674259875E+02  0.58056474266E+01  0.27293755220E+03  0.26223105265E+03 0.  0.
         25    1    4    4    0    0  0.97863886218E+01  0.76403555006E+02  0.10309952475E+02  0.14726533822E+03  0.12509000000E+03 0.  0.
         25    1    3    3    0    0 -0.20359981242E+02 -0.72674259875E+02  0.16025181180E+03  0.21685070479E+03  0.12509000000E+03 0.  0.
         25    1    4    4    0    0  0.10573592620E+02 -0.37292951305E+01 -0.45043050482E+01  0.12567221398E+03  0.12509000000E+03 0.  0.
<mgrwt>
<rscale>  2 0.46077918E+03</rscale>
<asrwt>0</asrwt>
<pdfrwt beam="1">  1       21 0.48223950E-01 0.46077918E+03</pdfrwt>
<pdfrwt beam="2">  1       21 0.23803735E-01 0.46077918E+03</pdfrwt>
<totfact> 0.63051493E+04</totfact>
</mgrwt>
</event>
<event>
 7    0  0.4737014E-002  0.4558543E+03  0.7546771E-02  0.1025990E+00
         21   -1    0    0  502  501  0.00000000000E+00  0.00000000000E+00  0.36342549890E+03  0.36342549890E+03  0.00000000000E+00 0. -1.
         21   -1    0    0  501  502 -0.00000000000E+00 -0.00000000000E+00 -0.14294755177E+03  0.14294755177E+03  0.00000000000E+00 0. -1.
      99926    2    1    2    0    0  0.00000000000E+00  0.00000000000E+00  0.22047794712E+03  0.50637305067E+03  0.45585429830E+03 0.  0.
      99925    2    3    3    0    0  0.42567315005E+02  0.10407360548E+03  0.11851662819E+03  0.30968316704E+03  0.26308588165E+03 0.  0.
         25    1    3    3    0    0 -0.42567315005E+02 -0.10407360548E+03  0.10196131893E+03  0.19668988363E+03  0.12509000000E+03 0.  0.
         25    1    4    4    0    0  0.12488112793E+02  0.31995106792E+02  0.93979489739E+02  0.16018518162E+03  0.12509000000E+03 0.  0.
         25    1    4    4    0    0  0.30079202212E+02  0.72078498692E+02  0.24537138455E+02  0.14949798541E+03  0.12509000000E+03 0.  0.
<mgrwt>
<rscale>  2 0.45585430E+03</rscale>
<asrwt>0</asrwt>
<pdfrwt beam="1">  1       21 0.53444926E-01 0.45585430E+03</pdfrwt>
<pdfrwt beam="2">  1       21 0.21021699E-01 0.45585430E+03</pdfrwt>
<totfact> 0.64387516E+04</totfact>
</mgrwt>
</event>
<event>
 7    0  0.4737014E-002  0.4555972E+03  0.7546771E-02  0.1026066E+00
         21   -1    0    0  502  501  0.00000000000E+00  0.00000000000E+00  0.12426157844E+03  0.12426157844E+03  0.00000000000E+00 0.  1.
         21   -1    0    0  501  502 -0.00000000000E+00 -0.00000000000E+00 -0.41760449593E+03  0.41760449593E+03  0.00000000000E+00 0.  1.
      99926    2    1    2    0    0  0.00000000000E+00  0.00000000000E+00 -0.29334291749E+03  0.54186607437E+03  0.45559716342E+03 0.  0.
      99925    2    3    3    0    0  0.10415663330E+03 -0.37800936462E+02 -0.21497433296E+03  0.35729452131E+03  0.26299790127E+03 0.  0.
         25    1    3    3    0    0 -0.10415663330E+03  0.37800936462E+02 -0.78368584535E+02  0.18457155306E+03  0.12509000000E+03 0.  0.
         25    1    4    4    0    0  0.67494839932E+02 -0.74893607843E+01 -0.65559303011E+02  0.15670728845E+03  0.12509000000E+03 0.  0.
         25    1    4    4    0    0  0.36661793369E+02 -0.30311575677E+02 -0.14941502995E+03  0.20058723286E+03  0.12509000000E+03 0.  0.
<mgrwt>
<rscale>  2 0.45559716E+03</rscale>
<asrwt>0</asrwt>
<pdfrwt beam="1">  1       21 0.18273762E-01 0.45559716E+03</pdfrwt>
<pdfrwt beam="2">  1       21 0.61412425E-01 0.45559716E+03</pdfrwt>
<totfact> 0.62113182E+04</totfact>
</mgrwt>
</event>
<event>
 7    0  0.4737014E-002  0.4541302E+03  0.7546771E-02  0.1026497E+00
         21   -1    0    0  502  501  0.00000000000E+00  0.00000000000E+00  0.53579296912E+03  0.53579296912E+03  0.00000000000E+00 0.  1.
         21   -1    0    0  501  502 -0.00000000000E+00 -0.00000000000E+00 -0.96228516262E+02  0.96228516262E+02  0.00000000000E+00 0.  1.
      99926    2    1    2    0    0  0.00000000000E+00  0.00000000000E+00  0.43956445286E+03  0.63202148538E+03  0.45413021235E+03 0.  0.
      99925    2    3    3    0    0 -0.32997137386E+02  0.10674714569E+03  0.25751183184E+03  0.38448476264E+03  0.26274022336E+03 0.  0.
         25    1    3    3    0    0  0.32997137386E+02 -0.10674714569E+03  0.18205262102E+03  0.24753672275E+03  0.12509000000E+03 0.  0.
         25    1    4    4    0    0 -0.26824094323E+02  0.71099388238E+02  0.18343913187E+03  0.23467440901E+03  0.12509000000E+03 0.  0.
         25    1    4    4    0    0 -0.61730430625E+01  0.35647757453E+02  0.74072699972E+02  0.14981035363E+03  0.12509000000E+03 0.  0.
<mgrwt>
<rscale>  2 0.45413021E+03</rscale>
<asrwt>0</asrwt>
<pdfrwt beam="1">  1       21 0.78793082E-01 0.45413021E+03</pdfrwt>
<pdfrwt beam="2">  1       21 0.14151253E-01 0.45413021E+03</pdfrwt>
<totfact> 0.57140607E+04</totfact>
</mgrwt>
</event>
<event>
 7    0  0.4737014E-002  0.4611500E+03  0.7546771E-02  0.1024448E+00
         21   -1    0    0  502  501  0.00000000000E+00  0.00000000000E+00  0.26813235045E+04  0.26813235045E+04  0.00000000000E+00 0.  1.
         21   -1    0    0  501  502 -0.00000000000E+00 -0.00000000000E+00 -0.19827828585E+02  0.19827828585E+02  0.00000000000E+00 0.  1.
      99926    2    1    2    0    0 -0.35527136788E-14  0.00000000000E+00  0.26614956759E+04  0.27011513331E+04  0.46114996619E+03 0.  0.
      99925    2    3    3    0    0  0.27198460714E+02  0.11592588010E+03  0.16339678059E+04  0.16592110287E+04  0.26258690261E+03 0.  0.
         25    1    4    4    0    0 -0.24178139355E+02  0.68812525216E+02  0.86064880435E+03  0.87274487600E+03  0.12509000000E+03 0.  0.
         25    1    4    4    0    0  0.51376600069E+02  0.47113354884E+02  0.77331900150E+03  0.78646615275E+03  0.12509000000E+03 0.  0.
         25    1    3    3    0    0 -0.27198460714E+02 -0.11592588010E+03  0.10275278701E+04  0.10419403043E+04  0.12509000000E+03 0.  0.
<mgrwt>
<rscale>  2 0.46114997E+03</rscale>
<asrwt>0</asrwt>
<pdfrwt beam="1">  1       21 0.39431203E+00 0.46114997E+03</pdfrwt>
<pdfrwt beam="2">  1       21 0.29158590E-02 0.46114997E+03</pdfrwt>
<totfact> 0.50397759E+03</totfact>
</mgrwt>
</event>
<event>
 7    0  0.4737014E-002  0.4410172E+03  0.7546771E-02  0.1030435E+00
         21   -1    0    0  502  501  0.00000000000E+00  0.00000000000E+00  0.15469048475E+04  0.15469048475E+04  0.00000000000E+00 0.  1.
         21   -1    0    0  501  502 -0.00000000000E+00 -0.00000000000E+00 -0.31433117851E+02  0.31433117851E+02  0.00000000000E+00 0.  1.
      99926    2    1    2    0    0  0.00000000000E+00  0.00000000000E+00  0.15154717297E+04  0.15783379654E+04  0.44101719865E+03 0.  0.
      99925    2    3    3    0    0  0.22389910948E+02  0.95703048712E+02  0.10229767254E+04  0.10607867902E+04  0.26291985812E+03 0.  0.
         25    1    4    4    0    0  0.88909050092E-01  0.88576124622E+02  0.57632740509E+03  0.59636106825E+03  0.12509000000E+03 0.  0.
         25    1    4    4    0    0  0.22301001898E+02  0.71269240902E+01  0.44664932035E+03  0.46442572194E+03  0.12509000000E+03 0.  0.
         25    1    3    3    0    0 -0.22389910948E+02 -0.95703048712E+02  0.49249500422E+03  0.51755117518E+03  0.12509000000E+03 0.  0.
<mgrwt>
<rscale>  2 0.44101720E+03</rscale>
<asrwt>0</asrwt>
<pdfrwt beam="1">  1       21 0.22748595E+00 0.44101720E+03</pdfrwt>
<pdfrwt beam="2">  1       21 0.46225184E-02 0.44101720E+03</pdfrwt>
<totfact> 0.24474639E+04</totfact>
</mgrwt>
</event>
<event>
 7    0  0.4737014E-002  0.4496279E+03  0.7546771E-02  0.1027833E+00
         21   -1    0    0  502  501  0.00000000000E+00  0.00000000000E+00  0.93615093190E+03  0.93615093190E+03  0.00000000000E+00 0.  1.
         21   -1    0    0  501  502 -0.00000000000E+00 -0.00000000000E+00 -0.53988421088E+02  0.53988421088E+02  0.00000000000E+00 0.  1.
      99926    2    1    2    0    0  0.00000000000E+00  0.00000000000E+00  0.88216251081E+03  0.99013935298E+03  0.44962789377E+03 0.  0.
      99925    2    3    3    0    0  0.37214751139E+02 -0.94889153768E+02  0.63653032978E+03  0.69624895562E+03  0.26306436146E+03 0.  0.
         25    1    4    4    0    0  0.36816095659E+02 -0.85702430110E+02  0.32915551871E+03  0.36426802635E+03  0.12509000000E+03 0.  0.
         25    1    3    3    0    0 -0.37214751139E+02  0.94889153768E+02  0.24563218103E+03  0.29389039737E+03  0.12509000000E+03 0.  0.
         25    1    4    4    0    0  0.39865547996E+00 -0.91867236584E+01  0.30737481107E+03  0.33198092927E+03  0.12509000000E+03 0.  0.
<mgrwt>
<rscale>  2 0.44962789E+03</rscale>
<asrwt>0</asrwt>
<pdfrwt beam="1">  1       21 0.13766924E+00 0.44962789E+03</pdfrwt>
<pdfrwt beam="2">  1       21 0.79394743E-02 0.44962789E+03</pdfrwt>
<totfact> 0.41256626E+04</totfact>
</mgrwt>
</event>
<event>
 7    0  0.4737014E-002  0.4539937E+03  0.7546771E-02  0.1026538E+00
         21   -1    0    0  502  501  0.00000000000E+00  0.00000000000E+00  0.24826859318E+03  0.24826859318E+03  0.00000000000E+00 0. -1.
         21   -1    0    0  501  502 -0.00000000000E+00 -0.00000000000E+00 -0.20754771696E+03  0.20754771696E+03  0.00000000000E+00 0. -1.
      99926    2    1    2    0    0  0.00000000000E+00  0.00000000000E+00  0.40720876228E+02  0.45581631014E+03  0.45399374316E+03 0.  0.
      99925    2    3    3    0    0  0.99049010396E+02 -0.49132196311E+02  0.63608671898E+01  0.28536749819E+03  0.26300089204E+03 0.  0.
         25    1    4    4    0    0  0.21160206478E+02 -0.37614489950E+02 -0.23974066396E+02  0.13447999164E+03  0.12509000000E+03 0.  0.
         25    1    3    3    0    0 -0.99049010396E+02  0.49132196311E+02  0.34360009039E+02  0.17044881195E+03  0.12509000000E+03 0.  0.
         25    1    4    4    0    0  0.77888803918E+02 -0.11517706361E+02  0.30334933585E+02  0.15088750654E+03  0.12509000000E+03 0.  0.
<mgrwt>
<rscale>  2 0.45399374E+03</rscale>
<asrwt>0</asrwt>
<pdfrwt beam="1">  1       21 0.36510087E-01 0.45399374E+03</pdfrwt>
<pdfrwt beam="2">  1       21 0.30521723E-01 0.45399374E+03</pdfrwt>
<totfact> 0.69038669E+04</totfact>
</mgrwt>
</event>
<event>
 7    0  0.4737014E-002  0.4462591E+03  0.7546771E-02  0.1028844E+00
         21   -1    0    0  502  501  0.00000000000E+00  0.00000000000E+00  0.89026243273E+03  0.89026243273E+03  0.00000000000E+00 0. -1.
         21   -1    0    0  501  502 -0.00000000000E+00 -0.00000000000E+00 -0.55923723585E+02  0.55923723585E+02  0.00000000000E+00 0. -1.
      99926    2    1    2    0    0  0.00000000000E+00  0.44408920985E-15  0.83433870915E+03  0.94618615631E+03  0.44625907366E+03 0.  0.
      99925    2    3    3    0    0 -0.10083720158E+03 -0.30558905028E+01  0.58941002991E+03  0.65324410453E+03  0.26295664483E+03 0.  0.
         25    1    4    4    0    0 -0.92788780294E+01 -0.59788462692E+01  0.23631511454E+03  0.26760826900E+03  0.12509000000E+03 0.  0.
         25    1    3    3    0    0  0.10083720158E+03  0.30558905028E+01  0.24492867924E+03  0.29294205178E+03  0.12509000000E+03 0.  0.
         25    1    4    4    0    0 -0.91558323554E+02  0.29229557664E+01  0.35309491537E+03  0.38563583553E+03  0.12509000000E+03 0.  0.
<mgrwt>
<rscale>  2 0.44625907E+03</rscale>
<asrwt>0</asrwt>
<pdfrwt beam="1">  1       21 0.13092094E+00 0.44625907E+03</pdfrwt>
<pdfrwt beam="2">  1       21 0.82240776E-02 0.44625907E+03</pdfrwt>
<totfact> 0.44243298E+04</totfact>
</mgrwt>
</event>
<event>
 7    0  0.4737014E-002  0.4580296E+03  0.7546771E-02  0.1025354E+00
         21   -1    0    0  502  501  0.00000000000E+00  0.00000000000E+00  0.63408722613E+03  0.63408722613E+03  0.00000000000E+00 0. -1.
         21   -1    0    0  501  502 -0.00000000000E+00 -0.00000000000E+00 -0.82713811358E+02  0.82713811358E+02  0.00000000000E+00 0. -1.
      99926    2    1    2    0    0 -0.71054273576E-14  0.00000000000E+00  0.55137341477E+03  0.71680103749E+03  0.45802956763E+03 0.  0.
      99925    2    3    3    0    0  0.57972990096E+02  0.97875280273E+02  0.31027267800E+03  0.42232266571E+03  0.26295790765E+03 0.  0.
         25    1    4    4    0    0  0.58559658291E+02  0.72059470272E+02  0.13986329758E+03  0.20935866580E+03  0.12509000000E+03 0.  0.
         25    1    4    4    0    0 -0.58666819483E+00  0.25815810000E+02  0.17040938042E+03  0.21296399991E+03  0.12509000000E+03 0.  0.
         25    1    3    3    0    0 -0.57972990096E+02 -0.97875280273E+02  0.24110073677E+03  0.29447837177E+03  0.12509000000E+03 0.  0.
<mgrwt>
<rscale>  2 0.45802957E+03</rscale>
<asrwt>0</asrwt>
<pdfrwt beam="1">  1       21 0.93248119E-01 0.45802957E+03</pdfrwt>
<pdfrwt beam="2">  1       21 0.12163796E-01 0.45802957E+03</pdfrwt>
<totfact> 0.50779269E+04</totfact>
</mgrwt>
</event>
<event>
 7    0  0.4737014E-002  0.4550295E+03  0.7546771E-02  0.1026233E+00
         21   -1    0    0  502  501  0.00000000000E+00  0.00000000000E+00  0.10837001233E+04  0.10837001233E+04  0.00000000000E+00 0. -1.
         21   -1    0    0  501  502 -0.00000000000E+00 -0.00000000000E+00 -0.47765028353E+02  0.47765028353E+02  0.00000000000E+00 0. -1.
      99926    2    1    2    0    0  0.00000000000E+00  0.00000000000E+00  0.10359350950E+04  0.11314651517E+04  0.45502952484E+03 0.  0.
      99925    2    3    3    0    0  0.65176625881E+02 -0.86838572983E+02  0.73152875660E+03  0.78491117716E+03  0.26298726960E+03 0.  0.
         25    1    3    3    0    0 -0.65176625881E+02  0.86838572983E+02  0.30440633839E+03  0.34655397454E+03  0.12509000000E+03 0.  0.
         25    1    4    4    0    0  0.14552999760E+02 -0.71173195487E+02  0.31126904580E+03  0.34323947986E+03  0.12509000000E+03 0.  0.
         25    1    4    4    0    0  0.50623626121E+02 -0.15665377496E+02  0.42025971080E+03  0.44167169730E+03  0.12509000000E+03 0.  0.
<mgrwt>
<rscale>  2 0.45502952E+03</rscale>
<asrwt>0</asrwt>
<pdfrwt beam="1">  1       21 0.15936765E+00 0.45502952E+03</pdfrwt>
<pdfrwt beam="2">  1       21 0.70242696E-02 0.45502952E+03</pdfrwt>
<totfact> 0.34399354E+04</totfact>
</mgrwt>
</event>
<event>
 7    0  0.4737014E-002  0.4653965E+03  0.7546771E-02  0.1023228E+00
         21   -1    0    0  502  501  0.00000000000E+00  0.00000000000E+00  0.93418269290E+02  0.93418269290E+02  0.00000000000E+00 0.  1.
         21   -1    0    0  501  502 -0.00000000000E+00 -0.00000000000E+00 -0.57963473839E+03  0.57963473839E+03  0.00000000000E+00 0.  1.
      99926    2    1    2    0    0  0.00000000000E+00  0.00000000000E+00 -0.48621646910E+03  0.67305300768E+03  0.46539649367E+03 0.  0.
      99925    2    3    3    0    0 -0.34148206211E+01 -0.79797617843E+02 -0.43783533807E+03  0.51695187779E+03  0.26298315511E+03 0.  0.
         25    1    3    3    0    0  0.34148206211E+01  0.79797617843E+02 -0.48381131030E+02  0.15610112989E+03  0.12509000000E+03 0.  0.
         25    1    4    4    0    0 -0.25392089781E+02 -0.49313050834E+02 -0.16419930393E+03  0.21374156058E+03  0.12509000000E+03 0.  0.
         25    1    4    4    0    0  0.21977269160E+02 -0.30484567009E+02 -0.27363603414E+03  0.30321031721E+03  0.12509000000E+03 0.  0.
<mgrwt>
<rscale>  2 0.46539649E+03</rscale>
<asrwt>0</asrwt>
<pdfrwt beam="1">  1       21 0.13737981E-01 0.46539649E+03</pdfrwt>
<pdfrwt beam="2">  1       21 0.85240403E-01 0.46539649E+03</pdfrwt>
<totfact> 0.50152436E+04</totfact>
</mgrwt>
</event>
<event>
 7    0  0.4737014E-002  0.4547973E+03  0.7546771E-02  0.1026301E+00
         21   -1    0    0  502  501  0.00000000000E+00  0.00000000000E+00  0.74095210449E+03  0.74095210449E+03  0.00000000000E+00 0. -1.
         21   -1    0    0  501  502 -0.00000000000E+00 -0.00000000000E+00 -0.69788774208E+02  0.69788774208E+02  0.00000000000E+00 0. -1.
      99926    2    1    2    0    0 -0.17763568394E-14  0.14210854715E-13  0.67116333028E+03  0.81074087869E+03  0.45479726964E+03 0.  0.
      99925    2    3    3    0    0 -0.95564748569E+01  0.58761316854E+02  0.59392986295E+03  0.65213213005E+03  0.26263932373E+03 0.  0.
         25    1    4    4    0    0 -0.51741489687E+01  0.70190588936E+02  0.30850099026E+03  0.34025557995E+03  0.12509000000E+03 0.  0.
         25    1    3    3    0    0  0.95564748569E+01 -0.58761316854E+02  0.77233467326E+02  0.15860874864E+03  0.12509000000E+03 0.  0.
         25    1    4    4    0    0 -0.43823258882E+01 -0.11429272082E+02  0.28542887269E+03  0.31187655011E+03  0.12509000000E+03 0.  0.
<mgrwt>
<rscale>  2 0.45479727E+03</rscale>
<asrwt>0</asrwt>
<pdfrwt beam="1">  1       21 0.10896354E+00 0.45479727E+03</pdfrwt>
<pdfrwt beam="2">  1       21 0.10263055E-01 0.45479727E+03</pdfrwt>
<totfact> 0.47324914E+04</totfact>
</mgrwt>
</event>
<event>
 7    0  0.4737014E-002  0.4187855E+03  0.7546771E-02  0.1037462E+00
         21   -1    0    0  502  501  0.00000000000E+00  0.00000000000E+00  0.31133665383E+04  0.31133665383E+04  0.00000000000E+00 0.  1.
         21   -1    0    0  501  502 -0.00000000000E+00 -0.00000000000E+00 -0.14082933414E+02  0.14082933414E+02  0.00000000000E+00 0.  1.
      99926    2    1    2    0    0  0.71054273576E-14  0.00000000000E+00  0.30992836048E+04  0.31274494717E+04  0.41878554727E+03 0.  0.
      99925    2    3    3    0    0  0.35832767583E+02  0.22211572827E+02  0.24797619344E+04  0.24940207469E+04  0.26295036249E+03 0.  0.
         25    1    4    4    0    0  0.34010191869E+02  0.32476140180E+02  0.98980249388E+03  0.99878319861E+03  0.12509000000E+03 0.  0.
         25    1    3    3    0    0 -0.35832767583E+02 -0.22211572827E+02  0.61952167040E+03  0.63342872480E+03  0.12509000000E+03 0.  0.
         25    1    4    4    0    0  0.18225757140E+01 -0.10264567353E+02  0.14899594406E+04  0.14952375483E+04  0.12509000000E+03 0.  0.
<mgrwt>
<rscale>  2 0.41878555E+03</rscale>
<asrwt>0</asrwt>
<pdfrwt beam="1">  1       21 0.45784754E+00 0.41878555E+03</pdfrwt>
<pdfrwt beam="2">  1       21 0.20710218E-02 0.41878555E+03</pdfrwt>
<totfact> 0.34800849E+03</totfact>
</mgrwt>
</event>
<event>
 7    0  0.4737014E-002  0.4517407E+03  0.7546771E-02  0.1027204E+00
         21   -1    0    0  502  501  0.00000000000E+00  0.00000000000E+00  0.46656070904E+02  0.46656070904E+02  0.00000000000E+00 0. -1.
         21   -1    0    0  501  502 -0.00000000000E+00 -0.00000000000E+00 -0.10934787282E+04  0.10934787282E+04  0.00000000000E+00 0. -1.
      99926    2    1    2    0    0  0.00000000000E+00  0.00000000000E+00 -0.10468226573E+04  0.11401347991E+04  0.45174072686E+03 0.  0.
      99925    2    3    3    0    0 -0.83401452573E+02  0.26961774112E+02 -0.82882093339E+03  0.87394877528E+03  0.26298209565E+03 0.  0.
         25    1    3    3    0    0  0.83401452573E+02 -0.26961774112E+02 -0.21800172392E+03  0.26618602384E+03  0.12509000000E+03 0.  0.
         25    1    4    4    0    0 -0.29658107902E+01 -0.32590869698E+01 -0.35521590887E+03  0.37662350922E+03  0.12509000000E+03 0.  0.
         25    1    4    4    0    0 -0.80435641783E+02  0.30220861082E+02 -0.47360502452E+03  0.49732526607E+03  0.12509000000E+03 0.  0.
<mgrwt>
<rscale>  2 0.45174073E+03</rscale>
<asrwt>0</asrwt>
<pdfrwt beam="1">  1       21 0.68611876E-02 0.45174073E+03</pdfrwt>
<pdfrwt beam="2">  1       21 0.16080568E+00 0.45174073E+03</pdfrwt>
<totfact> 0.34994043E+04</totfact>
</mgrwt>
</event>
<event>
 7    0  0.4737014E-002  0.4606871E+03  0.7546771E-02  0.1024582E+00
         21   -1    0    0  502  501  0.00000000000E+00  0.00000000000E+00  0.18335666184E+03  0.18335666184E+03  0.00000000000E+00 0.  1.
         21   -1    0    0  501  502 -0.00000000000E+00 -0.00000000000E+00 -0.28937132326E+03  0.28937132326E+03  0.00000000000E+00 0.  1.
      99926    2    1    2    0    0  0.00000000000E+00 -0.14210854715E-13 -0.10601466142E+03  0.47272798509E+03  0.46068713836E+03 0.  0.
      99925    2    3    3    0    0  0.73939657261E+02  0.82817302056E+02 -0.10884482157E+03  0.30545187699E+03  0.26292180499E+03 0.  0.
         25    1    4    4    0    0  0.56094298090E+02  0.86148845089E+01 -0.68342611916E+02  0.15342427193E+03  0.12509000000E+03 0.  0.
         25    1    4    4    0    0  0.17845359171E+02  0.74202417547E+02 -0.40502209656E+02  0.15202760506E+03  0.12509000000E+03 0.  0.
         25    1    3    3    0    0 -0.73939657261E+02 -0.82817302056E+02  0.28301601511E+01  0.16727610810E+03  0.12509000000E+03 0.  0.
<mgrwt>
<rscale>  2 0.46068714E+03</rscale>
<asrwt>0</asrwt>
<pdfrwt beam="1">  1       21 0.26964215E-01 0.46068714E+03</pdfrwt>
<pdfrwt beam="2">  1       21 0.42554606E-01 0.46068714E+03</pdfrwt>
<totfact> 0.64284091E+04</totfact>
</mgrwt>
</event>
<event>
 7    0  0.4737014E-002  0.4574052E+03  0.7546771E-02  0.1025536E+00
         21   -1    0    0  502  501  0.00000000000E+00  0.00000000000E+00  0.10846876140E+03  0.10846876140E+03  0.00000000000E+00 0. -1.
         21   -1    0    0  501  502 -0.00000000000E+00 -0.00000000000E+00 -0.48221155023E+03  0.48221155023E+03  0.00000000000E+00 0. -1.
      99926    2    1    2    0    0  0.14210854715E-13  0.00000000000E+00 -0.37374278883E+03  0.59068031163E+03  0.45740524521E+03 0.  0.
      99925    2    3    3    0    0  0.10786473357E+03 -0.22448287112E+02 -0.19152254025E+03  0.34371785814E+03  0.26329139036E+03 0.  0.
         25    1    4    4    0    0  0.85920821055E+02 -0.21079776786E+02 -0.71896510785E+02  0.16924349572E+03  0.12509000000E+03 0.  0.
         25    1    4    4    0    0  0.21943912511E+02 -0.13685103258E+01 -0.11962602947E+03  0.17447436242E+03  0.12509000000E+03 0.  0.
         25    1    3    3    0    0 -0.10786473357E+03  0.22448287112E+02 -0.18222024857E+03  0.24696245349E+03  0.12509000000E+03 0.  0.
<mgrwt>
<rscale>  2 0.45740525E+03</rscale>
<asrwt>0</asrwt>
<pdfrwt beam="1">  1       21 0.15951288E-01 0.45740525E+03</pdfrwt>
<pdfrwt beam="2">  1       21 0.70913464E-01 0.45740525E+03</pdfrwt>
<totfact> 0.58142435E+04</totfact>
</mgrwt>
</event>
<event>
 7    0  0.4737014E-002  0.4550808E+03  0.7546771E-02  0.1026218E+00
         21   -1    0    0  502  501  0.00000000000E+00  0.00000000000E+00  0.75927032731E+02  0.75927032731E+02  0.00000000000E+00 0. -1.
         21   -1    0    0  501  502 -0.00000000000E+00 -0.00000000000E+00 -0.68189979216E+03  0.68189979216E+03  0.00000000000E+00 0. -1.
      99926    2    1    2    0    0  0.00000000000E+00  0.00000000000E+00 -0.60597275943E+03  0.75782682489E+03  0.45508077454E+03 0.  0.
      99925    2    3    3    0    0  0.87560360276E+02 -0.71841343060E+02 -0.38087268381E+03  0.47649864037E+03  0.26298090755E+03 0.  0.
         25    1    4    4    0    0  0.58803443119E+02 -0.73278990515E+02 -0.23347158273E+03  0.28104117744E+03  0.12509000000E+03 0.  0.
         25    1    3    3    0    0 -0.87560360276E+02  0.71841343060E+02 -0.22510007562E+03  0.28132818452E+03  0.12509000000E+03 0.  0.
         25    1    4    4    0    0  0.28756917157E+02  0.14376474547E+01 -0.14740110108E+03  0.19545746293E+03  0.12509000000E+03 0.  0.
<mgrwt>
<rscale>  2 0.45508077E+03</rscale>
<asrwt>0</asrwt>
<pdfrwt beam="1">  1       21 0.11165740E-01 0.45508077E+03</pdfrwt>
<pdfrwt beam="2">  1       21 0.10027938E+00 0.45508077E+03</pdfrwt>
<totfact> 0.49840093E+04</totfact>
</mgrwt>
</event>
<event>
 7    0  0.4737014E-002  0.4545737E+03  0.7546771E-02  0.1026367E+00
         21   -1    0    0  502  501  0.00000000000E+00  0.00000000000E+00  0.23635684450E+03  0.23635684450E+03  0.00000000000E+00 0. -1.
         21   -1    0    0  501  502 -0.00000000000E+00 -0.00000000000E+00 -0.21856489054E+03  0.21856489054E+03  0.00000000000E+00 0. -1.
      99926    2    1    2    0    0  0.00000000000E+00  0.00000000000E+00  0.17791953963E+02  0.45492173504E+03  0.45457368092E+03 0.  0.
      99925    2    3    3    0    0 -0.22060636544E+02  0.69909839974E+02 -0.74436200686E+02  0.28308577250E+03  0.26310216497E+03 0.  0.
         25    1    3    3    0    0  0.22060636544E+02 -0.69909839974E+02  0.92228154649E+02  0.17183596253E+03  0.12509000000E+03 0.  0.
         25    1    4    4    0    0 -0.41225302518E+02  0.93216356067E+01 -0.25404868515E+02  0.13445941359E+03  0.12509000000E+03 0.  0.
         25    1    4    4    0    0  0.19164665974E+02  0.60588204367E+02 -0.49031332171E+02  0.14862635892E+03  0.12509000000E+03 0.  0.
<mgrwt>
<rscale>  2 0.45457368E+03</rscale>
<asrwt>0</asrwt>
<pdfrwt beam="1">  1       21 0.34758360E-01 0.45457368E+03</pdfrwt>
<pdfrwt beam="2">  1       21 0.32141896E-01 0.45457368E+03</pdfrwt>
<totfact> 0.68785224E+04</totfact>
</mgrwt>
</event>
<event>
 7    0  0.4737014E-002  0.4575459E+03  0.7546771E-02  0.1025495E+00
         21   -1    0    0  502  501  0.00000000000E+00  0.00000000000E+00  0.18222535890E+03  0.18222535890E+03  0.00000000000E+00 0.  1.
         21   -1    0    0  501  502 -0.00000000000E+00 -0.00000000000E+00 -0.28721063363E+03  0.28721063363E+03  0.00000000000E+00 0.  1.
      99926    2    1    2    0    0  0.00000000000E+00  0.35527136788E-14 -0.10498527473E+03  0.46943599254E+03  0.45754589188E+03 0.  0.
      99925    2    3    3    0    0 -0.10728563081E+03  0.25806083604E+02 -0.30518244191E+02  0.28676413574E+03  0.26291851549E+03 0.  0.
         25    1    4    4    0    0 -0.67495861522E+02 -0.25032999760E+02 -0.17942191734E+02  0.14543649041E+03  0.12509000000E+03 0.  0.
         25    1    3    3    0    0  0.10728563081E+03 -0.25806083604E+02 -0.74467030538E+02  0.18267185680E+03  0.12509000000E+03 0.  0.
         25    1    4    4    0    0 -0.39789769287E+02  0.50839083364E+02 -0.12576052457E+02  0.14132764532E+03  0.12509000000E+03 0.  0.
<mgrwt>
<rscale>  2 0.45754589E+03</rscale>
<asrwt>0</asrwt>
<pdfrwt beam="1">  1       21 0.26797847E-01 0.45754589E+03</pdfrwt>
<pdfrwt beam="2">  1       21 0.42236857E-01 0.45754589E+03</pdfrwt>
<totfact> 0.66132257E+04</totfact>
</mgrwt>
</event>
<event>
 7    0  0.4737014E-002  0.4586113E+03  0.7546771E-02  0.1025185E+00
         21   -1    0    0  502  501  0.00000000000E+00  0.00000000000E+00  0.12412638464E+04  0.12412638464E+04  0.00000000000E+00 0.  1.
         21   -1    0    0  501  502 -0.00000000000E+00 -0.00000000000E+00 -0.42360922589E+02  0.42360922589E+02  0.00000000000E+00 0.  1.
      99926    2    1    2    0    0  0.00000000000E+00  0.00000000000E+00  0.11989029238E+04  0.12836247690E+04  0.45861130257E+03 0.  0.
      99925    2    3    3    0    0  0.67798574940E+02  0.13041081740E+02  0.10147290282E+04  0.10505276894E+04  0.26299564445E+03 0.  0.
         25    1    4    4    0    0  0.36810391348E+01  0.17403963832E+01  0.58549179579E+03  0.59871924144E+03  0.12509000000E+03 0.  0.
         25    1    3    3    0    0 -0.67798574940E+02 -0.13041081740E+02  0.18417389561E+03  0.23309707957E+03  0.12509000000E+03 0.  0.
         25    1    4    4    0    0  0.64117535806E+02  0.11300685357E+02  0.42923723242E+03  0.45180844800E+03  0.12509000000E+03 0.  0.
<mgrwt>
<rscale>  2 0.45861130E+03</rscale>
<asrwt>0</asrwt>
<pdfrwt beam="1">  1       21 0.18253878E+00 0.45861130E+03</pdfrwt>
<pdfrwt beam="2">  1       21 0.62295483E-02 0.45861130E+03</pdfrwt>
<totfact> 0.28776853E+04</totfact>
</mgrwt>
</event>
<event>
 7    0  0.4737014E-002  0.4549512E+03  0.7546771E-02  0.1026256E+00
         21   -1    0    0  502  501  0.00000000000E+00  0.00000000000E+00  0.18642610941E+03  0.18642610941E+03  0.00000000000E+00 0. -1.
         21   -1    0    0  501  502 -0.00000000000E+00 -0.00000000000E+00 -0.27756379100E+03  0.27756379100E+03  0.00000000000E+00 0. -1.
      99926    2    1    2    0    0  0.00000000000E+00  0.00000000000E+00 -0.91137681587E+02  0.46398990040E+03  0.45495115196E+03 0.  0.
      99925    2    3    3    0    0 -0.70196499010E+02 -0.35974825614E+02  0.25443603012E+02  0.27568047268E+03  0.26292700419E+03 0.  0.
         25    1    4    4    0    0 -0.26559844141E+02  0.22106202870E+02  0.88464113876E+01  0.13007642608E+03  0.12509000000E+03 0.  0.
         25    1    3    3    0    0  0.70196499010E+02  0.35974825614E+02 -0.11658128460E+03  0.18830942772E+03  0.12509000000E+03 0.  0.
         25    1    4    4    0    0 -0.43636654870E+02 -0.58081028484E+02  0.16597191624E+02  0.14560404660E+03  0.12509000000E+03 0.  0.
<mgrwt>
<rscale>  2 0.45495115E+03</rscale>
<asrwt>0</asrwt>
<pdfrwt beam="1">  1       21 0.27415605E-01 0.45495115E+03</pdfrwt>
<pdfrwt beam="2">  1       21 0.40818204E-01 0.45495115E+03</pdfrwt>
<totfact> 0.67911651E+04</totfact>
</mgrwt>
</event>
<event>
 7    0  0.4737014E-002  0.4517932E+03  0.7546771E-02  0.1027189E+00
         21   -1    0    0  502  501  0.00000000000E+00  0.00000000000E+00  0.20290981599E+03  0.20290981599E+03  0.00000000000E+00 0. -1.
         21   -1    0    0  501  502 -0.00000000000E+00 -0.00000000000E+00 -0.25148742861E+03  0.25148742861E+03  0.00000000000E+00 0. -1.
      99926    2    1    2    0    0  0.00000000000E+00 -0.14210854715E-13 -0.48577612619E+02  0.45439724460E+03  0.45179317331E+03 0.  0.
      99925    2    3    3    0    0 -0.37258194780E+02 -0.10355631354E+03 -0.26076235213E+02  0.28627257884E+03  0.26298276787E+03 0.  0.
         25    1    4    4    0    0 -0.57625791077E+02 -0.46142229423E+02 -0.33120829137E+01  0.14528700949E+03  0.12509000000E+03 0.  0.
         25    1    3    3    0    0  0.37258194780E+02  0.10355631354E+03 -0.22501377407E+02  0.16812466576E+03  0.12509000000E+03 0.  0.
         25    1    4    4    0    0  0.20367596297E+02 -0.57414084120E+02 -0.22764152299E+02  0.14098556935E+03  0.12509000000E+03 0.  0.
<mgrwt>
<rscale>  2 0.45179317E+03</rscale>
<asrwt>0</asrwt>
<pdfrwt beam="1">  1       21 0.29839679E-01 0.45179317E+03</pdfrwt>
<pdfrwt beam="2">  1       21 0.36983445E-01 0.45179317E+03</pdfrwt>
<totfact> 0.70373316E+04</totfact>
</mgrwt>
</event>
<event>
 7    0  0.4737014E-002  0.4546109E+03  0.7546771E-02  0.1026356E+00
         21   -1    0    0  502  501  0.00000000000E+00  0.00000000000E+00  0.15015466066E+03  0.15015466066E+03  0.00000000000E+00 0. -1.
         21   -1    0    0  501  502 -0.00000000000E+00 -0.00000000000E+00 -0.34409698107E+03  0.34409698107E+03  0.00000000000E+00 0. -1.
      99926    2    1    2    0    0  0.00000000000E+00 -0.14210854715E-13 -0.19394232041E+03  0.49425164173E+03  0.45461089044E+03 0.  0.
      99925    2    3    3    0    0  0.81089518379E+02  0.78208682001E+02 -0.11887319649E+03  0.30992858458E+03  0.26312123206E+03 0.  0.
         25    1    4    4    0    0  0.59232668965E+02  0.68618184437E+02 -0.91921321830E+02  0.17976095743E+03  0.12509000000E+03 0.  0.
         25    1    4    4    0    0  0.21856849414E+02  0.95904975641E+01 -0.26951874658E+02  0.13016762715E+03  0.12509000000E+03 0.  0.
         25    1    3    3    0    0 -0.81089518379E+02 -0.78208682001E+02 -0.75069123923E+02  0.18432305715E+03  0.12509000000E+03 0.  0.
<mgrwt>
<rscale>  2 0.45461089E+03</rscale>
<asrwt>0</asrwt>
<pdfrwt beam="1">  1       21 0.22081568E-01 0.45461089E+03</pdfrwt>
<pdfrwt beam="2">  1       21 0.50602497E-01 0.45461089E+03</pdfrwt>
<totfact> 0.65879677E+04</totfact>
</mgrwt>
</event>
<event>
 7    0  0.4737014E-002  0.4718755E+03  0.7546771E-02  0.1021392E+00
         21   -1    0    0  502  501  0.00000000000E+00  0.00000000000E+00  0.32247541013E+03  0.32247541013E+03  0.00000000000E+00 0. -1.
         21   -1    0    0  501  502 -0.00000000000E+00 -0.00000000000E+00 -0.17262283833E+03  0.17262283833E+03  0.00000000000E+00 0. -1.
      99926    2    1    2    0    0 -0.17763568394E-14  0.14210854715E-13  0.14985257180E+03  0.49509824846E+03  0.47187549454E+03 0.  0.
      99925    2    3    3    0    0 -0.15211394047E+02  0.11292031382E+03  0.30854271319E+02  0.28823963152E+03  0.26295953175E+03 0.  0.
         25    1    4    4    0    0 -0.40468374665E+02  0.82266917675E+02  0.10726393675E+02  0.15546092343E+03  0.12509000000E+03 0.  0.
         25    1    4    4    0    0  0.25256980618E+02  0.30653396142E+02  0.20127877644E+02  0.13277870810E+03  0.12509000000E+03 0.  0.
         25    1    3    3    0    0  0.15211394047E+02 -0.11292031382E+03  0.11899830048E+03  0.20685861693E+03  0.12509000000E+03 0.  0.
<mgrwt>
<rscale>  2 0.47187549E+03</rscale>
<asrwt>0</asrwt>
<pdfrwt beam="1">  1       21 0.47422854E-01 0.47187549E+03</pdfrwt>
<pdfrwt beam="2">  1       21 0.25385712E-01 0.47187549E+03</pdfrwt>
<totfact> 0.57516589E+04</totfact>
</mgrwt>
</event>
<event>
 7    0  0.4737014E-002  0.4611997E+03  0.7546771E-02  0.1024434E+00
         21   -1    0    0  502  501  0.00000000000E+00  0.00000000000E+00  0.29469478588E+03  0.29469478588E+03  0.00000000000E+00 0.  1.
         21   -1    0    0  501  502 -0.00000000000E+00 -0.00000000000E+00 -0.18044533276E+03  0.18044533276E+03  0.00000000000E+00 0.  1.
      99926    2    1    2    0    0  0.14210854715E-13 -0.88817841970E-15  0.11424945312E+03  0.47514011865E+03  0.46119973418E+03 0.  0.
      99925    2    3    3    0    0 -0.11601175439E+03  0.78063542337E+01  0.95714650515E+02  0.30335329339E+03  0.26332918556E+03 0.  0.
         25    1    4    4    0    0 -0.15290246432E+02 -0.66040352452E+00  0.54704746012E+02  0.13738393321E+03  0.12509000000E+03 0.  0.
         25    1    4    4    0    0 -0.10072150796E+03  0.84667577582E+01  0.41009904502E+02  0.16596936018E+03  0.12509000000E+03 0.  0.
         25    1    3    3    0    0  0.11601175439E+03 -0.78063542337E+01  0.18534802604E+02  0.17178682525E+03  0.12509000000E+03 0.  0.
<mgrwt>
<rscale>  2 0.46119973E+03</rscale>
<asrwt>0</asrwt>
<pdfrwt beam="1">  1       21 0.43337469E-01 0.46119973E+03</pdfrwt>
<pdfrwt beam="2">  1       21 0.26536078E-01 0.46119973E+03</pdfrwt>
<totfact> 0.63856362E+04</totfact>
</mgrwt>
</event>
<event>
 7    0  0.4737014E-002  0.4558501E+03  0.7546771E-02  0.1025992E+00
         21   -1    0    0  502  501  0.00000000000E+00  0.00000000000E+00  0.29941586496E+03  0.29941586496E+03  0.00000000000E+00 0.  1.
         21   -1    0    0  501  502 -0.00000000000E+00 -0.00000000000E+00 -0.17350396008E+03  0.17350396008E+03  0.00000000000E+00 0.  1.
      99926    2    1    2    0    0  0.00000000000E+00  0.00000000000E+00  0.12591190487E+03  0.47291982504E+03  0.45585014328E+03 0.  0.
      99925    2    3    3    0    0 -0.72957817371E+02 -0.46982711961E+02  0.45796607749E+01  0.27824255390E+03  0.26432504076E+03 0.  0.
         25    1    3    3    0    0  0.72957817371E+02  0.46982711961E+02  0.12133224410E+03  0.19467727114E+03  0.12509000000E+03 0.  0.
         25    1    4    4    0    0 -0.11420121315E+01 -0.30727346038E+02  0.26307899300E+02  0.13147276392E+03  0.12509000000E+03 0.  0.
         25    1    4    4    0    0 -0.71815805239E+02 -0.16255365922E+02 -0.21728238525E+02  0.14676978999E+03  0.12509000000E+03 0.  0.
<mgrwt>
<rscale>  2 0.45585014E+03</rscale>
<asrwt>0</asrwt>
<pdfrwt beam="1">  1       21 0.44031745E-01 0.45585014E+03</pdfrwt>
<pdfrwt beam="2">  1       21 0.25515288E-01 0.45585014E+03</pdfrwt>
<totfact> 0.66767737E+04</totfact>
</mgrwt>
</event>
<event>
 7    0  0.4737014E-002  0.4395829E+03  0.7546771E-02  0.1030875E+00
         21   -1    0    0  502  501  0.00000000000E+00  0.00000000000E+00  0.74326366168E+02  0.74326366168E+02  0.00000000000E+00 0. -1.
         21   -1    0    0  501  502 -0.00000000000E+00 -0.00000000000E+00 -0.64994804702E+03  0.64994804702E+03  0.00000000000E+00 0. -1.
      99926    2    1    2    0    0  0.00000000000E+00  0.35527136788E-14 -0.57562168085E+03  0.72427441319E+03  0.43958287743E+03 0.  0.
      99925    2    3    3    0    0 -0.76323255219E+02 -0.28111741657E+02 -0.45771728613E+03  0.53410484754E+03  0.26295886528E+03 0.  0.
         25    1    4    4    0    0 -0.24089839201E+02  0.20546129980E+02 -0.18292277866E+03  0.22385422681E+03  0.12509000000E+03 0.  0.
         25    1    4    4    0    0 -0.52233416017E+02 -0.48657871637E+02 -0.27479450748E+03  0.31025062072E+03  0.12509000000E+03 0.  0.
         25    1    3    3    0    0  0.76323255219E+02  0.28111741657E+02 -0.11790439472E+03  0.19016956565E+03  0.12509000000E+03 0.  0.
<mgrwt>
<rscale>  2 0.43958288E+03</rscale>
<asrwt>0</asrwt>
<pdfrwt beam="1">  1       21 0.10930348E-01 0.43958288E+03</pdfrwt>
<pdfrwt beam="2">  1       21 0.95580593E-01 0.43958288E+03</pdfrwt>
<totfact> 0.58366219E+04</totfact>
</mgrwt>
</event>
<event>
 7    0  0.4737014E-002  0.4687674E+03  0.7546771E-02  0.1022269E+00
         21   -1    0    0  502  501  0.00000000000E+00  0.00000000000E+00  0.62775838077E+02  0.62775838077E+02  0.00000000000E+00 0.  1.
         21   -1    0    0  501  502 -0.00000000000E+00 -0.00000000000E+00 -0.87510924867E+03  0.87510924867E+03  0.00000000000E+00 0.  1.
      99926    2    1    2    0    0  0.00000000000E+00  0.00000000000E+00 -0.81233341060E+03  0.93788508675E+03  0.46876739005E+03 0.  0.
      99925    2    3    3    0    0  0.66304771168E+02 -0.87877043437E+02 -0.38379802360E+03  0.47809297780E+03  0.26297010298E+03 0.  0.
         25    1    4    4    0    0  0.64204623184E+02 -0.48799949875E+02 -0.15835993340E+03  0.21732244558E+03  0.12509000000E+03 0.  0.
         25    1    3    3    0    0 -0.66304771168E+02  0.87877043437E+02 -0.42853538700E+03  0.45979210895E+03  0.12509000000E+03 0.  0.
         25    1    4    4    0    0  0.21001479840E+01 -0.39077093562E+02 -0.22543809020E+03  0.26077053222E+03  0.12509000000E+03 0.  0.
<mgrwt>
<rscale>  2 0.46876739E+03</rscale>
<asrwt>0</asrwt>
<pdfrwt beam="1">  1       21 0.92317422E-02 0.46876739E+03</pdfrwt>
<pdfrwt beam="2">  1       21 0.12869252E+00 0.46876739E+03</pdfrwt>
<totfact> 0.37437028E+04</totfact>
</mgrwt>
</event>
<event>
 7    0  0.4737014E-002  0.4630523E+03  0.7546771E-02  0.1023900E+00
         21   -1    0    0  502  501  0.00000000000E+00  0.00000000000E+00  0.11669084702E+03  0.11669084702E+03  0.00000000000E+00 0.  1.
         21   -1    0    0  501  502 -0.00000000000E+00 -0.00000000000E+00 -0.45937078668E+03  0.45937078668E+03  0.00000000000E+00 0.  1.
      99926    2    1    2    0    0  0.00000000000E+00  0.00000000000E+00 -0.34267993966E+03  0.57606163369E+03  0.46305233480E+03 0.  0.
      99925    2    3    3    0    0  0.33562544640E+02 -0.96869016369E+02 -0.13510340624E+03  0.31291609210E+03  0.26297052987E+03 0.  0.
         25    1    4    4    0    0  0.42208573886E+02 -0.47962058742E+02 -0.33822504000E+02  0.14447627025E+03  0.12509000000E+03 0.  0.
         25    1    4    4    0    0 -0.86460292456E+01 -0.48906957628E+02 -0.10128090224E+03  0.16843982185E+03  0.12509000000E+03 0.  0.
         25    1    3    3    0    0 -0.33562544640E+02  0.96869016369E+02 -0.20757653342E+03  0.26314554159E+03  0.12509000000E+03 0.  0.
<mgrwt>
<rscale>  2 0.46305233E+03</rscale>
<asrwt>0</asrwt>
<pdfrwt beam="1">  1       21 0.17160419E-01 0.46305233E+03</pdfrwt>
<pdfrwt beam="2">  1       21 0.67554527E-01 0.46305233E+03</pdfrwt>
<totfact> 0.56492858E+04</totfact>
</mgrwt>
</event>
<event>
 7    0  0.4737014E-002  0.4550488E+03  0.7546771E-02  0.1026227E+00
         21   -1    0    0  502  501  0.00000000000E+00  0.00000000000E+00  0.83088991126E+03  0.83088991126E+03  0.00000000000E+00 0.  1.
         21   -1    0    0  501  502 -0.00000000000E+00 -0.00000000000E+00 -0.62303516683E+02  0.62303516683E+02  0.00000000000E+00 0.  1.
      99926    2    1    2    0    0  0.00000000000E+00  0.00000000000E+00  0.76858639458E+03  0.89319342794E+03  0.45504884770E+03 0.  0.
      99925    2    3    3    0    0 -0.24609633250E+02 -0.47938426656E+02  0.28799175023E+03  0.39367120914E+03  0.26293353896E+03 0.  0.
         25    1    3    3    0    0  0.24609633250E+02  0.47938426656E+02  0.48059464435E+03  0.49952221880E+03  0.12509000000E+03 0.  0.
         25    1    4    4    0    0 -0.46267723054E+02 -0.47099018495E+02  0.15202614884E+03  0.20764989230E+03  0.12509000000E+03 0.  0.
         25    1    4    4    0    0  0.21658089804E+02 -0.83940816161E+00  0.13596560139E+03  0.18602131685E+03  0.12509000000E+03 0.  0.
<mgrwt>
<rscale>  2 0.45504885E+03</rscale>
<asrwt>0</asrwt>
<pdfrwt beam="1">  1       21 0.12218969E+00 0.45504885E+03</pdfrwt>
<pdfrwt beam="2">  1       21 0.91622824E-02 0.45504885E+03</pdfrwt>
<totfact> 0.43512641E+04</totfact>
</mgrwt>
</event>
<event>
 7    0  0.4737014E-002  0.4512460E+03  0.7546771E-02  0.1027351E+00
         21   -1    0    0  502  501  0.00000000000E+00  0.00000000000E+00  0.22567790245E+03  0.22567790245E+03  0.00000000000E+00 0.  1.
         21   -1    0    0  501  502 -0.00000000000E+00 -0.00000000000E+00 -0.22556814661E+03  0.22556814661E+03  0.00000000000E+00 0.  1.
      99926    2    1    2    0    0  0.44408920985E-14  0.00000000000E+00  0.10975583835E+00  0.45124604906E+03  0.45124603571E+03 0.  0.
      99925    2    3    3    0    0 -0.33486439578E+01 -0.86491559318E+02 -0.67042346692E+02  0.28496641644E+03  0.26309538004E+03 0.  0.
         25    1    3    3    0    0  0.33486439578E+01  0.86491559318E+02  0.67152102531E+02  0.16627963262E+03  0.12509000000E+03 0.  0.
         25    1    4    4    0    0 -0.37668424426E+02 -0.63176666467E+02 -0.38188004672E+02  0.15005343443E+03  0.12509000000E+03 0.  0.
         25    1    4    4    0    0  0.34319780468E+02 -0.23314892851E+02 -0.28854342020E+02  0.13491298200E+03  0.12509000000E+03 0.  0.
<mgrwt>
<rscale>  2 0.45124604E+03</rscale>
<asrwt>0</asrwt>
<pdfrwt beam="1">  1       21 0.33187927E-01 0.45124604E+03</pdfrwt>
<pdfrwt beam="2">  1       21 0.33171786E-01 0.45124604E+03</pdfrwt>
<totfact> 0.70922310E+04</totfact>
</mgrwt>
</event>
<event>
 7    0  0.4737014E-002  0.4571693E+03  0.7546771E-02  0.1025605E+00
         21   -1    0    0  502  501  0.00000000000E+00  0.00000000000E+00  0.14036440622E+03  0.14036440622E+03  0.00000000000E+00 0.  1.
         21   -1    0    0  501  502 -0.00000000000E+00 -0.00000000000E+00 -0.37225215191E+03  0.37225215191E+03  0.00000000000E+00 0.  1.
      99926    2    1    2    0    0 -0.35527136788E-14  0.00000000000E+00 -0.23188774570E+03  0.51261655813E+03  0.45716934397E+03 0.  0.
      99925    2    3    3    0    0  0.29499005582E+02 -0.10834006175E+02 -0.26978287764E+03  0.37818770653E+03  0.26316453652E+03 0.  0.
         25    1    4    4    0    0 -0.23632264005E+02 -0.18490891335E+02 -0.12249346826E+03  0.17763038825E+03  0.12509000000E+03 0.  0.
         25    1    3    3    0    0 -0.29499005582E+02  0.10834006175E+02  0.37895131942E+02  0.13442885161E+03  0.12509000000E+03 0.  0.
         25    1    4    4    0    0  0.53131269587E+02  0.76568851599E+01 -0.14728940938E+03  0.20055731827E+03  0.12509000000E+03 0.  0.
<mgrwt>
<rscale>  2 0.45716934E+03</rscale>
<asrwt>0</asrwt>
<pdfrwt beam="1">  1       21 0.20641824E-01 0.45716934E+03</pdfrwt>
<pdfrwt beam="2">  1       21 0.54742963E-01 0.45716934E+03</pdfrwt>
<totfact> 0.63296350E+04</totfact>
</mgrwt>
</event>
<event>
 7    0  0.4737014E-002  0.4548891E+03  0.7546771E-02  0.1026274E+00
         21   -1    0    0  502  501  0.00000000000E+00  0.00000000000E+00  0.14504967330E+03  0.14504967330E+03  0.00000000000E+00 0.  1.
         21   -1    0    0  501  502 -0.00000000000E+00 -0.00000000000E+00 -0.35664349227E+03  0.35664349227E+03  0.00000000000E+00 0.  1.
      99926    2    1    2    0    0  0.17763568394E-14  0.00000000000E+00 -0.21159381898E+03  0.50169316557E+03  0.45488909434E+03 0.  0.
      99925    2    3    3    0    0 -0.11346082213E+02  0.10915354661E+03 -0.16146706968E+03  0.32790182685E+03  0.26344783761E+03 0.  0.
         25    1    4    4    0    0 -0.35981324988E+01  0.78257500431E+02 -0.45693911962E+02  0.15450768467E+03  0.12509000000E+03 0.  0.
         25    1    4    4    0    0 -0.77479497139E+01  0.30896046181E+02 -0.11577315772E+03  0.17339414218E+03  0.12509000000E+03 0.  0.
         25    1    3    3    0    0  0.11346082213E+02 -0.10915354661E+03 -0.50126749293E+02  0.17379133872E+03  0.12509000000E+03 0.  0.
<mgrwt>
<rscale>  2 0.45488909E+03</rscale>
<asrwt>0</asrwt>
<pdfrwt beam="1">  1       21 0.21330834E-01 0.45488909E+03</pdfrwt>
<pdfrwt beam="2">  1       21 0.52447572E-01 0.45488909E+03</pdfrwt>
<totfact> 0.65209263E+04</totfact>
</mgrwt>
</event>
<event>
 7    0  0.4737014E-002  0.4680636E+03  0.7546771E-02  0.1022468E+00
         21   -1    0    0  502  501  0.00000000000E+00  0.00000000000E+00  0.63196734089E+03  0.63196734089E+03  0.00000000000E+00 0.  1.
         21   -1    0    0  501  502 -0.00000000000E+00 -0.00000000000E+00 -0.86667262598E+02  0.86667262598E+02  0.00000000000E+00 0.  1.
      99926    2    1    2    0    0  0.00000000000E+00 -0.71054273576E-14  0.54530007829E+03  0.71863460349E+03  0.46806358323E+03 0.  0.
      99925    2    3    3    0    0  0.92420052454E+02 -0.41075979774E+02  0.45211080624E+03  0.53273019059E+03  0.26299918752E+03 0.  0.
         25    1    4    4    0    0  0.34837026384E+02  0.19006729169E+02  0.19861801914E+03  0.23805776566E+03  0.12509000000E+03 0.  0.
         25    1    3    3    0    0 -0.92420052454E+02  0.41075979774E+02  0.93189272053E+02  0.18590441290E+03  0.12509000000E+03 0.  0.
         25    1    4    4    0    0  0.57583026070E+02 -0.60082708943E+02  0.25349278710E+03  0.29467242493E+03  0.12509000000E+03 0.  0.
<mgrwt>
<rscale>  2 0.46806358E+03</rscale>
<asrwt>0</asrwt>
<pdfrwt beam="1">  1       21 0.92936372E-01 0.46806358E+03</pdfrwt>
<pdfrwt beam="2">  1       21 0.12745186E-01 0.46806358E+03</pdfrwt>
<totfact> 0.46894934E+04</totfact>
</mgrwt>
</event>
<event>
 7    0  0.4737014E-002  0.4663636E+03  0.7546771E-02  0.1022952E+00
         21   -1    0    0  502  501  0.00000000000E+00  0.00000000000E+00  0.55978776652E+03  0.55978776652E+03  0.00000000000E+00 0.  1.
         21   -1    0    0  501  502 -0.00000000000E+00 -0.00000000000E+00 -0.97132802651E+02  0.97132802651E+02  0.00000000000E+00 0.  1.
      99926    2    1    2    0    0  0.00000000000E+00 -0.44408920985E-15  0.46265496387E+03  0.65692056917E+03  0.46636361201E+03 0.  0.
      99925    2    3    3    0    0 -0.12029468265E+03  0.34806623089E+01  0.24905489757E+03  0.38168354022E+03  0.26300391097E+03 0.  0.
         25    1    3    3    0    0  0.12029468265E+03 -0.34806623089E+01  0.21360006630E+03  0.27523702895E+03  0.12509000000E+03 0.  0.
         25    1    4    4    0    0 -0.18144732273E+02 -0.41800089261E+01  0.93064670872E+02  0.15701988679E+03  0.12509000000E+03 0.  0.
         25    1    4    4    0    0 -0.10214995037E+03  0.76606712350E+01  0.15599022670E+03  0.22466365342E+03  0.12509000000E+03 0.  0.
<mgrwt>
<rscale>  2 0.46636361E+03</rscale>
<asrwt>0</asrwt>
<pdfrwt beam="1">  1       21 0.82321729E-01 0.46636361E+03</pdfrwt>
<pdfrwt beam="2">  1       21 0.14284236E-01 0.46636361E+03</pdfrwt>
<totfact> 0.50612953E+04</totfact>
</mgrwt>
</event>
<event>
 7    0  0.4737014E-002  0.4602021E+03  0.7546771E-02  0.1024723E+00
         21   -1    0    0  502  501  0.00000000000E+00  0.00000000000E+00  0.97752515224E+02  0.97752515224E+02  0.00000000000E+00 0.  1.
         21   -1    0    0  501  502 -0.00000000000E+00 -0.00000000000E+00 -0.54163822841E+03  0.54163822841E+03  0.00000000000E+00 0.  1.
      99926    2    1    2    0    0 -0.14210854715E-13  0.00000000000E+00 -0.44388571318E+03  0.63939074363E+03  0.46020212589E+03 0.  0.
      99925    2    3    3    0    0 -0.11373356695E+03 -0.26532170324E+02 -0.25502706582E+03  0.38452925753E+03  0.26302978022E+03 0.  0.
         25    1    4    4    0    0 -0.33717615167E+02 -0.40426643701E+01 -0.16352186562E+03  0.20866271671E+03  0.12509000000E+03 0.  0.
         25    1    3    3    0    0  0.11373356695E+03  0.26532170324E+02 -0.18885864737E+03  0.25486148610E+03  0.12509000000E+03 0.  0.
         25    1    4    4    0    0 -0.80015951782E+02 -0.22489505954E+02 -0.91505200196E+02  0.17586654082E+03  0.12509000000E+03 0.  0.
<mgrwt>
<rscale>  2 0.46020213E+03</rscale>
<asrwt>0</asrwt>
<pdfrwt beam="1">  1       21 0.14375370E-01 0.46020213E+03</pdfrwt>
<pdfrwt beam="2">  1       21 0.79652682E-01 0.46020213E+03</pdfrwt>
<totfact> 0.54062872E+04</totfact>
</mgrwt>
</event>
<event>
 7    0  0.4737014E-002  0.4560482E+03  0.7546771E-02  0.1025934E+00
         21   -1    0    0  502  501  0.00000000000E+00  0.00000000000E+00  0.15812520143E+03  0.15812520143E+03  0.00000000000E+00 0.  1.
         21   -1    0    0  501  502 -0.00000000000E+00 -0.00000000000E+00 -0.32882162153E+03  0.32882162153E+03  0.00000000000E+00 0.  1.
      99926    2    1    2    0    0  0.17763568394E-14 -0.14210854715E-13 -0.17069642009E+03  0.48694682296E+03  0.45604817789E+03 0.  0.
      99925    2    3    3    0    0  0.11089965429E+02  0.66364048289E+02 -0.87692640963E+01  0.27155163688E+03  0.26293766801E+03 0.  0.
         25    1    4    4    0    0  0.15233040222E+02  0.40300733586E+02  0.34252134193E+02  0.13666349710E+03  0.12509000000E+03 0.  0.
         25    1    3    3    0    0 -0.11089965429E+02 -0.66364048289E+02 -0.16192715600E+03  0.21539518608E+03  0.12509000000E+03 0.  0.
         25    1    4    4    0    0 -0.41430747936E+01  0.26063314703E+02 -0.43021398289E+02  0.13488813978E+03  0.12509000000E+03 0.  0.
<mgrwt>
<rscale>  2 0.45604818E+03</rscale>
<asrwt>0</asrwt>
<pdfrwt beam="1">  1       21 0.23253707E-01 0.45604818E+03</pdfrwt>
<pdfrwt beam="2">  1       21 0.48356120E-01 0.45604818E+03</pdfrwt>
<totfact> 0.65649825E+04</totfact>
</mgrwt>
</event>
<event>
 7    0  0.4737014E-002  0.4610539E+03  0.7546771E-02  0.1024476E+00
         21   -1    0    0  502  501  0.00000000000E+00  0.00000000000E+00  0.48125591351E+03  0.48125591351E+03  0.00000000000E+00 0.  1.
         21   -1    0    0  501  502 -0.00000000000E+00 -0.00000000000E+00 -0.11042496902E+03  0.11042496902E+03  0.00000000000E+00 0.  1.
      99926    2    1    2    0    0  0.00000000000E+00  0.00000000000E+00  0.37083094450E+03  0.59168088253E+03  0.46105387684E+03 0.  0.
      99925    2    3    3    0    0  0.15689774415E+02  0.83009233411E+02  0.12694412433E+03  0.30486214011E+03  0.26398752227E+03 0.  0.
         25    1    3    3    0    0 -0.15689774415E+02 -0.83009233411E+02  0.24388682016E+03  0.28681874242E+03  0.12509000000E+03 0.  0.
         25    1    4    4    0    0  0.17222478995E+01  0.35358450559E+01  0.35217437111E+02  0.13001247753E+03  0.12509000000E+03 0.  0.
         25    1    4    4    0    0  0.13967526515E+02  0.79473388355E+02  0.91726687222E+02  0.17484966257E+03  0.12509000000E+03 0.  0.
<mgrwt>
<rscale>  2 0.46105388E+03</rscale>
<asrwt>0</asrwt>
<pdfrwt beam="1">  1       21 0.70772928E-01 0.46105388E+03</pdfrwt>
<pdfrwt beam="2">  1       21 0.16238966E-01 0.46105388E+03</pdfrwt>
<totfact> 0.56443802E+04</totfact>
</mgrwt>
</event>
<event>
 7    0  0.4737014E-002  0.4534270E+03  0.7546771E-02  0.1026705E+00
         21   -1    0    0  502  501  0.00000000000E+00  0.00000000000E+00  0.22681032883E+03  0.22681032883E+03  0.00000000000E+00 0. -1.
         21   -1    0    0  501  502 -0.00000000000E+00 -0.00000000000E+00 -0.22661674894E+03  0.22661674894E+03  0.00000000000E+00 0. -1.
      99926    2    1    2    0    0  0.35527136788E-14 -0.66613381478E-15  0.19357989053E+00  0.45342707776E+03  0.45342703644E+03 0.  0.
      99925    2    3    3    0    0  0.24190709840E+02 -0.68558127315E+00 -0.10880395486E+03  0.28575587825E+03  0.26312062044E+03 0.  0.
         25    1    4    4    0    0 -0.98871165008E+01  0.33787750596E+02 -0.57982488120E+02  0.14229843355E+03  0.12509000000E+03 0.  0.
         25    1    4    4    0    0  0.34077826341E+02 -0.34473331869E+02 -0.50821466735E+02  0.14345744470E+03  0.12509000000E+03 0.  0.
         25    1    3    3    0    0 -0.24190709840E+02  0.68558127315E+00  0.10899753475E+03  0.16767119951E+03  0.12509000000E+03 0.  0.
<mgrwt>
<rscale>  2 0.45342704E+03</rscale>
<asrwt>0</asrwt>
<pdfrwt beam="1">  1       21 0.33354460E-01 0.45342704E+03</pdfrwt>
<pdfrwt beam="2">  1       21 0.33325992E-01 0.45342704E+03</pdfrwt>
<totfact> 0.69529726E+04</totfact>
</mgrwt>
</event>
<event>
 7    0  0.4737014E-002  0.4379670E+03  0.7546771E-02  0.1031372E+00
         21   -1    0    0  502  501  0.00000000000E+00  0.00000000000E+00  0.13812101002E+03  0.13812101002E+03  0.00000000000E+00 0. -1.
         21   -1    0    0  501  502 -0.00000000000E+00 -0.00000000000E+00 -0.34718668499E+03  0.34718668499E+03  0.00000000000E+00 0. -1.
      99926    2    1    2    0    0  0.00000000000E+00  0.00000000000E+00 -0.20906567497E+03  0.48530769502E+03  0.43796701062E+03 0.  0.
      99925    2    3    3    0    0  0.43622508534E+02  0.13464943460E+02 -0.22778509550E+03  0.35083779966E+03  0.26290090145E+03 0.  0.
         25    1    3    3    0    0 -0.43622508534E+02 -0.13464943460E+02  0.18719420528E+02  0.13446989536E+03  0.12509000000E+03 0.  0.
         25    1    4    4    0    0 -0.12661575977E+02 -0.14383770540E+02 -0.99615918172E+02  0.16105293420E+03  0.12509000000E+03 0.  0.
         25    1    4    4    0    0  0.56284084511E+02  0.27848714000E+02 -0.12816917732E+03  0.18978486546E+03  0.12509000000E+03 0.  0.
<mgrwt>
<rscale>  2 0.43796701E+03</rscale>
<asrwt>0</asrwt>
<pdfrwt beam="1">  1       21 0.20311913E-01 0.43796701E+03</pdfrwt>
<pdfrwt beam="2">  1       21 0.51056865E-01 0.43796701E+03</pdfrwt>
<totfact> 0.76096164E+04</totfact>
</mgrwt>
</event>
<event>
 7    0  0.4737014E-002  0.4186635E+03  0.7546771E-02  0.1037502E+00
         21   -1    0    0  502  501  0.00000000000E+00  0.00000000000E+00  0.14652831479E+03  0.14652831479E+03  0.00000000000E+00 0.  1.
         21   -1    0    0  501  502 -0.00000000000E+00 -0.00000000000E+00 -0.29905327181E+03  0.29905327181E+03  0.00000000000E+00 0.  1.
      99926    2    1    2    0    0 -0.14210854715E-13  0.00000000000E+00 -0.15252495702E+03  0.44558158660E+03  0.41866345411E+03 0.  0.
      99925    2    3    3    0    0 -0.72889909024E+02  0.59522041969E+01 -0.11306939922E+03  0.29540629997E+03  0.26292931646E+03 0.  0.
         25    1    3    3    0    0  0.72889909024E+02 -0.59522041969E+01 -0.39455557793E+02  0.15017528663E+03  0.12509000000E+03 0.  0.
         25    1    4    4    0    0  0.41794340490E+01 -0.30003095617E+01 -0.42931731034E+02  0.13235222384E+03  0.12509000000E+03 0.  0.
         25    1    4    4    0    0 -0.77069343073E+02  0.89525137587E+01 -0.70137668189E+02  0.16305407613E+03  0.12509000000E+03 0.  0.
<mgrwt>
<rscale>  2 0.41866345E+03</rscale>
<asrwt>0</asrwt>
<pdfrwt beam="1">  1       21 0.21548282E-01 0.41866345E+03</pdfrwt>
<pdfrwt beam="2">  1       21 0.43978422E-01 0.41866345E+03</pdfrwt>
<totfact> 0.93475523E+04</totfact>
</mgrwt>
</event>
<event>
 7    0  0.4737014E-002  0.4531321E+03  0.7546771E-02  0.1026792E+00
         21   -1    0    0  502  501  0.00000000000E+00  0.00000000000E+00  0.21408771102E+03  0.21408771102E+03  0.00000000000E+00 0. -1.
         21   -1    0    0  501  502 -0.00000000000E+00 -0.00000000000E+00 -0.23977172377E+03  0.23977172377E+03  0.00000000000E+00 0. -1.
      99926    2    1    2    0    0  0.00000000000E+00  0.00000000000E+00 -0.25684012751E+02  0.45385943480E+03  0.45313211985E+03 0.  0.
      99925    2    3    3    0    0  0.77325485881E+02  0.80335415165E+02 -0.12252506463E+02  0.28574958036E+03  0.26281112813E+03 0.  0.
         25    1    4    4    0    0  0.48304521854E+02  0.60660419239E+02  0.27855992387E+02  0.14978810936E+03  0.12509000000E+03 0.  0.
         25    1    3    3    0    0 -0.77325485881E+02 -0.80335415165E+02 -0.13431506288E+02  0.16810985443E+03  0.12509000000E+03 0.  0.
         25    1    4    4    0    0  0.29020964027E+02  0.19674995926E+02 -0.40108498850E+02  0.13596147100E+03  0.12509000000E+03 0.  0.
<mgrwt>
<rscale>  2 0.45313212E+03</rscale>
<asrwt>0</asrwt>
<pdfrwt beam="1">  1       21 0.31483487E-01 0.45313212E+03</pdfrwt>
<pdfrwt beam="2">  1       21 0.35260548E-01 0.45313212E+03</pdfrwt>
<totfact> 0.69661894E+04</totfact>
</mgrwt>
</event>
<event>
 7    0  0.4737014E-002  0.4525739E+03  0.7546771E-02  0.1026957E+00
         21   -1    0    0  502  501  0.00000000000E+00  0.00000000000E+00  0.18700941912E+03  0.18700941912E+03  0.00000000000E+00 0. -1.
         21   -1    0    0  501  502 -0.00000000000E+00 -0.00000000000E+00 -0.27381390175E+03  0.27381390175E+03  0.00000000000E+00 0. -1.
      99926    2    1    2    0    0  0.00000000000E+00  0.00000000000E+00 -0.86804482626E+02  0.46082332087E+03  0.45257387778E+03 0.  0.
      99925    2    3    3    0    0 -0.10524238393E+03 -0.34396133755E+02 -0.62688220147E+02  0.29203897441E+03  0.26286478699E+03 0.  0.
         25    1    4    4    0    0 -0.73449108823E+02 -0.30066751797E+02 -0.67530193371E+02  0.16280852640E+03  0.12509000000E+03 0.  0.
         25    1    3    3    0    0  0.10524238393E+03  0.34396133755E+02 -0.24116262479E+02  0.16878434645E+03  0.12509000000E+03 0.  0.
         25    1    4    4    0    0 -0.31793275105E+02 -0.43293819578E+01  0.48419732246E+01  0.12923044802E+03  0.12509000000E+03 0.  0.
<mgrwt>
<rscale>  2 0.45257388E+03</rscale>
<asrwt>0</asrwt>
<pdfrwt beam="1">  1       21 0.27501385E-01 0.45257388E+03</pdfrwt>
<pdfrwt beam="2">  1       21 0.40266750E-01 0.45257388E+03</pdfrwt>
<totfact> 0.69451148E+04</totfact>
</mgrwt>
</event>
<event>
 7    0  0.4737014E-002  0.4514986E+03  0.7546771E-02  0.1027276E+00
         21   -1    0    0  502  501  0.00000000000E+00  0.00000000000E+00  0.71385177279E+03  0.71385177279E+03  0.00000000000E+00 0.  1.
         21   -1    0    0  501  502 -0.00000000000E+00 -0.00000000000E+00 -0.71391210003E+02  0.71391210003E+02  0.00000000000E+00 0.  1.
      99926    2    1    2    0    0  0.35527136788E-14  0.00000000000E+00  0.64246056279E+03  0.78524298280E+03  0.45149857950E+03 0.  0.
      99925    2    3    3    0    0 -0.29209484900E+02 -0.97119262029E+02  0.33245818491E+03  0.43590886271E+03  0.26306414961E+03 0.  0.
         25    1    4    4    0    0 -0.17785511636E+02 -0.69307701462E+02  0.11997919290E+03  0.18751639058E+03  0.12509000000E+03 0.  0.
         25    1    3    3    0    0  0.29209484900E+02  0.97119262029E+02  0.31000237788E+03  0.34933412009E+03  0.12509000000E+03 0.  0.
         25    1    4    4    0    0 -0.11423973264E+02 -0.27811560567E+02  0.21247899201E+03  0.24839247213E+03  0.12509000000E+03 0.  0.
<mgrwt>
<rscale>  2 0.45149858E+03</rscale>
<asrwt>0</asrwt>
<pdfrwt beam="1">  1       21 0.10497820E+00 0.45149858E+03</pdfrwt>
<pdfrwt beam="2">  1       21 0.10498708E-01 0.45149858E+03</pdfrwt>
<totfact> 0.49842631E+04</totfact>
</mgrwt>
</event>
<event>
 7    0  0.4737014E-002  0.4538985E+03  0.7546771E-02  0.1026566E+00
         21   -1    0    0  502  501  0.00000000000E+00  0.00000000000E+00  0.41747588763E+02  0.41747588763E+02  0.00000000000E+00 0. -1.
         21   -1    0    0  501  502 -0.00000000000E+00 -0.00000000000E+00 -0.12337467675E+04  0.12337467675E+04  0.00000000000E+00 0. -1.
      99926    2    1    2    0    0  0.00000000000E+00  0.00000000000E+00 -0.11919991787E+04  0.12754943563E+04  0.45389845863E+03 0.  0.
      99925    2    3    3    0    0 -0.43672934232E+02 -0.45141109695E+02 -0.10117897501E+04  0.10473102393E+04  0.26304979366E+03 0.  0.
         25    1    3    3    0    0  0.43672934232E+02  0.45141109695E+02 -0.18020942864E+03  0.22818411698E+03  0.12509000000E+03 0.  0.
         25    1    4    4    0    0 -0.12920680655E+02 -0.10077336903E+02 -0.63905365867E+03  0.65138742962E+03  0.12509000000E+03 0.  0.
         25    1    4    4    0    0 -0.30752253577E+02 -0.35063772792E+02 -0.37273609142E+03  0.39592280966E+03  0.12509000000E+03 0.  0.
<mgrwt>
<rscale>  2 0.45389846E+03</rscale>
<asrwt>0</asrwt>
<pdfrwt beam="1">  1       21 0.61393520E-02 0.45389846E+03</pdfrwt>
<pdfrwt beam="2">  1       21 0.18143333E+00 0.45389846E+03</pdfrwt>
<totfact> 0.30091983E+04</totfact>
</mgrwt>
</event>
<event>
 7    0  0.4737014E-002  0.4545917E+03  0.7546771E-02  0.1026362E+00
         21   -1    0    0  502  501  0.00000000000E+00  0.00000000000E+00  0.12821801723E+03  0.12821801723E+03  0.00000000000E+00 0. -1.
         21   -1    0    0  501  502 -0.00000000000E+00 -0.00000000000E+00 -0.40293398510E+03  0.40293398510E+03  0.00000000000E+00 0. -1.
      99926    2    1    2    0    0  0.00000000000E+00  0.00000000000E+00 -0.27471596787E+03  0.53115200233E+03  0.45459167016E+03 0.  0.
      99925    2    3    3    0    0  0.80464148143E+02 -0.38689203101E+02 -0.92629971400E+02  0.29287873110E+03  0.26310892413E+03 0.  0.
         25    1    3    3    0    0 -0.80464148143E+02  0.38689203101E+02 -0.18208599647E+03  0.23827327123E+03  0.12509000000E+03 0.  0.
         25    1    4    4    0    0  0.74974441570E+02 -0.28060610305E+01 -0.32615418990E+02  0.14946676729E+03  0.12509000000E+03 0.  0.
         25    1    4    4    0    0  0.54897065733E+01 -0.35883142070E+02 -0.60014552411E+02  0.14341196381E+03  0.12509000000E+03 0.  0.
<mgrwt>
<rscale>  2 0.45459167E+03</rscale>
<asrwt>0</asrwt>
<pdfrwt beam="1">  1       21 0.18855591E-01 0.45459167E+03</pdfrwt>
<pdfrwt beam="2">  1       21 0.59254997E-01 0.45459167E+03</pdfrwt>
<totfact> 0.63333310E+04</totfact>
</mgrwt>
</event>
<event>
 7    0  0.4737014E-002  0.4482110E+03  0.7546771E-02  0.1028257E+00
         21   -1    0    0  502  501  0.00000000000E+00  0.00000000000E+00  0.76559498717E+03  0.76559498717E+03  0.00000000000E+00 0.  1.
         21   -1    0    0  501  502 -0.00000000000E+00 -0.00000000000E+00 -0.65600315698E+02  0.65600315698E+02  0.00000000000E+00 0.  1.
      99926    2    1    2    0    0 -0.88817841970E-15  0.00000000000E+00  0.69999467147E+03  0.83119530287E+03  0.44821098985E+03 0.  0.
      99925    2    3    3    0    0  0.44053675655E+01  0.10074828137E+03  0.37882555882E+03  0.47207592093E+03  0.26301567946E+03 0.  0.
         25    1    3    3    0    0 -0.44053675655E+01 -0.10074828137E+03  0.32116911265E+03  0.35911938194E+03  0.12509000000E+03 0.  0.
         25    1    4    4    0    0  0.12809071038E+02  0.85266412893E+01  0.17197931052E+03  0.21321624530E+03  0.12509000000E+03 0.  0.
         25    1    4    4    0    0 -0.84037034727E+01  0.92221640081E+02  0.20684624829E+03  0.25885967562E+03  0.12509000000E+03 0.  0.
<mgrwt>
<rscale>  2 0.44821099E+03</rscale>
<asrwt>0</asrwt>
<pdfrwt beam="1">  1       21 0.11258749E+00 0.44821099E+03</pdfrwt>
<pdfrwt beam="2">  1       21 0.96471057E-02 0.44821099E+03</pdfrwt>
<totfact> 0.48842807E+04</totfact>
</mgrwt>
</event>
<event>
 7    0  0.4737014E-002  0.4569910E+03  0.7546771E-02  0.1025658E+00
         21   -1    0    0  502  501  0.00000000000E+00  0.00000000000E+00  0.22389682846E+03  0.22389682846E+03  0.00000000000E+00 0.  1.
         21   -1    0    0  501  502 -0.00000000000E+00 -0.00000000000E+00 -0.23318859578E+03  0.23318859578E+03  0.00000000000E+00 0.  1.
      99926    2    1    2    0    0 -0.14210854715E-13 -0.35527136788E-14 -0.92917673160E+01  0.45708542423E+03  0.45699097158E+03 0.  0.
      99925    2    3    3    0    0  0.11430445413E+03 -0.46241381188E+01  0.43674338055E+01  0.28702375082E+03  0.26320461275E+03 0.  0.
         25    1    4    4    0    0  0.73829524320E+02  0.30482650629E+02  0.21131349968E+02  0.14991341735E+03  0.12509000000E+03 0.  0.
         25    1    3    3    0    0 -0.11430445413E+03  0.46241381188E+01 -0.13659201121E+02  0.17006167341E+03  0.12509000000E+03 0.  0.
         25    1    4    4    0    0  0.40474929813E+02 -0.35106788748E+02 -0.16763916162E+02  0.13711033347E+03  0.12509000000E+03 0.  0.
<mgrwt>
<rscale>  2 0.45699097E+03</rscale>
<asrwt>0</asrwt>
<pdfrwt beam="1">  1       21 0.32926004E-01 0.45699097E+03</pdfrwt>
<pdfrwt beam="2">  1       21 0.34292440E-01 0.45699097E+03</pdfrwt>
<totfact> 0.67317520E+04</totfact>
</mgrwt>
</event>
<event>
 7    0  0.4737014E-002  0.4529268E+03  0.7546771E-02  0.1026853E+00
         21   -1    0    0  502  501  0.00000000000E+00  0.00000000000E+00  0.50786999796E+02  0.50786999796E+02  0.00000000000E+00 0. -1.
         21   -1    0    0  501  502 -0.00000000000E+00 -0.00000000000E+00 -0.10098189112E+04  0.10098189112E+04  0.00000000000E+00 0. -1.
      99926    2    1    2    0    0  0.00000000000E+00  0.71054273576E-14 -0.95903191143E+03  0.10606059110E+04  0.45292680574E+03 0.  0.
      99925    2    3    3    0    0  0.10207309533E+03  0.43000772856E+02 -0.58317394742E+03  0.64928523263E+03  0.26308074258E+03 0.  0.
         25    1    4    4    0    0  0.29221535470E+02  0.27157919565E+02 -0.19873513325E+03  0.23819028532E+03  0.12509000000E+03 0.  0.
         25    1    4    4    0    0  0.72851559861E+02  0.15842853291E+02 -0.38443881416E+03  0.41109494732E+03  0.12509000000E+03 0.  0.
         25    1    3    3    0    0 -0.10207309533E+03 -0.43000772856E+02 -0.37585796402E+03  0.41132067839E+03  0.12509000000E+03 0.  0.
<mgrwt>
<rscale>  2 0.45292681E+03</rscale>
<asrwt>0</asrwt>
<pdfrwt beam="1">  1       21 0.74686769E-02 0.45292681E+03</pdfrwt>
<pdfrwt beam="2">  1       21 0.14850277E+00 0.45292681E+03</pdfrwt>
<totfact> 0.37493600E+04</totfact>
</mgrwt>
</event>
<event>
 7    0  0.4737014E-002  0.4535136E+03  0.7546771E-02  0.1026679E+00
         21   -1    0    0  502  501  0.00000000000E+00  0.00000000000E+00  0.12353188535E+04  0.12353188535E+04  0.00000000000E+00 0.  1.
         21   -1    0    0  501  502 -0.00000000000E+00 -0.00000000000E+00 -0.41623777651E+02  0.41623777651E+02  0.00000000000E+00 0.  1.
      99926    2    1    2    0    0  0.00000000000E+00  0.00000000000E+00  0.11936950759E+04  0.12769426312E+04  0.45351356005E+03 0.  0.
      99925    2    3    3    0    0 -0.94302732311E+02 -0.20398318403E+02  0.59323531743E+03  0.65604930191E+03  0.26298944461E+03 0.  0.
         25    1    3    3    0    0  0.94302732311E+02  0.20398318403E+02  0.60045975846E+03  0.62089332928E+03  0.12509000000E+03 0.  0.
         25    1    4    4    0    0 -0.74190659624E+02 -0.13076623865E+02  0.24262544900E+03  0.28317815712E+03  0.12509000000E+03 0.  0.
         25    1    4    4    0    0 -0.20112072687E+02 -0.73216945374E+01  0.35060986842E+03  0.37287114479E+03  0.12509000000E+03 0.  0.
<mgrwt>
<rscale>  2 0.45351356E+03</rscale>
<asrwt>0</asrwt>
<pdfrwt beam="1">  1       21 0.18166451E+00 0.45351356E+03</pdfrwt>
<pdfrwt beam="2">  1       21 0.61211446E-02 0.45351356E+03</pdfrwt>
<totfact> 0.30138903E+04</totfact>
</mgrwt>
</event>
<event>
 7    0  0.4737014E-002  0.4602232E+03  0.7546771E-02  0.1024717E+00
         21   -1    0    0  502  501  0.00000000000E+00  0.00000000000E+00  0.62159589590E+03  0.62159589590E+03  0.00000000000E+00 0.  1.
         21   -1    0    0  501  502 -0.00000000000E+00 -0.00000000000E+00 -0.85186127670E+02  0.85186127670E+02  0.00000000000E+00 0.  1.
      99926    2    1    2    0    0  0.00000000000E+00  0.00000000000E+00  0.53640976823E+03  0.70678202357E+03  0.46022319519E+03 0.  0.
      99925    2    3    3    0    0 -0.36500879077E+02  0.76105719292E+02  0.20985097008E+03  0.34704246301E+03  0.26320457216E+03 0.  0.
         25    1    4    4    0    0 -0.40435473034E+01  0.24403911544E+02  0.14618242001E+03  0.19398120835E+03  0.12509000000E+03 0.  0.
         25    1    3    3    0    0  0.36500879077E+02 -0.76105719292E+02  0.32655879815E+03  0.35973956056E+03  0.12509000000E+03 0.  0.
         25    1    4    4    0    0 -0.32457331774E+02  0.51701807749E+02  0.63668550074E+02  0.15306125466E+03  0.12509000000E+03 0.  0.
<mgrwt>
<rscale>  2 0.46022320E+03</rscale>
<asrwt>0</asrwt>
<pdfrwt beam="1">  1       21 0.91411159E-01 0.46022320E+03</pdfrwt>
<pdfrwt beam="2">  1       21 0.12527372E-01 0.46022320E+03</pdfrwt>
<totfact> 0.50431444E+04</totfact>
</mgrwt>
</event>
<event>
 7    0  0.4737014E-002  0.4584683E+03  0.7546771E-02  0.1025226E+00
         21   -1    0    0  502  501  0.00000000000E+00  0.00000000000E+00  0.14938674138E+03  0.14938674138E+03  0.00000000000E+00 0. -1.
         21   -1    0    0  501  502 -0.00000000000E+00 -0.00000000000E+00 -0.35176011779E+03  0.35176011779E+03  0.00000000000E+00 0. -1.
      99926    2    1    2    0    0  0.00000000000E+00  0.00000000000E+00 -0.20237337641E+03  0.50114685917E+03  0.45846830968E+03 0.  0.
      99925    2    3    3    0    0  0.38054090048E+02 -0.10670191736E+03 -0.15587742455E+03  0.32609602491E+03  0.26307305647E+03 0.  0.
         25    1    4    4    0    0 -0.81963071110E+01 -0.24418895659E+02 -0.50939454856E+02  0.13749835663E+03  0.12509000000E+03 0.  0.
         25    1    3    3    0    0 -0.38054090048E+02  0.10670191736E+03 -0.46495951863E+02  0.17505083426E+03  0.12509000000E+03 0.  0.
         25    1    4    4    0    0  0.46250397159E+02 -0.82283021698E+02 -0.10493796969E+03  0.18859766828E+03  0.12509000000E+03 0.  0.
<mgrwt>
<rscale>  2 0.45846831E+03</rscale>
<asrwt>0</asrwt>
<pdfrwt beam="1">  1       21 0.21968639E-01 0.45846831E+03</pdfrwt>
<pdfrwt beam="2">  1       21 0.51729428E-01 0.45846831E+03</pdfrwt>
<totfact> 0.63425859E+04</totfact>
</mgrwt>
</event>
<event>
 7    0  0.4737014E-002  0.4555694E+03  0.7546771E-02  0.1026074E+00
         21   -1    0    0  502  501  0.00000000000E+00  0.00000000000E+00  0.92440287197E+02  0.92440287197E+02  0.00000000000E+00 0. -1.
         21   -1    0    0  501  502 -0.00000000000E+00 -0.00000000000E+00 -0.56129054853E+03  0.56129054853E+03  0.00000000000E+00 0. -1.
      99926    2    1    2    0    0  0.00000000000E+00 -0.35527136788E-14 -0.46885026134E+03  0.65373083573E+03  0.45556935590E+03 0.  0.
      99925    2    3    3    0    0 -0.10514063462E+03  0.23240101524E+02 -0.34743927367E+03  0.44883380942E+03  0.26295072584E+03 0.  0.
         25    1    4    4    0    0 -0.31076294075E+02  0.46295346740E+02 -0.16701537686E+03  0.21598759083E+03  0.12509000000E+03 0.  0.
         25    1    4    4    0    0 -0.74064340542E+02 -0.23055245216E+02 -0.18042389681E+03  0.23284621859E+03  0.12509000000E+03 0.  0.
         25    1    3    3    0    0  0.10514063462E+03 -0.23240101524E+02 -0.12141098767E+03  0.20489702632E+03  0.12509000000E+03 0.  0.
<mgrwt>
<rscale>  2 0.45556936E+03</rscale>
<asrwt>0</asrwt>
<pdfrwt beam="1">  1       21 0.13594160E-01 0.45556936E+03</pdfrwt>
<pdfrwt beam="2">  1       21 0.82542729E-01 0.45556936E+03</pdfrwt>
<totfact> 0.55238570E+04</totfact>
</mgrwt>
</event>
<event>
 7    0  0.4737014E-002  0.4697121E+03  0.7546771E-02  0.1022001E+00
         21   -1    0    0  502  501  0.00000000000E+00  0.00000000000E+00  0.12048490191E+04  0.12048490191E+04  0.00000000000E+00 0.  1.
         21   -1    0    0  501  502 -0.00000000000E+00 -0.00000000000E+00 -0.45779484302E+02  0.45779484302E+02  0.00000000000E+00 0.  1.
      99926    2    1    2    0    0  0.00000000000E+00  0.35527136788E-14  0.11590695348E+04  0.12506285034E+04  0.46971211079E+03 0.  0.
      99925    2    3    3    0    0  0.96380063528E+02  0.31672780947E+02  0.52794159378E+03  0.59927432345E+03  0.26479257280E+03 0.  0.
         25    1    3    3    0    0 -0.96380063528E+02 -0.31672780947E+02  0.63112794103E+03  0.65135417996E+03  0.12509000000E+03 0.  0.
         25    1    4    4    0    0  0.85204876645E+02  0.39906070485E+02  0.26525482763E+03  0.30799350179E+03  0.12509000000E+03 0.  0.
         25    1    4    4    0    0  0.11175186883E+02 -0.82332895380E+01  0.26268676615E+03  0.29128082166E+03  0.12509000000E+03 0.  0.
<mgrwt>
<rscale>  2 0.46971211E+03</rscale>
<asrwt>0</asrwt>
<pdfrwt beam="1">  1       21 0.17718366E+00 0.46971211E+03</pdfrwt>
<pdfrwt beam="2">  1       21 0.67322779E-02 0.46971211E+03</pdfrwt>
<totfact> 0.27317682E+04</totfact>
</mgrwt>
</event>
<event>
 7    0  0.4737014E-002  0.4466068E+03  0.7546771E-02  0.1028739E+00
         21   -1    0    0  502  501  0.00000000000E+00  0.00000000000E+00  0.90628118198E+03  0.90628118198E+03  0.00000000000E+00 0. -1.
         21   -1    0    0  501  502 -0.00000000000E+00 -0.00000000000E+00 -0.55020906570E+02  0.55020906570E+02  0.00000000000E+00 0. -1.
      99926    2    1    2    0    0  0.00000000000E+00  0.00000000000E+00  0.85126027541E+03  0.96130208855E+03  0.44660681697E+03 0.  0.
      99925    2    3    3    0    0 -0.59597822902E+02  0.40449380774E+02  0.70402214069E+03  0.75511132902E+03  0.26335886492E+03 0.  0.
         25    1    4    4    0    0 -0.51629252170E+02  0.13772671151E+02  0.45716999724E+03  0.47697712799E+03  0.12509000000E+03 0.  0.
         25    1    3    3    0    0  0.59597822902E+02 -0.40449380774E+02  0.14723813471E+03  0.20619075953E+03  0.12509000000E+03 0.  0.
         25    1    4    4    0    0 -0.79685707322E+01  0.26676709622E+02  0.24685214346E+03  0.27813420103E+03  0.12509000000E+03 0.  0.
<mgrwt>
<rscale>  2 0.44660682E+03</rscale>
<asrwt>0</asrwt>
<pdfrwt beam="1">  1       21 0.13327664E+00 0.44660682E+03</pdfrwt>
<pdfrwt beam="2">  1       21 0.80913103E-02 0.44660682E+03</pdfrwt>
<totfact> 0.43469843E+04</totfact>
</mgrwt>
</event>
<event>
 7    0  0.4737014E-002  0.4523228E+03  0.7546771E-02  0.1027032E+00
         21   -1    0    0  502  501  0.00000000000E+00  0.00000000000E+00  0.45166405868E+03  0.45166405868E+03  0.00000000000E+00 0. -1.
         21   -1    0    0  501  502 -0.00000000000E+00 -0.00000000000E+00 -0.11324564611E+03  0.11324564611E+03  0.00000000000E+00 0. -1.
      99926    2    1    2    0    0  0.00000000000E+00  0.00000000000E+00  0.33841841257E+03  0.56490970479E+03  0.45232284112E+03 0.  0.
      99925    2    3    3    0    0 -0.69108002837E+02 -0.18988987255E+02  0.10831353151E+03  0.29337285263E+03  0.26305762079E+03 0.  0.
         25    1    3    3    0    0  0.69108002837E+02  0.18988987255E+02  0.23010488106E+03  0.27153685216E+03  0.12509000000E+03 0.  0.
         25    1    4    4    0    0 -0.74060499973E+01 -0.35449756599E+02  0.34546585077E+02  0.13473124901E+03  0.12509000000E+03 0.  0.
         25    1    4    4    0    0 -0.61701952839E+02  0.16460769344E+02  0.73766946435E+02  0.15864160362E+03  0.12509000000E+03 0.  0.
<mgrwt>
<rscale>  2 0.45232284E+03</rscale>
<asrwt>0</asrwt>
<pdfrwt beam="1">  1       21 0.66421185E-01 0.45232284E+03</pdfrwt>
<pdfrwt beam="2">  1       21 0.16653772E-01 0.45232284E+03</pdfrwt>
<totfact> 0.62198401E+04</totfact>
</mgrwt>
</event>
<event>
 7    0  0.4737014E-002  0.4584321E+03  0.7546771E-02  0.1025237E+00
         21   -1    0    0  502  501  0.00000000000E+00  0.00000000000E+00  0.22407294319E+03  0.22407294319E+03  0.00000000000E+00 0. -1.
         21   -1    0    0  501  502 -0.00000000000E+00 -0.00000000000E+00 -0.23447721283E+03  0.23447721283E+03  0.00000000000E+00 0. -1.
      99926    2    1    2    0    0  0.00000000000E+00 -0.35527136788E-14 -0.10404269638E+02  0.45855015602E+03  0.45843210703E+03 0.  0.
      99925    2    3    3    0    0 -0.11210483607E+03 -0.23462574665E+02 -0.27302900024E+02  0.28810644540E+03  0.26294845284E+03 0.  0.
         25    1    4    4    0    0 -0.83457098220E+02 -0.24437878453E+02  0.14749456615E+02  0.15305996118E+03  0.12509000000E+03 0.  0.
         25    1    3    3    0    0  0.11210483607E+03  0.23462574665E+02  0.16898630386E+02  0.17044371062E+03  0.12509000000E+03 0.  0.
         25    1    4    4    0    0 -0.28647737851E+02  0.97530378802E+00 -0.42052356639E+02  0.13504648422E+03  0.12509000000E+03 0.  0.
<mgrwt>
<rscale>  2 0.45843211E+03</rscale>
<asrwt>0</asrwt>
<pdfrwt beam="1">  1       21 0.32951904E-01 0.45843211E+03</pdfrwt>
<pdfrwt beam="2">  1       21 0.34481943E-01 0.45843211E+03</pdfrwt>
<totfact> 0.66448113E+04</totfact>
</mgrwt>
</event>
<event>
 7    0  0.4737014E-002  0.4536371E+03  0.7546771E-02  0.1026643E+00
         21   -1    0    0  502  501  0.00000000000E+00  0.00000000000E+00  0.14626640426E+04  0.14626640426E+04  0.00000000000E+00 0. -1.
         21   -1    0    0  501  502 -0.00000000000E+00 -0.00000000000E+00 -0.35173259533E+02  0.35173259533E+02  0.00000000000E+00 0. -1.
      99926    2    1    2    0    0  0.00000000000E+00  0.00000000000E+00  0.14274907831E+04  0.14978373022E+04  0.45363713243E+03 0.  0.
      99925    2    3    3    0    0 -0.74026670511E+02  0.68637754987E+02  0.73957364670E+03  0.79138943855E+03  0.26293910929E+03 0.  0.
         25    1    4    4    0    0 -0.18913999168E+02  0.70572552851E+02  0.39000225285E+03  0.41603784673E+03  0.12509000000E+03 0.  0.
         25    1    4    4    0    0 -0.55112671343E+02 -0.19347978636E+01  0.34957139385E+03  0.37535159182E+03  0.12509000000E+03 0.  0.
         25    1    3    3    0    0  0.74026670511E+02 -0.68637754987E+02  0.68791713639E+03  0.70644786361E+03  0.12509000000E+03 0.  0.
<mgrwt>
<rscale>  2 0.45363713E+03</rscale>
<asrwt>0</asrwt>
<pdfrwt beam="1">  1       21 0.21509761E+00 0.45363713E+03</pdfrwt>
<pdfrwt beam="2">  1       21 0.51725392E-02 0.45363713E+03</pdfrwt>
<totfact> 0.24086148E+04</totfact>
</mgrwt>
</event>
<event>
 7    0  0.4737014E-002  0.4482209E+03  0.7546771E-02  0.1028254E+00
         21   -1    0    0  502  501  0.00000000000E+00  0.00000000000E+00  0.82951249741E+03  0.82951249741E+03  0.00000000000E+00 0.  1.
         21   -1    0    0  501  502 -0.00000000000E+00 -0.00000000000E+00 -0.60548202300E+02  0.60548202300E+02  0.00000000000E+00 0.  1.
      99926    2    1    2    0    0  0.00000000000E+00  0.00000000000E+00  0.76896429511E+03  0.89006069971E+03  0.44822088530E+03 0.  0.
      99925    2    3    3    0    0  0.89766686920E+02  0.52713618348E+02  0.44068379492E+03  0.52365603469E+03  0.26301454699E+03 0.  0.
         25    1    4    4    0    0  0.22599691790E+02  0.54652530212E+02  0.25230590949E+03  0.28775584302E+03  0.12509000000E+03 0.  0.
         25    1    3    3    0    0 -0.89766686920E+02 -0.52713618348E+02  0.32828050020E+03  0.36640466502E+03  0.12509000000E+03 0.  0.
         25    1    4    4    0    0  0.67166995131E+02 -0.19389118645E+01  0.18837788542E+03  0.23590019167E+03  0.12509000000E+03 0.  0.
<mgrwt>
<rscale>  2 0.44822089E+03</rscale>
<asrwt>0</asrwt>
<pdfrwt beam="1">  1       21 0.12198712E+00 0.44822089E+03</pdfrwt>
<pdfrwt beam="2">  1       21 0.89041479E-02 0.44822089E+03</pdfrwt>
<totfact> 0.46063209E+04</totfact>
</mgrwt>
</event>
<event>
 7    0  0.4737014E-002  0.4514811E+03  0.7546771E-02  0.1027281E+00
         21   -1    0    0  502  501  0.00000000000E+00  0.00000000000E+00  0.60407007096E+03  0.60407007096E+03  0.00000000000E+00 0. -1.
         21   -1    0    0  501  502 -0.00000000000E+00 -0.00000000000E+00 -0.84359068423E+02  0.84359068423E+02  0.00000000000E+00 0. -1.
      99926    2    1    2    0    0 -0.14210854715E-13 -0.14210854715E-13  0.51971100253E+03  0.68842913938E+03  0.45148106693E+03 0.  0.
      99925    2    3    3    0    0  0.80984280525E+02  0.71048502635E+02  0.36006258292E+03  0.45877402970E+03  0.26310112749E+03 0.  0.
         25    1    4    4    0    0  0.67165675785E+02  0.51329357935E+01  0.18776287915E+03  0.23545696405E+03  0.12509000000E+03 0.  0.
         25    1    4    4    0    0  0.13818604740E+02  0.65915566841E+02  0.17229970377E+03  0.22331706565E+03  0.12509000000E+03 0.  0.
         25    1    3    3    0    0 -0.80984280525E+02 -0.71048502635E+02  0.15964841962E+03  0.22965510968E+03  0.12509000000E+03 0.  0.
<mgrwt>
<rscale>  2 0.45148107E+03</rscale>
<asrwt>0</asrwt>
<pdfrwt beam="1">  1       21 0.88833832E-01 0.45148107E+03</pdfrwt>
<pdfrwt beam="2">  1       21 0.12405746E-01 0.45148107E+03</pdfrwt>
<totfact> 0.55044900E+04</totfact>
</mgrwt>
</event>
<event>
 7    0  0.4737014E-002  0.4563401E+03  0.7546771E-02  0.1025848E+00
         21   -1    0    0  502  501  0.00000000000E+00  0.00000000000E+00  0.60817206144E+03  0.60817206144E+03  0.00000000000E+00 0.  1.
         21   -1    0    0  501  502 -0.00000000000E+00 -0.00000000000E+00 -0.85603343502E+02  0.85603343502E+02  0.00000000000E+00 0.  1.
      99926    2    1    2    0    0  0.00000000000E+00  0.00000000000E+00  0.52256871793E+03  0.69377540494E+03  0.45634005690E+03 0.  0.
      99925    2    3    3    0    0  0.67275419711E+02  0.73874211155E+02  0.24338978543E+03  0.37194972910E+03  0.26291563696E+03 0.  0.
         25    1    3    3    0    0 -0.67275419711E+02 -0.73874211155E+02  0.27917893251E+03  0.32182567583E+03  0.12509000000E+03 0.  0.
         25    1    4    4    0    0  0.18254530305E+01  0.46991308054E+02  0.86516417393E+02  0.15919834764E+03  0.12509000000E+03 0.  0.
         25    1    4    4    0    0  0.65449966681E+02  0.26882903102E+02  0.15687336804E+03  0.21275138147E+03  0.12509000000E+03 0.  0.
<mgrwt>
<rscale>  2 0.45634006E+03</rscale>
<asrwt>0</asrwt>
<pdfrwt beam="1">  1       21 0.89437066E-01 0.45634006E+03</pdfrwt>
<pdfrwt beam="2">  1       21 0.12588727E-01 0.45634006E+03</pdfrwt>
<totfact> 0.52684354E+04</totfact>
</mgrwt>
</event>
<event>
 7    0  0.4737014E-002  0.4647130E+03  0.7546771E-02  0.1023423E+00
         21   -1    0    0  502  501  0.00000000000E+00  0.00000000000E+00  0.12596385803E+03  0.12596385803E+03  0.00000000000E+00 0.  1.
         21   -1    0    0  501  502 -0.00000000000E+00 -0.00000000000E+00 -0.42861144437E+03  0.42861144437E+03  0.00000000000E+00 0.  1.
      99926    2    1    2    0    0  0.00000000000E+00 -0.17763568394E-14 -0.30264758633E+03  0.55457530240E+03  0.46471303459E+03 0.  0.
      99925    2    3    3    0    0 -0.17517777558E+02 -0.40724709586E+01 -0.44774831257E+02  0.26740057604E+03  0.26301107391E+03 0.  0.
         25    1    4    4    0    0 -0.12695482740E+02 -0.39402174862E+02 -0.38085460262E+02  0.13715581303E+03  0.12509000000E+03 0.  0.
         25    1    3    3    0    0  0.17517777558E+02  0.40724709586E+01 -0.25787275508E+03  0.28717472636E+03  0.12509000000E+03 0.  0.
         25    1    4    4    0    0 -0.48222948180E+01  0.35329703903E+02 -0.66893709948E+01  0.13024476300E+03  0.12509000000E+03 0.  0.
<mgrwt>
<rscale>  2 0.46471303E+03</rscale>
<asrwt>0</asrwt>
<pdfrwt beam="1">  1       21 0.18524097E-01 0.46471303E+03</pdfrwt>
<pdfrwt beam="2">  1       21 0.63031095E-01 0.46471303E+03</pdfrwt>
<totfact> 0.57053092E+04</totfact>
</mgrwt>
</event>
<event>
 7    0  0.4737014E-002  0.4424240E+03  0.7546771E-02  0.1030006E+00
         21   -1    0    0  502  501  0.00000000000E+00  0.00000000000E+00  0.21008802766E+03  0.21008802766E+03  0.00000000000E+00 0. -1.
         21   -1    0    0  501  502 -0.00000000000E+00 -0.00000000000E+00 -0.23292496882E+03  0.23292496882E+03  0.00000000000E+00 0. -1.
      99926    2    1    2    0    0  0.14210854715E-13  0.00000000000E+00 -0.22836941159E+02  0.44301299648E+03  0.44242399253E+03 0.  0.
      99925    2    3    3    0    0 -0.83418268926E+02 -0.10518819143E+02 -0.70369292738E+02  0.28497475524E+03  0.26303900969E+03 0.  0.
         25    1    4    4    0    0 -0.79770007204E+02  0.49121334142E+01 -0.22667254147E+02  0.15016223099E+03  0.12509000000E+03 0.  0.
         25    1    3    3    0    0  0.83418268926E+02  0.10518819143E+02  0.47532351579E+02  0.15803824124E+03  0.12509000000E+03 0.  0.
         25    1    4    4    0    0 -0.36482617216E+01 -0.15430952557E+02 -0.47702038591E+02  0.13481252426E+03  0.12509000000E+03 0.  0.
<mgrwt>
<rscale>  2 0.44242399E+03</rscale>
<asrwt>0</asrwt>
<pdfrwt beam="1">  1       21 0.30895298E-01 0.44242399E+03</pdfrwt>
<pdfrwt beam="2">  1       21 0.34253672E-01 0.44242399E+03</pdfrwt>
<totfact> 0.76860699E+04</totfact>
</mgrwt>
</event>
<event>
 7    0  0.4737014E-002  0.4609959E+03  0.7546771E-02  0.1024493E+00
         21   -1    0    0  502  501  0.00000000000E+00  0.00000000000E+00  0.13296349402E+03  0.13296349402E+03  0.00000000000E+00 0. -1.
         21   -1    0    0  501  502 -0.00000000000E+00 -0.00000000000E+00 -0.39957804868E+03  0.39957804868E+03  0.00000000000E+00 0. -1.
      99926    2    1    2    0    0  0.00000000000E+00 -0.14210854715E-13 -0.26661455466E+03  0.53254154269E+03  0.46099585024E+03 0.  0.
      99925    2    3    3    0    0 -0.92796893031E+02  0.73610534621E+02 -0.17452370178E+03  0.33720079567E+03  0.26308949039E+03 0.  0.
         25    1    4    4    0    0 -0.49277956638E+02  0.18494315294E+01 -0.56552176143E+02  0.14586772821E+03  0.12509000000E+03 0.  0.
         25    1    3    3    0    0  0.92796893031E+02 -0.73610534621E+02 -0.92090852874E+02  0.19534074702E+03  0.12509000000E+03 0.  0.
         25    1    4    4    0    0 -0.43518936394E+02  0.71761103091E+02 -0.11797152564E+03  0.19133306746E+03  0.12509000000E+03 0.  0.
<mgrwt>
<rscale>  2 0.46099585E+03</rscale>
<asrwt>0</asrwt>
<pdfrwt beam="1">  1       21 0.19553455E-01 0.46099585E+03</pdfrwt>
<pdfrwt beam="2">  1       21 0.58761478E-01 0.46099585E+03</pdfrwt>
<totfact> 0.60126124E+04</totfact>
</mgrwt>
</event>
<event>
 7    0  0.4737014E-002  0.4372145E+03  0.7546771E-02  0.1031605E+00
         21   -1    0    0  502  501  0.00000000000E+00  0.00000000000E+00  0.17124005641E+03  0.17124005641E+03  0.00000000000E+00 0. -1.
         21   -1    0    0  501  502 -0.00000000000E+00 -0.00000000000E+00 -0.27907683917E+03  0.27907683917E+03  0.00000000000E+00 0. -1.
      99926    2    1    2    0    0  0.14210854715E-13  0.88817841970E-15 -0.10783678276E+03  0.45031689557E+03  0.43721451797E+03 0.  0.
      99925    2    3    3    0    0  0.89965400844E+02  0.70731139743E+01 -0.36713319116E+02  0.28046443762E+03  0.26299929787E+03 0.  0.
         25    1    4    4    0    0  0.80568614220E+02  0.53956426136E+01 -0.42628890843E+02  0.15487138209E+03  0.12509000000E+03 0.  0.
         25    1    3    3    0    0 -0.89965400844E+02 -0.70731139743E+01 -0.71123463645E+02  0.16985245795E+03  0.12509000000E+03 0.  0.
         25    1    4    4    0    0  0.93967866231E+01  0.16774713608E+01  0.59155717271E+01  0.12559305553E+03  0.12509000000E+03 0.  0.
<mgrwt>
<rscale>  2 0.43721452E+03</rscale>
<asrwt>0</asrwt>
<pdfrwt beam="1">  1       21 0.25182361E-01 0.43721452E+03</pdfrwt>
<pdfrwt beam="2">  1       21 0.41040712E-01 0.43721452E+03</pdfrwt>
<totfact> 0.79575265E+04</totfact>
</mgrwt>
</event>
<event>
 7    0  0.4737014E-002  0.4398323E+03  0.7546771E-02  0.1030798E+00
         21   -1    0    0  502  501  0.00000000000E+00  0.00000000000E+00  0.26945382622E+03  0.26945382622E+03  0.00000000000E+00 0. -1.
         21   -1    0    0  501  502 -0.00000000000E+00 -0.00000000000E+00 -0.17948568066E+03  0.17948568066E+03  0.00000000000E+00 0. -1.
      99926    2    1    2    0    0  0.00000000000E+00  0.00000000000E+00  0.89968145552E+02  0.44893950688E+03  0.43983225623E+03 0.  0.
      99925    2    3    3    0    0 -0.71488768573E+02 -0.64919207854E+02  0.76298283036E+02  0.29032197688E+03  0.26294538347E+03 0.  0.
         25    1    3    3    0    0  0.71488768573E+02  0.64919207854E+02  0.13669862515E+02  0.15861752999E+03  0.12509000000E+03 0.  0.
         25    1    4    4    0    0 -0.70068503688E+02 -0.13372158670E+02  0.50390849142E+02  0.15256197303E+03  0.12509000000E+03 0.  0.
         25    1    4    4    0    0 -0.14202648853E+01 -0.51547049184E+02  0.25907433895E+02  0.13776000386E+03  0.12509000000E+03 0.  0.
<mgrwt>
<rscale>  2 0.43983226E+03</rscale>
<asrwt>0</asrwt>
<pdfrwt beam="1">  1       21 0.39625563E-01 0.43983226E+03</pdfrwt>
<pdfrwt beam="2">  1       21 0.26394953E-01 0.43983226E+03</pdfrwt>
<totfact> 0.78005517E+04</totfact>
</mgrwt>
</event>
<event>
 7    0  0.4737014E-002  0.4619185E+03  0.7546771E-02  0.1024226E+00
         21   -1    0    0  502  501  0.00000000000E+00  0.00000000000E+00  0.17119007072E+03  0.17119007072E+03  0.00000000000E+00 0.  1.
         21   -1    0    0  501  502 -0.00000000000E+00 -0.00000000000E+00 -0.31159623915E+03  0.31159623915E+03  0.00000000000E+00 0.  1.
      99926    2    1    2    0    0 -0.35527136788E-14  0.00000000000E+00 -0.14040616843E+03  0.48278630988E+03  0.46191853056E+03 0.  0.
      99925    2    3    3    0    0 -0.30782948373E+02 -0.10435704084E+03 -0.13956014876E+03  0.31699666686E+03  0.26300545582E+03 0.  0.
         25    1    4    4    0    0 -0.23319160090E+02 -0.42561592434E+02 -0.11156710920E+03  0.17449928462E+03  0.12509000000E+03 0.  0.
         25    1    4    4    0    0 -0.74637882824E+01 -0.61795448407E+02 -0.27993039562E+02  0.14249738223E+03  0.12509000000E+03 0.  0.
         25    1    3    3    0    0  0.30782948373E+02  0.10435704084E+03 -0.84601966131E+00  0.16578964302E+03  0.12509000000E+03 0.  0.
<mgrwt>
<rscale>  2 0.46191853E+03</rscale>
<asrwt>0</asrwt>
<pdfrwt beam="1">  1       21 0.25175011E-01 0.46191853E+03</pdfrwt>
<pdfrwt beam="2">  1       21 0.45822976E-01 0.46191853E+03</pdfrwt>
<totfact> 0.62968360E+04</totfact>
</mgrwt>
</event>
<event>
 7    0  0.4737014E-002  0.4621767E+03  0.7546771E-02  0.1024152E+00
         21   -1    0    0  502  501  0.00000000000E+00  0.00000000000E+00  0.12908328445E+03  0.12908328445E+03  0.00000000000E+00 0.  1.
         21   -1    0    0  501  502 -0.00000000000E+00 -0.00000000000E+00 -0.41370046322E+03  0.41370046322E+03  0.00000000000E+00 0.  1.
      99926    2    1    2    0    0 -0.71054273576E-14 -0.14210854715E-13 -0.28461717877E+03  0.54278374767E+03  0.46217665268E+03 0.  0.
      99925    2    3    3    0    0 -0.62957676492E+02 -0.66182997696E+02 -0.87023942665E+02  0.29171711654E+03  0.26302443094E+03 0.  0.
         25    1    4    4    0    0 -0.54313986607E+02 -0.44669659821E+02 -0.11953868636E+02  0.14399927335E+03  0.12509000000E+03 0.  0.
         25    1    4    4    0    0 -0.86436898845E+01 -0.21513337876E+02 -0.75070074028E+02  0.14771784319E+03  0.12509000000E+03 0.  0.
         25    1    3    3    0    0  0.62957676492E+02  0.66182997696E+02 -0.19759323611E+03  0.25106663114E+03  0.12509000000E+03 0.  0.
<mgrwt>
<rscale>  2 0.46217665E+03</rscale>
<asrwt>0</asrwt>
<pdfrwt beam="1">  1       21 0.18982836E-01 0.46217665E+03</pdfrwt>
<pdfrwt beam="2">  1       21 0.60838303E-01 0.46217665E+03</pdfrwt>
<totfact> 0.58926113E+04</totfact>
</mgrwt>
</event>
<event>
 7    0  0.4737014E-002  0.4551508E+03  0.7546771E-02  0.1026197E+00
         21   -1    0    0  502  501  0.00000000000E+00  0.00000000000E+00  0.37284983517E+03  0.37284983517E+03  0.00000000000E+00 0.  1.
         21   -1    0    0  501  502 -0.00000000000E+00 -0.00000000000E+00 -0.13890462834E+03  0.13890462834E+03  0.00000000000E+00 0.  1.
      99926    2    1    2    0    0  0.00000000000E+00  0.00000000000E+00  0.23394520683E+03  0.51175446352E+03  0.45515082240E+03 0.  0.
      99925    2    3    3    0    0  0.54382256633E+02 -0.45321304208E+02  0.47659982126E+02  0.27646497481E+03  0.26296379589E+03 0.  0.
         25    1    4    4    0    0  0.44756268631E+02 -0.57484885053E+02  0.40003169089E+02  0.15018454391E+03  0.12509000000E+03 0.  0.
         25    1    4    4    0    0  0.96259880016E+01  0.12163580845E+02  0.76568130369E+01  0.12628043091E+03  0.12509000000E+03 0.  0.
         25    1    3    3    0    0 -0.54382256633E+02  0.45321304208E+02  0.18628522470E+03  0.23528948870E+03  0.12509000000E+03 0.  0.
<mgrwt>
<rscale>  2 0.45515082E+03</rscale>
<asrwt>0</asrwt>
<pdfrwt beam="1">  1       21 0.54830858E-01 0.45515082E+03</pdfrwt>
<pdfrwt beam="2">  1       21 0.20427151E-01 0.45515082E+03</pdfrwt>
<totfact> 0.64375428E+04</totfact>
</mgrwt>
</event>
<event>
 7    0  0.4737014E-002  0.4514122E+03  0.7546771E-02  0.1027302E+00
         21   -1    0    0  502  501  0.00000000000E+00  0.00000000000E+00  0.74848241403E+02  0.74848241403E+02  0.00000000000E+00 0.  1.
         21   -1    0    0  501  502 -0.00000000000E+00 -0.00000000000E+00 -0.68062047597E+03  0.68062047597E+03  0.00000000000E+00 0.  1.
      99926    2    1    2    0    0  0.00000000000E+00  0.00000000000E+00 -0.60577223456E+03  0.75546871737E+03  0.45141220936E+03 0.  0.
      99925    2    3    3    0    0  0.79533892825E+02  0.70045862305E+02 -0.32872797533E+03  0.43354777582E+03  0.26204871536E+03 0.  0.
         25    1    4    4    0    0  0.71289586991E+02  0.55683601105E+02 -0.15428792508E+03  0.21825476071E+03  0.12509000000E+03 0.  0.
         25    1    4    4    0    0  0.82443058340E+01  0.14362261200E+02 -0.17444005025E+03  0.21529301511E+03  0.12509000000E+03 0.  0.
         25    1    3    3    0    0 -0.79533892825E+02 -0.70045862305E+02 -0.27704425924E+03  0.32192094155E+03  0.12509000000E+03 0.  0.
<mgrwt>
<rscale>  2 0.45141221E+03</rscale>
<asrwt>0</asrwt>
<pdfrwt beam="1">  1       21 0.11007094E-01 0.45141221E+03</pdfrwt>
<pdfrwt beam="2">  1       21 0.10009125E+00 0.45141221E+03</pdfrwt>
<totfact> 0.51426871E+04</totfact>
</mgrwt>
</event>
<event>
 7    0  0.4737014E-002  0.4510467E+03  0.7546771E-02  0.1027410E+00
         21   -1    0    0  502  501  0.00000000000E+00  0.00000000000E+00  0.12475997176E+04  0.12475997176E+04  0.00000000000E+00 0.  1.
         21   -1    0    0  501  502 -0.00000000000E+00 -0.00000000000E+00 -0.40766908240E+02  0.40766908240E+02  0.00000000000E+00 0.  1.
      99926    2    1    2    0    0  0.14210854715E-13  0.00000000000E+00  0.12068328094E+04  0.12883666258E+04  0.45104670804E+03 0.  0.
      99925    2    3    3    0    0 -0.99739661378E+02 -0.40040355206E+02  0.82019703132E+03  0.86802633148E+03  0.26305001781E+03 0.  0.
         25    1    4    4    0    0 -0.27876198700E+02 -0.26564771819E+02  0.49500897677E+03  0.51201969175E+03  0.12509000000E+03 0.  0.
         25    1    3    3    0    0  0.99739661378E+02  0.40040355206E+02  0.38663577805E+03  0.42034029436E+03  0.12509000000E+03 0.  0.
         25    1    4    4    0    0 -0.71863462678E+02 -0.13475583387E+02  0.32518805454E+03  0.35600663973E+03  0.12509000000E+03 0.  0.
<mgrwt>
<rscale>  2 0.45104671E+03</rscale>
<asrwt>0</asrwt>
<pdfrwt beam="1">  1       21 0.18347052E+00 0.45104671E+03</pdfrwt>
<pdfrwt beam="2">  1       21 0.59951344E-02 0.45104671E+03</pdfrwt>
<totfact> 0.30377850E+04</totfact>
</mgrwt>
</event>
<event>
 7    0  0.4737014E-002  0.4532329E+03  0.7546771E-02  0.1026762E+00
         21   -1    0    0  502  501  0.00000000000E+00  0.00000000000E+00  0.33710047182E+03  0.33710047182E+03  0.00000000000E+00 0.  1.
         21   -1    0    0  501  502 -0.00000000000E+00 -0.00000000000E+00 -0.15234332938E+03  0.15234332938E+03  0.00000000000E+00 0.  1.
      99926    2    1    2    0    0  0.00000000000E+00  0.00000000000E+00  0.18475714244E+03  0.48944380120E+03  0.45323286824E+03 0.  0.
      99925    2    3    3    0    0  0.34929666035E+02  0.90466504666E+02  0.57302008624E+02  0.28622817859E+03  0.26313262814E+03 0.  0.
         25    1    4    4    0    0  0.32530494737E+02  0.71061761990E+02  0.59168145338E+00  0.14749869590E+03  0.12509000000E+03 0.  0.
         25    1    3    3    0    0 -0.34929666035E+02 -0.90466504666E+02  0.12745513382E+03  0.20321562261E+03  0.12509000000E+03 0.  0.
         25    1    4    4    0    0  0.23991712980E+01  0.19404742676E+02  0.56710327171E+02  0.13872948270E+03  0.12509000000E+03 0.  0.
<mgrwt>
<rscale>  2 0.45323287E+03</rscale>
<asrwt>0</asrwt>
<pdfrwt beam="1">  1       21 0.49573599E-01 0.45323287E+03</pdfrwt>
<pdfrwt beam="2">  1       21 0.22403431E-01 0.45323287E+03</pdfrwt>
<totfact> 0.66953166E+04</totfact>
</mgrwt>
</event>
<event>
 7    0  0.4737014E-002  0.4587918E+03  0.7546771E-02  0.1025132E+00
         21   -1    0    0  502  501  0.00000000000E+00  0.00000000000E+00  0.30784049297E+03  0.30784049297E+03  0.00000000000E+00 0.  1.
         21   -1    0    0  501  502 -0.00000000000E+00 -0.00000000000E+00 -0.17094071385E+03  0.17094071385E+03  0.00000000000E+00 0.  1.
      99926    2    1    2    0    0  0.14210854715E-13 -0.35527136788E-14  0.13689977912E+03  0.47878120681E+03  0.45879177681E+03 0.  0.
      99925    2    3    3    0    0 -0.10525906595E+03  0.25130337299E+02  0.13123303975E+03  0.31328007433E+03  0.26308038587E+03 0.  0.
         25    1    3    3    0    0  0.10525906595E+03 -0.25130337299E+02  0.56667393672E+01  0.16550113248E+03  0.12509000000E+03 0.  0.
         25    1    4    4    0    0 -0.74986108818E+02  0.44792461360E+02  0.87826378265E+02  0.17604051218E+03  0.12509000000E+03 0.  0.
         25    1    4    4    0    0 -0.30272957136E+02 -0.19662124061E+02  0.43406661489E+02  0.13723956215E+03  0.12509000000E+03 0.  0.
<mgrwt>
<rscale>  2 0.45879178E+03</rscale>
<asrwt>0</asrwt>
<pdfrwt beam="1">  1       21 0.45270661E-01 0.45879178E+03</pdfrwt>
<pdfrwt beam="2">  1       21 0.25138340E-01 0.45879178E+03</pdfrwt>
<totfact> 0.64816331E+04</totfact>
</mgrwt>
</event>
<event>
 7    0  0.4737014E-002  0.4570001E+03  0.7546771E-02  0.1025655E+00
         21   -1    0    0  502  501  0.00000000000E+00  0.00000000000E+00  0.41923998144E+03  0.41923998144E+03  0.00000000000E+00 0. -1.
         21   -1    0    0  501  502 -0.00000000000E+00 -0.00000000000E+00 -0.12454030247E+03  0.12454030247E+03  0.00000000000E+00 0. -1.
      99926    2    1    2    0    0  0.00000000000E+00  0.14210854715E-13  0.29469967896E+03  0.54378028391E+03  0.45700010546E+03 0.  0.
      99925    2    3    3    0    0 -0.30151238938E+02 -0.10929826237E+03  0.20837430629E+03  0.35416281258E+03  0.26297573828E+03 0.  0.
         25    1    4    4    0    0 -0.35921385144E+01 -0.95918740720E+02  0.12001030670E+03  0.19814966589E+03  0.12509000000E+03 0.  0.
         25    1    3    3    0    0  0.30151238938E+02  0.10929826237E+03  0.86325372678E+02  0.18961747134E+03  0.12509000000E+03 0.  0.
         25    1    4    4    0    0 -0.26559100424E+02 -0.13379521654E+02  0.88363999588E+02  0.15601314668E+03  0.12509000000E+03 0.  0.
<mgrwt>
<rscale>  2 0.45700011E+03</rscale>
<asrwt>0</asrwt>
<pdfrwt beam="1">  1       21 0.61652938E-01 0.45700011E+03</pdfrwt>
<pdfrwt beam="2">  1       21 0.18314750E-01 0.45700011E+03</pdfrwt>
<totfact> 0.61303358E+04</totfact>
</mgrwt>
</event>
<event>
 7    0  0.4737014E-002  0.4477093E+03  0.7546771E-02  0.1028407E+00
         21   -1    0    0  502  501  0.00000000000E+00  0.00000000000E+00  0.22886427406E+03  0.22886427406E+03  0.00000000000E+00 0. -1.
         21   -1    0    0  501  502 -0.00000000000E+00 -0.00000000000E+00 -0.21895467188E+03  0.21895467188E+03  0.00000000000E+00 0. -1.
      99926    2    1    2    0    0  0.00000000000E+00  0.00000000000E+00  0.99096021837E+01  0.44781894594E+03  0.44770928975E+03 0.  0.
      99925    2    3    3    0    0 -0.34762541138E+02  0.14593956073E+02 -0.92741548341E+02  0.28166785619E+03  0.26327622111E+03 0.  0.
         25    1    4    4    0    0 -0.28167140263E+01  0.15848175279E+02 -0.62742874042E+01  0.12627736662E+03  0.12509000000E+03 0.  0.
         25    1    4    4    0    0 -0.31945827112E+02 -0.12542192064E+01 -0.86467260937E+02  0.15539048957E+03  0.12509000000E+03 0.  0.
         25    1    3    3    0    0  0.34762541138E+02 -0.14593956073E+02  0.10265115052E+03  0.16615108975E+03  0.12509000000E+03 0.  0.
<mgrwt>
<rscale>  2 0.44770929E+03</rscale>
<asrwt>0</asrwt>
<pdfrwt beam="1">  1       21 0.33656511E-01 0.44770929E+03</pdfrwt>
<pdfrwt beam="2">  1       21 0.32199216E-01 0.44770929E+03</pdfrwt>
<totfact> 0.73244038E+04</totfact>
</mgrwt>
</event>
<event>
 7    0  0.4737014E-002  0.4518960E+03  0.7546771E-02  0.1027158E+00
         21   -1    0    0  502  501  0.00000000000E+00  0.00000000000E+00  0.21051155613E+03  0.21051155613E+03  0.00000000000E+00 0.  1.
         21   -1    0    0  501  502 -0.00000000000E+00 -0.00000000000E+00 -0.24251636600E+03  0.24251636600E+03  0.00000000000E+00 0.  1.
      99926    2    1    2    0    0 -0.71054273576E-14  0.00000000000E+00 -0.32004809866E+02  0.45302792213E+03  0.45189599508E+03 0.  0.
      99925    2    3    3    0    0  0.29741877680E+02  0.10341602987E+03  0.41664056121E+01  0.28410391717E+03  0.26290344671E+03 0.  0.
         25    1    3    3    0    0 -0.29741877680E+02 -0.10341602987E+03 -0.36171215478E+02  0.16892400496E+03  0.12509000000E+03 0.  0.
         25    1    4    4    0    0  0.55360127774E+02  0.51683201279E+02  0.53961586146E+01  0.14633018714E+03  0.12509000000E+03 0.  0.
         25    1    4    4    0    0 -0.25618250094E+02  0.51732828595E+02 -0.12297530025E+01  0.13777373002E+03  0.12509000000E+03 0.  0.
<mgrwt>
<rscale>  2 0.45189600E+03</rscale>
<asrwt>0</asrwt>
<pdfrwt beam="1">  1       21 0.30957582E-01 0.45189600E+03</pdfrwt>
<pdfrwt beam="2">  1       21 0.35664172E-01 0.45189600E+03</pdfrwt>
<totfact> 0.70418441E+04</totfact>
</mgrwt>
</event>
<event>
 7    0  0.4737014E-002  0.4570403E+03  0.7546771E-02  0.1025643E+00
         21   -1    0    0  502  501  0.00000000000E+00  0.00000000000E+00  0.82214241402E+02  0.82214241402E+02  0.00000000000E+00 0. -1.
         21   -1    0    0  501  502 -0.00000000000E+00 -0.00000000000E+00 -0.63518749390E+03  0.63518749390E+03  0.00000000000E+00 0. -1.
      99926    2    1    2    0    0  0.14210854715E-13 -0.22204460493E-15 -0.55297325250E+03  0.71740173531E+03  0.45704029564E+03 0.  0.
      99925    2    3    3    0    0  0.73208559162E+02 -0.10795360345E+01 -0.20822642322E+03  0.34342507436E+03  0.26310051281E+03 0.  0.
         25    1    4    4    0    0  0.10474617710E+01  0.12696755660E+01 -0.69249678688E+02  0.14298858469E+03  0.12509000000E+03 0.  0.
         25    1    4    4    0    0  0.72161097391E+02 -0.23492116005E+01 -0.13897674453E+03  0.20043648967E+03  0.12509000000E+03 0.  0.
         25    1    3    3    0    0 -0.73208559162E+02  0.10795360345E+01 -0.34474682928E+03  0.37397666095E+03  0.12509000000E+03 0.  0.
<mgrwt>
<rscale>  2 0.45704030E+03</rscale>
<asrwt>0</asrwt>
<pdfrwt beam="1">  1       21 0.12090330E-01 0.45704030E+03</pdfrwt>
<pdfrwt beam="2">  1       21 0.93409925E-01 0.45704030E+03</pdfrwt>
<totfact> 0.51142596E+04</totfact>
</mgrwt>
</event>
<event>
 7    0  0.4737014E-002  0.4542856E+03  0.7546771E-02  0.1026452E+00
         21   -1    0    0  502  501  0.00000000000E+00  0.00000000000E+00  0.88342913714E+02  0.88342913714E+02  0.00000000000E+00 0.  1.
         21   -1    0    0  501  502 -0.00000000000E+00 -0.00000000000E+00 -0.58401805049E+03  0.58401805049E+03  0.00000000000E+00 0.  1.
      99926    2    1    2    0    0  0.71054273576E-14  0.17763568394E-14 -0.49567513677E+03  0.67236096420E+03  0.45428562047E+03 0.  0.
      99925    2    3    3    0    0 -0.52726434029E+02 -0.69734751160E+01 -0.16537792697E+03  0.31518809135E+03  0.26299233448E+03 0.  0.
         25    1    4    4    0    0 -0.46054523977E+02  0.10663579687E+02 -0.46457843142E+02  0.14156472159E+03  0.12509000000E+03 0.  0.
         25    1    3    3    0    0  0.52726434029E+02  0.69734751160E+01 -0.33029720980E+03  0.35717287285E+03  0.12509000000E+03 0.  0.
         25    1    4    4    0    0 -0.66719100520E+01 -0.17637054803E+02 -0.11892008383E+03  0.17362336975E+03  0.12509000000E+03 0.  0.
<mgrwt>
<rscale>  2 0.45428562E+03</rscale>
<asrwt>0</asrwt>
<pdfrwt beam="1">  1       21 0.12991605E-01 0.45428562E+03</pdfrwt>
<pdfrwt beam="2">  1       21 0.85885009E-01 0.45428562E+03</pdfrwt>
<totfact> 0.54737216E+04</totfact>
</mgrwt>
</event>
<event>
 7    0  0.4737014E-002  0.4513142E+03  0.7546771E-02  0.1027331E+00
         21   -1    0    0  502  501  0.00000000000E+00  0.00000000000E+00  0.16147455704E+03  0.16147455704E+03  0.00000000000E+00 0. -1.
         21   -1    0    0  501  502 -0.00000000000E+00 -0.00000000000E+00 -0.31535071398E+03  0.31535071398E+03  0.00000000000E+00 0. -1.
      99926    2    1    2    0    0  0.28421709430E-13  0.35527136788E-14 -0.15387615694E+03  0.47682527102E+03  0.45131415601E+03 0.  0.
      99925    2    3    3    0    0 -0.95643346920E+02 -0.23869961059E+02 -0.46329398434E+02  0.28465025127E+03  0.26298655391E+03 0.  0.
         25    1    4    4    0    0 -0.97325148972E+01 -0.28188417344E+02 -0.13250909901E+02  0.12927646124E+03  0.12509000000E+03 0.  0.
         25    1    4    4    0    0 -0.85910832023E+02  0.43184562854E+01 -0.33078488533E+02  0.15537379003E+03  0.12509000000E+03 0.  0.
         25    1    3    3    0    0  0.95643346920E+02  0.23869961059E+02 -0.10754675851E+03  0.19217501975E+03  0.12509000000E+03 0.  0.
<mgrwt>
<rscale>  2 0.45131416E+03</rscale>
<asrwt>0</asrwt>
<pdfrwt beam="1">  1       21 0.23746259E-01 0.45131416E+03</pdfrwt>
<pdfrwt beam="2">  1       21 0.46375104E-01 0.45131416E+03</pdfrwt>
<totfact> 0.68926415E+04</totfact>
</mgrwt>
</event>
<event>
 7    0  0.4737014E-002  0.4558572E+03  0.7546771E-02  0.1025990E+00
         21   -1    0    0  502  501  0.00000000000E+00  0.00000000000E+00  0.59760289166E+03  0.59760289166E+03  0.00000000000E+00 0.  1.
         21   -1    0    0  501  502 -0.00000000000E+00 -0.00000000000E+00 -0.86933059869E+02  0.86933059869E+02  0.00000000000E+00 0.  1.
      99926    2    1    2    0    0 -0.14210854715E-13  0.14210854715E-13  0.51066983179E+03  0.68453595153E+03  0.45585720553E+03 0.  0.
      99925    2    3    3    0    0 -0.47800498406E+02  0.99974437538E+02  0.36177541678E+03  0.46071273841E+03  0.26285927669E+03 0.  0.
         25    1    4    4    0    0 -0.22642459586E+00  0.22839544040E+02  0.20028273809E+03  0.23723907628E+03  0.12509000000E+03 0.  0.
         25    1    3    3    0    0  0.47800498406E+02 -0.99974437538E+02  0.14889441501E+03  0.22382321312E+03  0.12509000000E+03 0.  0.
         25    1    4    4    0    0 -0.47574073811E+02  0.77134893498E+02  0.16149267869E+03  0.22347366213E+03  0.12509000000E+03 0.  0.
<mgrwt>
<rscale>  2 0.45585721E+03</rscale>
<asrwt>0</asrwt>
<pdfrwt beam="1">  1       21 0.87882776E-01 0.45585721E+03</pdfrwt>
<pdfrwt beam="2">  1       21 0.12784274E-01 0.45585721E+03</pdfrwt>
<totfact> 0.53389633E+04</totfact>
</mgrwt>
</event>
<event>
 7    0  0.4737014E-002  0.4491886E+03  0.7546771E-02  0.1027964E+00
         21   -1    0    0  502  501  0.00000000000E+00  0.00000000000E+00  0.56921043476E+02  0.56921043476E+02  0.00000000000E+00 0.  1.
         21   -1    0    0  501  502 -0.00000000000E+00 -0.00000000000E+00 -0.88618525214E+03  0.88618525214E+03  0.00000000000E+00 0.  1.
      99926    2    1    2    0    0  0.00000000000E+00 -0.35527136788E-14 -0.82926420866E+03  0.94310629561E+03  0.44918855401E+03 0.  0.
      99925    2    3    3    0    0 -0.97572087849E+02 -0.20620667794E+02 -0.43970287768E+03  0.52197559979E+03  0.26301023149E+03 0.  0.
         25    1    3    3    0    0  0.97572087849E+02  0.20620667794E+02 -0.38956133099E+03  0.42113069583E+03  0.12509000000E+03 0.  0.
         25    1    4    4    0    0 -0.45255054246E+02 -0.15340686120E+02 -0.14407572433E+03  0.19669437976E+03  0.12509000000E+03 0.  0.
         25    1    4    4    0    0 -0.52317033603E+02 -0.52799816742E+01 -0.29562715334E+03  0.32528122003E+03  0.12509000000E+03 0.  0.
<mgrwt>
<rscale>  2 0.44918855E+03</rscale>
<asrwt>0</asrwt>
<pdfrwt beam="1">  1       21 0.83707410E-02 0.44918855E+03</pdfrwt>
<pdfrwt beam="2">  1       21 0.13032137E+00 0.44918855E+03</pdfrwt>
<totfact> 0.43358446E+04</totfact>
</mgrwt>
</event>
<event>
 6    0  0.4737014E-002  0.4521702E+03  0.7546771E-02  0.1027077E+00
         21   -1    0    0  502  501  0.00000000000E+00  0.00000000000E+00  0.25510298821E+04  0.25510298821E+04  0.00000000000E+00 0.  1.
         21   -1    0    0  501  502 -0.00000000000E+00 -0.00000000000E+00 -0.20036797017E+02  0.20036797017E+02  0.00000000000E+00 0.  1.
      99926    2    1    2    0    0  0.14210854715E-13  0.71054273576E-14  0.25309930851E+04  0.25710666791E+04  0.45217018006E+03 0.  0.
         25    1    3    3    0    0 -0.64336377210E+02 -0.39443961430E+02  0.63691616001E+03  0.65345596524E+03  0.12509000000E+03 0.  0.
         25    1    3    3    0    0 -0.40411091737E+02 -0.48522000205E+00  0.80975532197E+03  0.82035631365E+03  0.12509000000E+03 0.  0.
         25    1    3    3    0    0  0.10474746895E+03  0.39929181432E+02  0.10843216031E+04  0.10972544002E+04  0.12509000000E+03 0.  0.
<mgrwt>
<rscale>  2 0.45217018E+03</rscale>
<asrwt>0</asrwt>
<pdfrwt beam="1">  1       21 0.37515123E+00 0.45217018E+03</pdfrwt>
<pdfrwt beam="2">  1       21 0.29465896E-02 0.45217018E+03</pdfrwt>
<totfact> 0.65752945E+03</totfact>
</mgrwt>
</event>
<event>
 7    0  0.4737014E-002  0.4626555E+03  0.7546771E-02  0.1024014E+00
         21   -1    0    0  502  501  0.00000000000E+00  0.00000000000E+00  0.10302192521E+04  0.10302192521E+04  0.00000000000E+00 0. -1.
         21   -1    0    0  501  502 -0.00000000000E+00 -0.00000000000E+00 -0.51942842616E+02  0.51942842616E+02  0.00000000000E+00 0. -1.
      99926    2    1    2    0    0  0.00000000000E+00  0.00000000000E+00  0.97827640944E+03  0.10821620947E+04  0.46265545050E+03 0.  0.
      99925    2    3    3    0    0 -0.10571859587E+02  0.81441461558E+02  0.81678659914E+03  0.86200092006E+03  0.26298433751E+03 0.  0.
         25    1    3    3    0    0  0.10571859587E+02 -0.81441461558E+02  0.16148981031E+03  0.22016117462E+03  0.12509000000E+03 0.  0.
         25    1    4    4    0    0 -0.20967195409E+02  0.18735106482E+02  0.48725278114E+03  0.50383867291E+03  0.12509000000E+03 0.  0.
         25    1    4    4    0    0  0.10395335822E+02  0.62706355076E+02  0.32953381800E+03  0.35816224715E+03  0.12509000000E+03 0.  0.
<mgrwt>
<rscale>  2 0.46265545E+03</rscale>
<asrwt>0</asrwt>
<pdfrwt beam="1">  1       21 0.15150282E+00 0.46265545E+03</pdfrwt>
<pdfrwt beam="2">  1       21 0.76386540E-02 0.46265545E+03</pdfrwt>
<totfact> 0.34039726E+04</totfact>
</mgrwt>
</event>
<event>
 7    0  0.4737014E-002  0.4738252E+03  0.7546771E-02  0.1020846E+00
         21   -1    0    0  502  501  0.00000000000E+00  0.00000000000E+00  0.20007134319E+03  0.20007134319E+03  0.00000000000E+00 0.  1.
         21   -1    0    0  501  502 -0.00000000000E+00 -0.00000000000E+00 -0.28053784835E+03  0.28053784835E+03  0.00000000000E+00 0.  1.
      99926    2    1    2    0    0  0.00000000000E+00  0.00000000000E+00 -0.80466505159E+02  0.48060919154E+03  0.47382521729E+03 0.  0.
      99925    2    3    3    0    0 -0.97077146099E+02  0.20539895485E+02 -0.13500784441E+03  0.31188419224E+03  0.26305659414E+03 0.  0.
         25    1    3    3    0    0  0.97077146099E+02 -0.20539895485E+02  0.54541339249E+02  0.16872499930E+03  0.12509000000E+03 0.  0.
         25    1    4    4    0    0 -0.11158504078E+02  0.19710678966E+02 -0.41947279860E+02  0.13386599817E+03  0.12509000000E+03 0.  0.
         25    1    4    4    0    0 -0.85918642021E+02  0.82921651865E+00 -0.93060564548E+02  0.17801819407E+03  0.12509000000E+03 0.  0.
<mgrwt>
<rscale>  2 0.47382522E+03</rscale>
<asrwt>0</asrwt>
<pdfrwt beam="1">  1       21 0.29422256E-01 0.47382522E+03</pdfrwt>
<pdfrwt beam="2">  1       21 0.41255566E-01 0.47382522E+03</pdfrwt>
<totfact> 0.57558922E+04</totfact>
</mgrwt>
</event>
<event>
 7    0  0.4737014E-002  0.4506962E+03  0.7546771E-02  0.1027515E+00
         21   -1    0    0  502  501  0.00000000000E+00  0.00000000000E+00  0.19752933567E+03  0.19752933567E+03  0.00000000000E+00 0.  1.
         21   -1    0    0  501  502 -0.00000000000E+00 -0.00000000000E+00 -0.25708462534E+03  0.25708462534E+03  0.00000000000E+00 0.  1.
      99926    2    1    2    0    0 -0.71054273576E-14 -0.14210854715E-13 -0.59555289664E+02  0.45461396101E+03  0.45069615154E+03 0.  0.
      99925    2    3    3    0    0 -0.43522290728E+02 -0.93000449293E+02 -0.38488911396E+00  0.28230053216E+03  0.26296419711E+03 0.  0.
         25    1    4    4    0    0 -0.29020764028E+02 -0.53983665351E+02  0.39098749997E+02  0.14468124004E+03  0.12509000000E+03 0.  0.
         25    1    3    3    0    0  0.43522290728E+02  0.93000449293E+02 -0.59170400550E+02  0.17231342884E+03  0.12509000000E+03 0.  0.
         25    1    4    4    0    0 -0.14501526700E+02 -0.39016783943E+02 -0.39483639111E+02  0.13761929212E+03  0.12509000000E+03 0.  0.
<mgrwt>
<rscale>  2 0.45069615E+03</rscale>
<asrwt>0</asrwt>
<pdfrwt beam="1">  1       21 0.29048432E-01 0.45069615E+03</pdfrwt>
<pdfrwt beam="2">  1       21 0.37806563E-01 0.45069615E+03</pdfrwt>
<totfact> 0.70979974E+04</totfact>
</mgrwt>
</event>
<event>
 7    0  0.4737014E-002  0.4479908E+03  0.7546771E-02  0.1028323E+00
         21   -1    0    0  502  501  0.00000000000E+00  0.00000000000E+00  0.97410276912E+03  0.97410276912E+03  0.00000000000E+00 0.  1.
         21   -1    0    0  501  502 -0.00000000000E+00 -0.00000000000E+00 -0.51507857169E+02  0.51507857169E+02  0.00000000000E+00 0.  1.
      99926    2    1    2    0    0  0.00000000000E+00  0.14210854715E-13  0.92259491195E+03  0.10256106263E+04  0.44799083160E+03 0.  0.
      99925    2    3    3    0    0 -0.42346910156E+02 -0.85017655909E+02  0.47417035715E+03  0.55047553806E+03  0.26299149756E+03 0.  0.
         25    1    4    4    0    0  0.16886368560E+02 -0.53486015760E+02  0.21531135847E+03  0.25524966702E+03  0.12509000000E+03 0.  0.
         25    1    3    3    0    0  0.42346910156E+02  0.85017655909E+02  0.44842455480E+03  0.47513508823E+03  0.12509000000E+03 0.  0.
         25    1    4    4    0    0 -0.59233278716E+02 -0.31531640149E+02  0.25885899868E+03  0.29522587104E+03  0.12509000000E+03 0.  0.
<mgrwt>
<rscale>  2 0.44799083E+03</rscale>
<asrwt>0</asrwt>
<pdfrwt beam="1">  1       21 0.14325040E+00 0.44799083E+03</pdfrwt>
<pdfrwt beam="2">  1       21 0.75746855E-02 0.44799083E+03</pdfrwt>
<totfact> 0.40348387E+04</totfact>
</mgrwt>
</event>
<event>
 7    0  0.4737014E-002  0.4471067E+03  0.7546771E-02  0.1028588E+00
         21   -1    0    0  502  501  0.00000000000E+00  0.00000000000E+00  0.62626436130E+02  0.62626436130E+02  0.00000000000E+00 0. -1.
         21   -1    0    0  501  502 -0.00000000000E+00 -0.00000000000E+00 -0.79800315149E+03  0.79800315149E+03  0.00000000000E+00 0. -1.
      99926    2    1    2    0    0  0.00000000000E+00 -0.14210854715E-13 -0.73537671536E+03  0.86062958762E+03  0.44710666914E+03 0.  0.
      99925    2    3    3    0    0  0.17428810615E+02 -0.86843419176E+02 -0.57681897721E+03  0.64009930099E+03  0.26298562654E+03 0.  0.
         25    1    4    4    0    0  0.26615723200E+02 -0.73543991403E+02 -0.36326182189E+03  0.39207623588E+03  0.12509000000E+03 0.  0.
         25    1    3    3    0    0 -0.17428810615E+02  0.86843419176E+02 -0.15855773815E+03  0.22053028663E+03  0.12509000000E+03 0.  0.
         25    1    4    4    0    0 -0.91869125857E+01 -0.13299427773E+02 -0.21355715531E+03  0.24802306511E+03  0.12509000000E+03 0.  0.
<mgrwt>
<rscale>  2 0.44710667E+03</rscale>
<asrwt>0</asrwt>
<pdfrwt beam="1">  1       21 0.92097709E-02 0.44710667E+03</pdfrwt>
<pdfrwt beam="2">  1       21 0.11735339E+00 0.44710667E+03</pdfrwt>
<totfact> 0.47862577E+04</totfact>
</mgrwt>
</event>
<event>
 7    0  0.4737014E-002  0.4556865E+03  0.7546771E-02  0.1026040E+00
         21   -1    0    0  502  501  0.00000000000E+00  0.00000000000E+00  0.59314227310E+02  0.59314227310E+02  0.00000000000E+00 0. -1.
         21   -1    0    0  501  502 -0.00000000000E+00 -0.00000000000E+00 -0.87521224951E+03  0.87521224951E+03  0.00000000000E+00 0. -1.
      99926    2    1    2    0    0  0.71054273576E-14 -0.71054273576E-14 -0.81589802220E+03  0.93452647682E+03  0.45568646375E+03 0.  0.
      99925    2    3    3    0    0  0.63628300646E+02 -0.35856674796E+02 -0.69214418223E+03  0.74400933119E+03  0.26296778155E+03 0.  0.
         25    1    3    3    0    0 -0.63628300646E+02  0.35856674796E+02 -0.12375383997E+03  0.19051714562E+03  0.12509000000E+03 0.  0.
         25    1    4    4    0    0  0.45900110177E+02 -0.56355049074E+02 -0.38331063649E+03  0.40970387332E+03  0.12509000000E+03 0.  0.
         25    1    4    4    0    0  0.17728190469E+02  0.20498374278E+02 -0.30883354575E+03  0.33430545787E+03  0.12509000000E+03 0.  0.
<mgrwt>
<rscale>  2 0.45568646E+03</rscale>
<asrwt>0</asrwt>
<pdfrwt beam="1">  1       21 0.87226811E-02 0.45568646E+03</pdfrwt>
<pdfrwt beam="2">  1       21 0.12870767E+00 0.45568646E+03</pdfrwt>
<totfact> 0.41550288E+04</totfact>
</mgrwt>
</event>
<event>
 7    0  0.4737014E-002  0.4505374E+03  0.7546771E-02  0.1027562E+00
         21   -1    0    0  502  501  0.00000000000E+00  0.00000000000E+00  0.20960390378E+03  0.20960390378E+03  0.00000000000E+00 0.  1.
         21   -1    0    0  501  502 -0.00000000000E+00 -0.00000000000E+00 -0.24210418028E+03  0.24210418028E+03  0.00000000000E+00 0.  1.
      99926    2    1    2    0    0  0.88817841970E-15  0.00000000000E+00 -0.32500276500E+02  0.45170808405E+03  0.45053737384E+03 0.  0.
      99925    2    3    3    0    0 -0.26373686834E+01  0.91046793216E+02 -0.80550476280E+02  0.28968091328E+03  0.26292618360E+03 0.  0.
         25    1    4    4    0    0 -0.16898642532E+02  0.65825975727E+02 -0.75590993216E+02  0.16118352756E+03  0.12509000000E+03 0.  0.
         25    1    3    3    0    0  0.26373686834E+01 -0.91046793216E+02  0.48050199780E+02  0.16202717077E+03  0.12509000000E+03 0.  0.
         25    1    4    4    0    0  0.14261273848E+02  0.25220817489E+02 -0.49594830632E+01  0.12849738573E+03  0.12509000000E+03 0.  0.
<mgrwt>
<rscale>  2 0.45053737E+03</rscale>
<asrwt>0</asrwt>
<pdfrwt beam="1">  1       21 0.30824103E-01 0.45053737E+03</pdfrwt>
<pdfrwt beam="2">  1       21 0.35603556E-01 0.45053737E+03</pdfrwt>
<totfact> 0.71292505E+04</totfact>
</mgrwt>
</event>
<event>
 7    0  0.4737014E-002  0.4529394E+03  0.7546771E-02  0.1026849E+00
         21   -1    0    0  502  501  0.00000000000E+00  0.00000000000E+00  0.16718181288E+02  0.16718181288E+02  0.00000000000E+00 0.  1.
         21   -1    0    0  501  502 -0.00000000000E+00 -0.00000000000E+00 -0.30678296845E+04  0.30678296845E+04  0.00000000000E+00 0.  1.
      99926    2    1    2    0    0  0.00000000000E+00  0.00000000000E+00 -0.30511115032E+04  0.30845478658E+04  0.45293943447E+03 0.  0.
      99925    2    3    3    0    0  0.29434223777E+02  0.82545111561E+02 -0.23897614974E+04  0.24057906137E+04  0.26303686728E+03 0.  0.
         25    1    4    4    0    0  0.35723516831E+02  0.47847812072E+02 -0.93257124691E+03  0.94281611220E+03  0.12509000000E+03 0.  0.
         25    1    3    3    0    0 -0.29434223777E+02 -0.82545111561E+02 -0.66135000583E+03  0.67875725210E+03  0.12509000000E+03 0.  0.
         25    1    4    4    0    0 -0.62892930532E+01  0.34697299489E+02 -0.14571902505E+04  0.14629745015E+04  0.12509000000E+03 0.  0.
<mgrwt>
<rscale>  2 0.45293943E+03</rscale>
<asrwt>0</asrwt>
<pdfrwt beam="1">  1       21 0.24585601E-02 0.45293943E+03</pdfrwt>
<pdfrwt beam="2">  1       21 0.45115069E+00 0.45293943E+03</pdfrwt>
<totfact> 0.28491407E+03</totfact>
</mgrwt>
</event>
<event>
 7    0  0.4737014E-002  0.4542101E+03  0.7546771E-02  0.1026474E+00
         21   -1    0    0  502  501  0.00000000000E+00  0.00000000000E+00  0.58909403384E+03  0.58909403384E+03  0.00000000000E+00 0.  1.
         21   -1    0    0  501  502 -0.00000000000E+00 -0.00000000000E+00 -0.87552576952E+02  0.87552576952E+02  0.00000000000E+00 0.  1.
      99926    2    1    2    0    0  0.00000000000E+00  0.00000000000E+00  0.50154145688E+03  0.67664661079E+03  0.45421008676E+03 0.  0.
      99925    2    3    3    0    0  0.50428406234E+01 -0.10823286902E+03  0.27324812685E+03  0.39468005813E+03  0.26337810327E+03 0.  0.
         25    1    4    4    0    0 -0.21437663278E+02 -0.50444000026E+02  0.18105552510E+03  0.22678796665E+03  0.12509000000E+03 0.  0.
         25    1    4    4    0    0  0.26480503901E+02 -0.57788868996E+02  0.92192601749E+02  0.16789209149E+03  0.12509000000E+03 0.  0.
         25    1    3    3    0    0 -0.50428406234E+01  0.10823286902E+03  0.22829333003E+03  0.28196655265E+03  0.12509000000E+03 0.  0.
<mgrwt>
<rscale>  2 0.45421009E+03</rscale>
<asrwt>0</asrwt>
<pdfrwt beam="1">  1       21 0.86631473E-01 0.45421009E+03</pdfrwt>
<pdfrwt beam="2">  1       21 0.12875379E-01 0.45421009E+03</pdfrwt>
<totfact> 0.54528326E+04</totfact>
</mgrwt>
</event>
<event>
 7    0  0.4737014E-002  0.4603395E+03  0.7546771E-02  0.1024683E+00
         21   -1    0    0  502  501  0.00000000000E+00  0.00000000000E+00  0.74283418526E+03  0.74283418526E+03  0.00000000000E+00 0.  1.
         21   -1    0    0  501  502 -0.00000000000E+00 -0.00000000000E+00 -0.71318900821E+02  0.71318900821E+02  0.00000000000E+00 0.  1.
      99926    2    1    2    0    0  0.00000000000E+00  0.35527136788E-14  0.67151528444E+03  0.81415308608E+03  0.46033951638E+03 0.  0.
      99925    2    3    3    0    0 -0.11591269705E+03 -0.20350299547E+02  0.39715892103E+03  0.49047298124E+03  0.26263786615E+03 0.  0.
         25    1    4    4    0    0 -0.47928228068E+02  0.29070743886E+02  0.19201815209E+03  0.23592520430E+03  0.12509000000E+03 0.  0.
         25    1    3    3    0    0  0.11591269705E+03  0.20350299547E+02  0.27435636340E+03  0.32368010484E+03  0.12509000000E+03 0.  0.
         25    1    4    4    0    0 -0.67984468986E+02 -0.49421043433E+02  0.20514076895E+03  0.25454777693E+03  0.12509000000E+03 0.  0.
<mgrwt>
<rscale>  2 0.46033952E+03</rscale>
<asrwt>0</asrwt>
<pdfrwt beam="1">  1       21 0.10924032E+00 0.46033952E+03</pdfrwt>
<pdfrwt beam="2">  1       21 0.10488074E-01 0.46033952E+03</pdfrwt>
<totfact> 0.45165511E+04</totfact>
</mgrwt>
</event>
<event>
 7    0  0.4737014E-002  0.4529695E+03  0.7546771E-02  0.1026840E+00
         21   -1    0    0  502  501  0.00000000000E+00  0.00000000000E+00  0.11028509116E+03  0.11028509116E+03  0.00000000000E+00 0.  1.
         21   -1    0    0  501  502 -0.00000000000E+00 -0.00000000000E+00 -0.46511580537E+03  0.46511580537E+03  0.00000000000E+00 0.  1.
      99926    2    1    2    0    0  0.00000000000E+00  0.14210854715E-13 -0.35483071422E+03  0.57540089653E+03  0.45296948680E+03 0.  0.
      99925    2    3    3    0    0  0.18784221171E+02 -0.76242372350E+02 -0.32367519625E+03  0.42445746107E+03  0.26312118365E+03 0.  0.
         25    1    4    4    0    0 -0.88692113541E+00 -0.35974953988E+02 -0.22120569037E+03  0.25666018292E+03  0.12509000000E+03 0.  0.
         25    1    4    4    0    0  0.19671142307E+02 -0.40267418362E+02 -0.10246950588E+03  0.16779727815E+03  0.12509000000E+03 0.  0.
         25    1    3    3    0    0 -0.18784221171E+02  0.76242372350E+02 -0.31155517967E+02  0.15094343545E+03  0.12509000000E+03 0.  0.
<mgrwt>
<rscale>  2 0.45296949E+03</rscale>
<asrwt>0</asrwt>
<pdfrwt beam="1">  1       21 0.16218395E-01 0.45296949E+03</pdfrwt>
<pdfrwt beam="2">  1       21 0.68399385E-01 0.45296949E+03</pdfrwt>
<totfact> 0.61195101E+04</totfact>
</mgrwt>
</event>
<event>
 7    0  0.4737014E-002  0.4596278E+03  0.7546771E-02  0.1024889E+00
         21   -1    0    0  502  501  0.00000000000E+00  0.00000000000E+00  0.10787169091E+04  0.10787169091E+04  0.00000000000E+00 0.  1.
         21   -1    0    0  501  502 -0.00000000000E+00 -0.00000000000E+00 -0.48960409741E+02  0.48960409741E+02  0.00000000000E+00 0.  1.
      99926    2    1    2    0    0  0.00000000000E+00  0.71054273576E-14  0.10297564993E+04  0.11276773188E+04  0.45962777054E+03 0.  0.
      99925    2    3    3    0    0 -0.11169186746E+03  0.36596313798E+02  0.65028532949E+03  0.71119173649E+03  0.26288459990E+03 0.  0.
         25    1    4    4    0    0 -0.17150589300E+02  0.18766967257E+01  0.25580492439E+03  0.28527413508E+03  0.12509000000E+03 0.  0.
         25    1    4    4    0    0 -0.94541278157E+02  0.34719617073E+02  0.39448040510E+03  0.42591760141E+03  0.12509000000E+03 0.  0.
         25    1    3    3    0    0  0.11169186746E+03 -0.36596313798E+02  0.37947116984E+03  0.41648558232E+03  0.12509000000E+03 0.  0.
<mgrwt>
<rscale>  2 0.45962777E+03</rscale>
<asrwt>0</asrwt>
<pdfrwt beam="1">  1       21 0.15863483E+00 0.45962777E+03</pdfrwt>
<pdfrwt beam="2">  1       21 0.72000609E-02 0.45962777E+03</pdfrwt>
<totfact> 0.33318169E+04</totfact>
</mgrwt>
</event>
<event>
 7    0  0.4737014E-002  0.4652456E+03  0.7546771E-02  0.1023271E+00
         21   -1    0    0  502  501  0.00000000000E+00  0.00000000000E+00  0.45835582101E+03  0.45835582101E+03  0.00000000000E+00 0. -1.
         21   -1    0    0  501  502 -0.00000000000E+00 -0.00000000000E+00 -0.11805974031E+03  0.11805974031E+03  0.00000000000E+00 0. -1.
      99926    2    1    2    0    0  0.00000000000E+00  0.44408920985E-15  0.34029608071E+03  0.57641556132E+03  0.46524560910E+03 0.  0.
      99925    2    3    3    0    0  0.95438201512E+02 -0.28294901013E+01  0.30720201903E+03  0.41560765934E+03  0.26313530679E+03 0.  0.
         25    1    4    4    0    0  0.85773947162E+02 -0.21093321426E+02  0.16926756931E+03  0.22825668958E+03  0.12509000000E+03 0.  0.
         25    1    3    3    0    0 -0.95438201512E+02  0.28294901013E+01  0.33094061675E+02  0.16080790198E+03  0.12509000000E+03 0.  0.
         25    1    4    4    0    0  0.96642543497E+01  0.18263831325E+02  0.13793444973E+03  0.18735096976E+03  0.12509000000E+03 0.  0.
<mgrwt>
<rscale>  2 0.46524561E+03</rscale>
<asrwt>0</asrwt>
<pdfrwt beam="1">  1       21 0.67405267E-01 0.46524561E+03</pdfrwt>
<pdfrwt beam="2">  1       21 0.17361727E-01 0.46524561E+03</pdfrwt>
<totfact> 0.55517920E+04</totfact>
</mgrwt>
</event>
<event>
 7    0  0.4737014E-002  0.4499145E+03  0.7546771E-02  0.1027748E+00
         21   -1    0    0  502  501  0.00000000000E+00  0.00000000000E+00  0.22106145531E+04  0.22106145531E+04  0.00000000000E+00 0.  1.
         21   -1    0    0  501  502 -0.00000000000E+00 -0.00000000000E+00 -0.22892166239E+02  0.22892166239E+02  0.00000000000E+00 0.  1.
      99926    2    1    2    0    0  0.00000000000E+00  0.00000000000E+00  0.21877223869E+04  0.22335067193E+04  0.44991446227E+03 0.  0.
      99925    2    3    3    0    0  0.52295871529E+02  0.86737370250E+02  0.15734443132E+04  0.15984923184E+04  0.26304458846E+03 0.  0.
         25    1    4    4    0    0 -0.26681274218E+01  0.35584022773E+02  0.90585753939E+03  0.91514956775E+03  0.12509000000E+03 0.  0.
         25    1    4    4    0    0  0.54963998951E+02  0.51153347477E+02  0.66758677383E+03  0.68334275062E+03  0.12509000000E+03 0.  0.
         25    1    3    3    0    0 -0.52295871529E+02 -0.86737370250E+02  0.61427807365E+03  0.63501440097E+03  0.12509000000E+03 0.  0.
<mgrwt>
<rscale>  2 0.44991446E+03</rscale>
<asrwt>0</asrwt>
<pdfrwt beam="1">  1       21 0.32509023E+00 0.44991446E+03</pdfrwt>
<pdfrwt beam="2">  1       21 0.33664966E-02 0.44991446E+03</pdfrwt>
<totfact> 0.10673780E+04</totfact>
</mgrwt>
</event>
<event>
 7    0  0.4737014E-002  0.4633381E+03  0.7546771E-02  0.1023817E+00
         21   -1    0    0  502  501  0.00000000000E+00  0.00000000000E+00  0.79324998676E+02  0.79324998676E+02  0.00000000000E+00 0.  1.
         21   -1    0    0  501  502 -0.00000000000E+00 -0.00000000000E+00 -0.67659074125E+03  0.67659074125E+03  0.00000000000E+00 0.  1.
      99926    2    1    2    0    0  0.14210854715E-13 -0.35527136788E-14 -0.59726574257E+03  0.75591573993E+03  0.46333814716E+03 0.  0.
      99925    2    3    3    0    0  0.10036819005E+03 -0.18886693066E+02 -0.47848792782E+03  0.55545088484E+03  0.26295343247E+03 0.  0.
         25    1    4    4    0    0  0.69253451289E+02 -0.36816344851E+02 -0.20563116885E+03  0.25314653754E+03  0.12509000000E+03 0.  0.
         25    1    4    4    0    0  0.31114738760E+02  0.17929651785E+02 -0.27285675897E+03  0.30230434730E+03  0.12509000000E+03 0.  0.
         25    1    3    3    0    0 -0.10036819005E+03  0.18886693066E+02 -0.11877781475E+03  0.20046485509E+03  0.12509000000E+03 0.  0.
<mgrwt>
<rscale>  2 0.46333815E+03</rscale>
<asrwt>0</asrwt>
<pdfrwt beam="1">  1       21 0.11665442E-01 0.46333815E+03</pdfrwt>
<pdfrwt beam="2">  1       21 0.99498629E-01 0.46333815E+03</pdfrwt>
<totfact> 0.46825582E+04</totfact>
</mgrwt>
</event>
<event>
 7    0  0.4737014E-002  0.4565833E+03  0.7546771E-02  0.1025777E+00
         21   -1    0    0  502  501  0.00000000000E+00  0.00000000000E+00  0.17389063625E+03  0.17389063625E+03  0.00000000000E+00 0. -1.
         21   -1    0    0  501  502 -0.00000000000E+00 -0.00000000000E+00 -0.29971176136E+03  0.29971176136E+03  0.00000000000E+00 0. -1.
      99926    2    1    2    0    0  0.00000000000E+00 -0.35527136788E-14 -0.12582112511E+03  0.47360239762E+03  0.45658326240E+03 0.  0.
      99925    2    3    3    0    0 -0.36749558581E+02 -0.25583246557E+02  0.30379460002E+02  0.26853859425E+03  0.26303047818E+03 0.  0.
         25    1    3    3    0    0  0.36749558581E+02  0.25583246557E+02 -0.15620058511E+03  0.20506380336E+03  0.12509000000E+03 0.  0.
         25    1    4    4    0    0 -0.29834089698E+02 -0.45754098692E+02  0.37159285564E+02  0.14146317916E+03  0.12509000000E+03 0.  0.
         25    1    4    4    0    0 -0.69154688830E+01  0.20170852134E+02 -0.67798255616E+01  0.12707541509E+03  0.12509000000E+03 0.  0.
<mgrwt>
<rscale>  2 0.45658326E+03</rscale>
<asrwt>0</asrwt>
<pdfrwt beam="1">  1       21 0.25572152E-01 0.45658326E+03</pdfrwt>
<pdfrwt beam="2">  1       21 0.44075259E-01 0.45658326E+03</pdfrwt>
<totfact> 0.66331639E+04</totfact>
</mgrwt>
</event>
<event>
 7    0  0.4737014E-002  0.4572869E+03  0.7546771E-02  0.1025571E+00
         21   -1    0    0  502  501  0.00000000000E+00  0.00000000000E+00  0.28247779303E+03  0.28247779303E+03  0.00000000000E+00 0.  1.
         21   -1    0    0  501  502 -0.00000000000E+00 -0.00000000000E+00 -0.18506882735E+03  0.18506882735E+03  0.00000000000E+00 0.  1.
      99926    2    1    2    0    0  0.00000000000E+00 -0.35527136788E-14  0.97408965671E+02  0.46754662038E+03  0.45728692922E+03 0.  0.
      99925    2    3    3    0    0 -0.10266172264E+03 -0.22555445499E+02  0.10959853211E+03  0.30370440651E+03  0.26301397468E+03 0.  0.
         25    1    3    3    0    0  0.10266172264E+03  0.22555445499E+02 -0.12189566442E+02  0.16384221387E+03  0.12509000000E+03 0.  0.
         25    1    4    4    0    0 -0.34589663798E+02  0.24555943204E+02  0.37705715862E+02  0.13736327128E+03  0.12509000000E+03 0.  0.
         25    1    4    4    0    0 -0.68072058839E+02 -0.47111388702E+02  0.71892816251E+02  0.16634113523E+03  0.12509000000E+03 0.  0.
<mgrwt>
<rscale>  2 0.45728693E+03</rscale>
<asrwt>0</asrwt>
<pdfrwt beam="1">  1       21 0.41540852E-01 0.45728693E+03</pdfrwt>
<pdfrwt beam="2">  1       21 0.27216004E-01 0.45728693E+03</pdfrwt>
<totfact> 0.66406275E+04</totfact>
</mgrwt>
</event>
<event>
 7    0  0.4737014E-002  0.4409615E+03  0.7546771E-02  0.1030452E+00
         21   -1    0    0  502  501  0.00000000000E+00  0.00000000000E+00  0.12748365972E+03  0.12748365972E+03  0.00000000000E+00 0. -1.
         21   -1    0    0  501  502 -0.00000000000E+00 -0.00000000000E+00 -0.38131761472E+03  0.38131761472E+03  0.00000000000E+00 0. -1.
      99926    2    1    2    0    0  0.00000000000E+00  0.00000000000E+00 -0.25383395500E+03  0.50880127444E+03  0.44096151778E+03 0.  0.
      99925    2    3    3    0    0 -0.92604478791E+02  0.26300484361E+02 -0.13278151221E+03  0.30988293196E+03  0.26292431718E+03 0.  0.
         25    1    4    4    0    0 -0.51488524117E+02  0.47322219674E+02 -0.44875344319E+02  0.15017245160E+03  0.12509000000E+03 0.  0.
         25    1    3    3    0    0  0.92604478791E+02 -0.26300484361E+02 -0.12105244279E+03  0.19891834248E+03  0.12509000000E+03 0.  0.
         25    1    4    4    0    0 -0.41115954674E+02 -0.21021735313E+02 -0.87906167892E+02  0.15971048036E+03  0.12509000000E+03 0.  0.
<mgrwt>
<rscale>  2 0.44096152E+03</rscale>
<asrwt>0</asrwt>
<pdfrwt beam="1">  1       21 0.18747597E-01 0.44096152E+03</pdfrwt>
<pdfrwt beam="2">  1       21 0.56076120E-01 0.44096152E+03</pdfrwt>
<totfact> 0.72390232E+04</totfact>
</mgrwt>
</event>
<event>
 7    0  0.4737014E-002  0.4548013E+03  0.7546771E-02  0.1026300E+00
         21   -1    0    0  502  501  0.00000000000E+00  0.00000000000E+00  0.15615431044E+04  0.15615431044E+04  0.00000000000E+00 0. -1.
         21   -1    0    0  501  502 -0.00000000000E+00 -0.00000000000E+00 -0.33115361731E+02  0.33115361731E+02  0.00000000000E+00 0. -1.
      99926    2    1    2    0    0  0.00000000000E+00  0.00000000000E+00  0.15284277427E+04  0.15946584661E+04  0.45480134019E+03 0.  0.
      99925    2    3    3    0    0 -0.78499466706E+02 -0.52713838536E+02  0.74525625576E+03  0.79594324713E+03  0.26301682620E+03 0.  0.
         25    1    3    3    0    0  0.78499466706E+02  0.52713838536E+02  0.78317148692E+03  0.79871521900E+03  0.12509000000E+03 0.  0.
         25    1    4    4    0    0 -0.28121765956E+02 -0.56586807287E+02  0.45017160701E+03  0.47148158431E+03  0.12509000000E+03 0.  0.
         25    1    4    4    0    0 -0.50377700750E+02  0.38729687504E+01  0.29508464874E+03  0.32446166283E+03  0.12509000000E+03 0.  0.
<mgrwt>
<rscale>  2 0.45480134E+03</rscale>
<asrwt>0</asrwt>
<pdfrwt beam="1">  1       21 0.22963864E+00 0.45480134E+03</pdfrwt>
<pdfrwt beam="2">  1       21 0.48699072E-02 0.45480134E+03</pdfrwt>
<totfact> 0.21584036E+04</totfact>
</mgrwt>
</event>
<event>
 7    0  0.4737014E-002  0.4522670E+03  0.7546771E-02  0.1027048E+00
         21   -1    0    0  502  501  0.00000000000E+00  0.00000000000E+00  0.17409757567E+03  0.17409757567E+03  0.00000000000E+00 0.  1.
         21   -1    0    0  501  502 -0.00000000000E+00 -0.00000000000E+00 -0.29372238657E+03  0.29372238657E+03  0.00000000000E+00 0.  1.
      99926    2    1    2    0    0  0.00000000000E+00  0.00000000000E+00 -0.11962481090E+03  0.46781996224E+03  0.45226698054E+03 0.  0.
      99925    2    3    3    0    0  0.96173074569E+02 -0.83332136678E+01 -0.13225042454E+03  0.30930934133E+03  0.26241835134E+03 0.  0.
         25    1    4    4    0    0  0.18639983229E+02  0.23637904433E+02 -0.53262537048E+02  0.13925015423E+03  0.12509000000E+03 0.  0.
         25    1    4    4    0    0  0.77533091340E+02 -0.31971118100E+02 -0.78987887491E+02  0.17005918710E+03  0.12509000000E+03 0.  0.
         25    1    3    3    0    0 -0.96173074569E+02  0.83332136678E+01  0.12625613639E+02  0.15851062091E+03  0.12509000000E+03 0.  0.
<mgrwt>
<rscale>  2 0.45226698E+03</rscale>
<asrwt>0</asrwt>
<pdfrwt beam="1">  1       21 0.25602585E-01 0.45226698E+03</pdfrwt>
<pdfrwt beam="2">  1       21 0.43194468E-01 0.45226698E+03</pdfrwt>
<totfact> 0.69083900E+04</totfact>
</mgrwt>
</event>
<event>
 7    0  0.4737014E-002  0.4545312E+03  0.7546771E-02  0.1026379E+00
         21   -1    0    0  502  501  0.00000000000E+00  0.00000000000E+00  0.10832802738E+03  0.10832802738E+03  0.00000000000E+00 0.  1.
         21   -1    0    0  501  502 -0.00000000000E+00 -0.00000000000E+00 -0.47678947943E+03  0.47678947943E+03  0.00000000000E+00 0.  1.
      99926    2    1    2    0    0  0.00000000000E+00  0.00000000000E+00 -0.36846145204E+03  0.58511750681E+03  0.45453124770E+03 0.  0.
      99925    2    3    3    0    0 -0.50570957970E+02  0.90612060606E+02 -0.28855391663E+03  0.40400790013E+03  0.26304192298E+03 0.  0.
         25    1    4    4    0    0 -0.11149812421E+02  0.66079532832E+02 -0.19447601081E+03  0.24074727383E+03  0.12509000000E+03 0.  0.
         25    1    4    4    0    0 -0.39421145548E+02  0.24532527775E+02 -0.94077905815E+02  0.16326062629E+03  0.12509000000E+03 0.  0.
         25    1    3    3    0    0  0.50570957970E+02 -0.90612060606E+02 -0.79907535419E+02  0.18110960669E+03  0.12509000000E+03 0.  0.
<mgrwt>
<rscale>  2 0.45453125E+03</rscale>
<asrwt>0</asrwt>
<pdfrwt beam="1">  1       21 0.15930593E-01 0.45453125E+03</pdfrwt>
<pdfrwt beam="2">  1       21 0.70116098E-01 0.45453125E+03</pdfrwt>
<totfact> 0.59825164E+04</totfact>
</mgrwt>
</event>
<event>
 7    0  0.4737014E-002  0.4503899E+03  0.7546771E-02  0.1027606E+00
         21   -1    0    0  502  501  0.00000000000E+00  0.00000000000E+00  0.86139343830E+03  0.86139343830E+03  0.00000000000E+00 0. -1.
         21   -1    0    0  501  502 -0.00000000000E+00 -0.00000000000E+00 -0.58872949659E+02  0.58872949659E+02  0.00000000000E+00 0. -1.
      99926    2    1    2    0    0  0.00000000000E+00  0.00000000000E+00  0.80252048864E+03  0.92026638796E+03  0.45038993119E+03 0.  0.
      99925    2    3    3    0    0 -0.41031892705E+02 -0.64446651703E+02  0.34873687758E+03  0.44339736936E+03  0.26295784878E+03 0.  0.
         25    1    3    3    0    0  0.41031892705E+02  0.64446651703E+02  0.45378361106E+03  0.47686901860E+03  0.12509000000E+03 0.  0.
         25    1    4    4    0    0 -0.43273656618E+02 -0.62785775324E+02  0.21590124699E+03  0.26091285804E+03  0.12509000000E+03 0.  0.
         25    1    4    4    0    0  0.22417639128E+01 -0.16608763789E+01  0.13283563059E+03  0.18248451132E+03  0.12509000000E+03 0.  0.
<mgrwt>
<rscale>  2 0.45038993E+03</rscale>
<asrwt>0</asrwt>
<pdfrwt beam="1">  1       21 0.12667550E+00 0.45038993E+03</pdfrwt>
<pdfrwt beam="2">  1       21 0.86577873E-02 0.45038993E+03</pdfrwt>
<totfact> 0.43931907E+04</totfact>
</mgrwt>
</event>
<event>
 7    0  0.4737014E-002  0.4415100E+03  0.7546771E-02  0.1030285E+00
         21   -1    0    0  502  501  0.00000000000E+00  0.00000000000E+00  0.61765067269E+02  0.61765067269E+02  0.00000000000E+00 0.  1.
         21   -1    0    0  501  502 -0.00000000000E+00 -0.00000000000E+00 -0.78900199827E+03  0.78900199827E+03  0.00000000000E+00 0.  1.
      99926    2    1    2    0    0  0.00000000000E+00 -0.35527136788E-14 -0.72723693100E+03  0.85076706554E+03  0.44150996137E+03 0.  0.
      99925    2    3    3    0    0 -0.29673800643E+02  0.17816812220E+02 -0.64424973615E+03  0.69671397127E+03  0.26297274003E+03 0.  0.
         25    1    4    4    0    0 -0.27098835524E+02  0.47314035594E+02 -0.34644790308E+03  0.37235281992E+03  0.12509000000E+03 0.  0.
         25    1    4    4    0    0 -0.25749651192E+01 -0.29497223374E+02 -0.29780183306E+03  0.32436115135E+03  0.12509000000E+03 0.  0.
         25    1    3    3    0    0  0.29673800643E+02 -0.17816812220E+02 -0.82987194852E+02  0.15405309426E+03  0.12509000000E+03 0.  0.
<mgrwt>
<rscale>  2 0.44150996E+03</rscale>
<asrwt>0</asrwt>
<pdfrwt beam="1">  1       21 0.90830992E-02 0.44150996E+03</pdfrwt>
<pdfrwt beam="2">  1       21 0.11602969E+00 0.44150996E+03</pdfrwt>
<totfact> 0.50545166E+04</totfact>
</mgrwt>
</event>
<event>
 7    0  0.4737014E-002  0.4630774E+03  0.7546771E-02  0.1023892E+00
         21   -1    0    0  502  501  0.00000000000E+00  0.00000000000E+00  0.68185291077E+03  0.68185291077E+03  0.00000000000E+00 0.  1.
         21   -1    0    0  501  502 -0.00000000000E+00 -0.00000000000E+00 -0.78624250223E+02  0.78624250223E+02  0.00000000000E+00 0.  1.
      99926    2    1    2    0    0  0.00000000000E+00 -0.14210854715E-13  0.60322866055E+03  0.76047716099E+03  0.46307741846E+03 0.  0.
      99925    2    3    3    0    0 -0.44152100218E+02 -0.11006257066E+03  0.41321446730E+03  0.50393071461E+03  0.26293876042E+03 0.  0.
         25    1    4    4    0    0 -0.49235457523E+02 -0.32576492329E+02  0.16472822423E+03  0.21510056738E+03  0.12509000000E+03 0.  0.
         25    1    4    4    0    0  0.50833573049E+01 -0.77486078328E+02  0.24848624307E+03  0.28883014723E+03  0.12509000000E+03 0.  0.
         25    1    3    3    0    0  0.44152100218E+02  0.11006257066E+03  0.19001419325E+03  0.25654644638E+03  0.12509000000E+03 0.  0.
<mgrwt>
<rscale>  2 0.46307742E+03</rscale>
<asrwt>0</asrwt>
<pdfrwt beam="1">  1       21 0.10027248E+00 0.46307742E+03</pdfrwt>
<pdfrwt beam="2">  1       21 0.11562390E-01 0.46307742E+03</pdfrwt>
<totfact> 0.46702525E+04</totfact>
</mgrwt>
</event>
<event>
 7    0  0.4737014E-002  0.4572033E+03  0.7546771E-02  0.1025595E+00
         21   -1    0    0  502  501  0.00000000000E+00  0.00000000000E+00  0.12067882777E+03  0.12067882777E+03  0.00000000000E+00 0.  1.
         21   -1    0    0  501  502 -0.00000000000E+00 -0.00000000000E+00 -0.43303970550E+03  0.43303970550E+03  0.00000000000E+00 0.  1.
      99926    2    1    2    0    0  0.71054273576E-14  0.00000000000E+00 -0.31236087773E+03  0.55371853327E+03  0.45720334223E+03 0.  0.
      99925    2    3    3    0    0 -0.60811691628E+02  0.77677902273E+02 -0.26811945388E+03  0.38838030410E+03  0.26309561137E+03 0.  0.
         25    1    4    4    0    0 -0.10025575100E+02  0.15423906670E+02 -0.84283002175E+02  0.15195243206E+03  0.12509000000E+03 0.  0.
         25    1    3    3    0    0  0.60811691628E+02 -0.77677902273E+02 -0.44241423855E+02  0.16533822917E+03  0.12509000000E+03 0.  0.
         25    1    4    4    0    0 -0.50786116528E+02  0.62253995604E+02 -0.18383645170E+03  0.23642787204E+03  0.12509000000E+03 0.  0.
<mgrwt>
<rscale>  2 0.45720334E+03</rscale>
<asrwt>0</asrwt>
<pdfrwt beam="1">  1       21 0.17746887E-01 0.45720334E+03</pdfrwt>
<pdfrwt beam="2">  1       21 0.63682309E-01 0.45720334E+03</pdfrwt>
<totfact> 0.60558925E+04</totfact>
</mgrwt>
</event>
<event>
 7    0  0.4737014E-002  0.4489292E+03  0.7546771E-02  0.1028042E+00
         21   -1    0    0  502  501  0.00000000000E+00  0.00000000000E+00  0.90808503399E+03  0.90808503399E+03  0.00000000000E+00 0.  1.
         21   -1    0    0  501  502 -0.00000000000E+00 -0.00000000000E+00 -0.55484173293E+02  0.55484173293E+02  0.00000000000E+00 0.  1.
      99926    2    1    2    0    0  0.00000000000E+00  0.17763568394E-14  0.85260086070E+03  0.96356920729E+03  0.44892915874E+03 0.  0.
      99925    2    3    3    0    0 -0.73346761391E+02 -0.13052136582E+02  0.70545188180E+03  0.75656573928E+03  0.26301949479E+03 0.  0.
         25    1    4    4    0    0 -0.12543618113E+02  0.10871709259E+02  0.41292026846E+03  0.43177099558E+03  0.12509000000E+03 0.  0.
         25    1    3    3    0    0  0.73346761391E+02  0.13052136582E+02  0.14714897890E+03  0.20700346801E+03  0.12509000000E+03 0.  0.
         25    1    4    4    0    0 -0.60803143277E+02 -0.23923845841E+02  0.29253161334E+03  0.32479474370E+03  0.12509000000E+03 0.  0.
<mgrwt>
<rscale>  2 0.44892916E+03</rscale>
<asrwt>0</asrwt>
<pdfrwt beam="1">  1       21 0.13354191E+00 0.44892916E+03</pdfrwt>
<pdfrwt beam="2">  1       21 0.81594378E-02 0.44892916E+03</pdfrwt>
<totfact> 0.42581699E+04</totfact>
</mgrwt>
</event>
<event>
 7    0  0.4737014E-002  0.4640592E+03  0.7546771E-02  0.1023610E+00
         21   -1    0    0  502  501  0.00000000000E+00  0.00000000000E+00  0.81168390999E+02  0.81168390999E+02  0.00000000000E+00 0.  1.
         21   -1    0    0  501  502 -0.00000000000E+00 -0.00000000000E+00 -0.66328435787E+03  0.66328435787E+03  0.00000000000E+00 0.  1.
      99926    2    1    2    0    0  0.44408920985E-15 -0.28421709430E-13 -0.58211596688E+03  0.74445274887E+03  0.46405915185E+03 0.  0.
      99925    2    3    3    0    0  0.28085188016E+01  0.12032227990E+03 -0.33749292924E+03  0.44449728974E+03  0.26304186832E+03 0.  0.
         25    1    3    3    0    0 -0.28085188016E+01 -0.12032227990E+03 -0.24462303764E+03  0.29995545913E+03  0.12509000000E+03 0.  0.
         25    1    4    4    0    0  0.28033253599E+02  0.89122402077E+02 -0.15862257714E+03  0.22256975522E+03  0.12509000000E+03 0.  0.
         25    1    4    4    0    0 -0.25224734797E+02  0.31199877821E+02 -0.17887035209E+03  0.22192753452E+03  0.12509000000E+03 0.  0.
<mgrwt>
<rscale>  2 0.46405915E+03</rscale>
<asrwt>0</asrwt>
<pdfrwt beam="1">  1       21 0.11936528E-01 0.46405915E+03</pdfrwt>
<pdfrwt beam="2">  1       21 0.97541820E-01 0.46405915E+03</pdfrwt>
<totfact> 0.47109561E+04</totfact>
</mgrwt>
</event>
<event>
 7    0  0.4737014E-002  0.4459340E+03  0.7546771E-02  0.1028942E+00
         21   -1    0    0  502  501  0.00000000000E+00  0.00000000000E+00  0.24919025821E+03  0.24919025821E+03  0.00000000000E+00 0.  1.
         21   -1    0    0  501  502 -0.00000000000E+00 -0.00000000000E+00 -0.19950330329E+03  0.19950330329E+03  0.00000000000E+00 0.  1.
      99926    2    1    2    0    0 -0.14210854715E-13  0.00000000000E+00  0.49686954923E+02  0.44869356151E+03  0.44593398463E+03 0.  0.
      99925    2    3    3    0    0  0.90501998604E+02  0.51197507121E+02  0.42246963897E+02  0.28586033992E+03  0.26290593659E+03 0.  0.
         25    1    4    4    0    0  0.21051245080E+02 -0.73472390982E+01  0.67179449420E+01  0.12723904953E+03  0.12509000000E+03 0.  0.
         25    1    4    4    0    0  0.69450753524E+02  0.58544746220E+02  0.35529018955E+02  0.15862129038E+03  0.12509000000E+03 0.  0.
         25    1    3    3    0    0 -0.90501998604E+02 -0.51197507121E+02  0.74399910260E+01  0.16283322159E+03  0.12509000000E+03 0.  0.
<mgrwt>
<rscale>  2 0.44593398E+03</rscale>
<asrwt>0</asrwt>
<pdfrwt beam="1">  1       21 0.36645626E-01 0.44593398E+03</pdfrwt>
<pdfrwt beam="2">  1       21 0.29338721E-01 0.44593398E+03</pdfrwt>
<totfact> 0.74236376E+04</totfact>
</mgrwt>
</event>
<event>
 7    0  0.4737014E-002  0.4556492E+03  0.7546771E-02  0.1026051E+00
         21   -1    0    0  502  501  0.00000000000E+00  0.00000000000E+00  0.26775175795E+03  0.26775175795E+03  0.00000000000E+00 0. -1.
         21   -1    0    0  501  502 -0.00000000000E+00 -0.00000000000E+00 -0.19385139556E+03  0.19385139556E+03  0.00000000000E+00 0. -1.
      99926    2    1    2    0    0 -0.14210854715E-13  0.35527136788E-14  0.73900362395E+02  0.46160315351E+03  0.45564921570E+03 0.  0.
      99925    2    3    3    0    0  0.70650206934E+02  0.17612028571E+02  0.13497380589E+03  0.30450729459E+03  0.26306867714E+03 0.  0.
         25    1    4    4    0    0 -0.32259088657E+00 -0.19268912655E+01  0.41233575703E+02  0.13172521718E+03  0.12509000000E+03 0.  0.
         25    1    4    4    0    0  0.70972797820E+02  0.19538919836E+02  0.93740230192E+02  0.17278207741E+03  0.12509000000E+03 0.  0.
         25    1    3    3    0    0 -0.70650206934E+02 -0.17612028571E+02 -0.61073443499E+02  0.15709585892E+03  0.12509000000E+03 0.  0.
<mgrwt>
<rscale>  2 0.45564922E+03</rscale>
<asrwt>0</asrwt>
<pdfrwt beam="1">  1       21 0.39375259E-01 0.45564922E+03</pdfrwt>
<pdfrwt beam="2">  1       21 0.28507558E-01 0.45564922E+03</pdfrwt>
<totfact> 0.67712601E+04</totfact>
</mgrwt>
</event>
<event>
 7    0  0.4737014E-002  0.4551773E+03  0.7546771E-02  0.1026189E+00
         21   -1    0    0  502  501  0.00000000000E+00  0.00000000000E+00  0.83845556238E+03  0.83845556238E+03  0.00000000000E+00 0.  1.
         21   -1    0    0  501  502 -0.00000000000E+00 -0.00000000000E+00 -0.61776180790E+02  0.61776180790E+02  0.00000000000E+00 0.  1.
      99926    2    1    2    0    0 -0.71054273576E-14  0.00000000000E+00  0.77667938159E+03  0.90023174317E+03  0.45517725078E+03 0.  0.
      99925    2    3    3    0    0 -0.34092945360E+02  0.42130192928E+02  0.68550746261E+03  0.73622836214E+03  0.26301033791E+03 0.  0.
         25    1    4    4    0    0  0.64135059775E+01  0.63160683335E+01  0.41177569836E+03  0.43045064716E+03  0.12509000000E+03 0.  0.
         25    1    4    4    0    0 -0.40506451337E+02  0.35814124595E+02  0.27373176424E+03  0.30577771498E+03  0.12509000000E+03 0.  0.
         25    1    3    3    0    0  0.34092945360E+02 -0.42130192928E+02  0.91171918983E+02  0.16400338103E+03  0.12509000000E+03 0.  0.
<mgrwt>
<rscale>  2 0.45517725E+03</rscale>
<asrwt>0</asrwt>
<pdfrwt beam="1">  1       21 0.12330228E+00 0.45517725E+03</pdfrwt>
<pdfrwt beam="2">  1       21 0.90847330E-02 0.45517725E+03</pdfrwt>
<totfact> 0.43163738E+04</totfact>
</mgrwt>
</event>
<event>
 7    0  0.4737014E-002  0.4557950E+03  0.7546771E-02  0.1026008E+00
         21   -1    0    0  502  501  0.00000000000E+00  0.00000000000E+00  0.38652821588E+03  0.38652821588E+03  0.00000000000E+00 0. -1.
         21   -1    0    0  501  502 -0.00000000000E+00 -0.00000000000E+00 -0.13436863291E+03  0.13436863291E+03  0.00000000000E+00 0. -1.
      99926    2    1    2    0    0  0.00000000000E+00  0.00000000000E+00  0.25215958298E+03  0.52089684879E+03  0.45579498877E+03 0.  0.
      99925    2    3    3    0    0  0.15135284222E+02  0.11253096952E+03  0.16977145667E+03  0.33294045122E+03  0.26293478399E+03 0.  0.
         25    1    3    3    0    0 -0.15135284222E+02 -0.11253096952E+03  0.82388126310E+02  0.18795639756E+03  0.12509000000E+03 0.  0.
         25    1    4    4    0    0  0.19185941228E+02  0.54527060307E+02  0.39849405387E+02  0.14344610087E+03  0.12509000000E+03 0.  0.
         25    1    4    4    0    0 -0.40506570061E+01  0.58003909209E+02  0.12992205128E+03  0.18949435035E+03  0.12509000000E+03 0.  0.
<mgrwt>
<rscale>  2 0.45579499E+03</rscale>
<asrwt>0</asrwt>
<pdfrwt beam="1">  1       21 0.56842384E-01 0.45579499E+03</pdfrwt>
<pdfrwt beam="2">  1       21 0.19760093E-01 0.45579499E+03</pdfrwt>
<totfact> 0.63425220E+04</totfact>
</mgrwt>
</event>
<event>
 7    0  0.4737014E-002  0.4542528E+03  0.7546771E-02  0.1026461E+00
         21   -1    0    0  502  501  0.00000000000E+00  0.00000000000E+00  0.46216496604E+02  0.46216496604E+02  0.00000000000E+00 0.  1.
         21   -1    0    0  501  502 -0.00000000000E+00 -0.00000000000E+00 -0.11161904417E+04  0.11161904417E+04  0.00000000000E+00 0.  1.
      99926    2    1    2    0    0  0.00000000000E+00 -0.71054273576E-14 -0.10699739451E+04  0.11624069383E+04  0.45425284482E+03 0.  0.
      99925    2    3    3    0    0  0.56185612966E+02  0.53240304809E+02 -0.46567287930E+03  0.54045948122E+03  0.26316129494E+03 0.  0.
         25    1    3    3    0    0 -0.56185612966E+02 -0.53240304809E+02 -0.60430106575E+03  0.62194745705E+03  0.12509000000E+03 0.  0.
         25    1    4    4    0    0  0.59382633909E+02  0.91877633195E+00 -0.24574109243E+03  0.28206973246E+03  0.12509000000E+03 0.  0.
         25    1    4    4    0    0 -0.31970209431E+01  0.52321528477E+02 -0.21993178687E+03  0.25838974876E+03  0.12509000000E+03 0.  0.
<mgrwt>
<rscale>  2 0.45425284E+03</rscale>
<asrwt>0</asrwt>
<pdfrwt beam="1">  1       21 0.67965432E-02 0.45425284E+03</pdfrwt>
<pdfrwt beam="2">  1       21 0.16414566E+00 0.45425284E+03</pdfrwt>
<totfact> 0.33565820E+04</totfact>
</mgrwt>
</event>
<event>
 7    0  0.4737014E-002  0.4477014E+03  0.7546771E-02  0.1028410E+00
         21   -1    0    0  502  501  0.00000000000E+00  0.00000000000E+00  0.41748567460E+03  0.41748567460E+03  0.00000000000E+00 0.  1.
         21   -1    0    0  501  502 -0.00000000000E+00 -0.00000000000E+00 -0.12002599061E+03  0.12002599061E+03  0.00000000000E+00 0.  1.
      99926    2    1    2    0    0  0.00000000000E+00 -0.71054273576E-14  0.29745968398E+03  0.53751166521E+03  0.44770138110E+03 0.  0.
      99925    2    3    3    0    0 -0.25380717825E+02 -0.59372840390E+02  0.87159578874E+02  0.28444456477E+03  0.26294981123E+03 0.  0.
         25    1    3    3    0    0  0.25380717825E+02  0.59372840390E+02  0.21030010511E+03  0.25306710043E+03  0.12509000000E+03 0.  0.
         25    1    4    4    0    0  0.29175702583E+01 -0.77838131433E+01  0.91137952320E+01  0.12569673555E+03  0.12509000000E+03 0.  0.
         25    1    4    4    0    0 -0.28298288084E+02 -0.51589027247E+02  0.78045783642E+02  0.15874782923E+03  0.12509000000E+03 0.  0.
<mgrwt>
<rscale>  2 0.44770138E+03</rscale>
<asrwt>0</asrwt>
<pdfrwt beam="1">  1       21 0.61394952E-01 0.44770138E+03</pdfrwt>
<pdfrwt beam="2">  1       21 0.17650881E-01 0.44770138E+03</pdfrwt>
<totfact> 0.66455705E+04</totfact>
</mgrwt>
</event>
<event>
 7    0  0.4737014E-002  0.4593587E+03  0.7546771E-02  0.1024967E+00
         21   -1    0    0  502  501  0.00000000000E+00  0.00000000000E+00  0.24926416266E+03  0.24926416266E+03  0.00000000000E+00 0. -1.
         21   -1    0    0  501  502 -0.00000000000E+00 -0.00000000000E+00 -0.21163337015E+03  0.21163337015E+03  0.00000000000E+00 0. -1.
      99926    2    1    2    0    0  0.00000000000E+00 -0.35527136788E-14  0.37630792514E+02  0.46089753281E+03  0.45935874783E+03 0.  0.
      99925    2    3    3    0    0 -0.47514791469E+02  0.24855318892E+02 -0.80851367451E+02  0.28045094067E+03  0.26313560044E+03 0.  0.
         25    1    4    4    0    0 -0.37635901504E+02 -0.21774080687E+01 -0.37189004376E+01  0.13070019322E+03  0.12509000000E+03 0.  0.
         25    1    3    3    0    0  0.47514791469E+02 -0.24855318892E+02  0.11848215997E+03  0.18044659214E+03  0.12509000000E+03 0.  0.
         25    1    4    4    0    0 -0.98788899649E+01  0.27032726961E+02 -0.77132467014E+02  0.14975074745E+03  0.12509000000E+03 0.  0.
<mgrwt>
<rscale>  2 0.45935875E+03</rscale>
<asrwt>0</asrwt>
<pdfrwt beam="1">  1       21 0.36656495E-01 0.45935875E+03</pdfrwt>
<pdfrwt beam="2">  1       21 0.31122554E-01 0.45935875E+03</pdfrwt>
<totfact> 0.65797715E+04</totfact>
</mgrwt>
</event>
<event>
 7    0  0.4737014E-002  0.4581342E+03  0.7546771E-02  0.1025324E+00
         21   -1    0    0  502  501  0.00000000000E+00  0.00000000000E+00  0.33192891238E+03  0.33192891238E+03  0.00000000000E+00 0. -1.
         21   -1    0    0  501  502 -0.00000000000E+00 -0.00000000000E+00 -0.15808124801E+03  0.15808124801E+03  0.00000000000E+00 0. -1.
      99926    2    1    2    0    0 -0.14210854715E-13  0.00000000000E+00  0.17384766437E+03  0.49001016039E+03  0.45813420182E+03 0.  0.
      99925    2    3    3    0    0  0.96241712332E+02  0.50854677904E+02  0.15212106025E+03  0.32277314629E+03  0.26304566436E+03 0.  0.
         25    1    4    4    0    0  0.63739414020E+01  0.26122353926E+02  0.80101107858E+02  0.15095264186E+03  0.12509000000E+03 0.  0.
         25    1    3    3    0    0 -0.96241712332E+02 -0.50854677904E+02  0.21726604121E+02  0.16723701410E+03  0.12509000000E+03 0.  0.
         25    1    4    4    0    0  0.89867770930E+02  0.24732323979E+02  0.72019952388E+02  0.17182050443E+03  0.12509000000E+03 0.  0.
<mgrwt>
<rscale>  2 0.45813420E+03</rscale>
<asrwt>0</asrwt>
<pdfrwt beam="1">  1       21 0.48813075E-01 0.45813420E+03</pdfrwt>
<pdfrwt beam="2">  1       21 0.23247242E-01 0.45813420E+03</pdfrwt>
<totfact> 0.64361964E+04</totfact>
</mgrwt>
</event>
<event>
 7    0  0.4737014E-002  0.4539780E+03  0.7546771E-02  0.1026542E+00
         21   -1    0    0  502  501  0.00000000000E+00  0.00000000000E+00  0.27837284399E+03  0.27837284399E+03  0.00000000000E+00 0.  1.
         21   -1    0    0  501  502 -0.00000000000E+00 -0.00000000000E+00 -0.18508988491E+03  0.18508988491E+03  0.00000000000E+00 0.  1.
      99926    2    1    2    0    0 -0.88817841970E-15  0.00000000000E+00  0.93282959081E+02  0.46346272889E+03  0.45397796270E+03 0.  0.
      99925    2    3    3    0    0 -0.57976456070E+01  0.10481233231E+03  0.99247442357E+02  0.30005428095E+03  0.26298912336E+03 0.  0.
         25    1    4    4    0    0 -0.32999086216E+02  0.77212383634E+02  0.37414545703E+02  0.15523546054E+03  0.12509000000E+03 0.  0.
         25    1    3    3    0    0  0.57976456070E+01 -0.10481233231E+03 -0.59644832753E+01  0.16340844794E+03  0.12509000000E+03 0.  0.
         25    1    4    4    0    0  0.27201440609E+02  0.27599948674E+02  0.61832896654E+02  0.14481882042E+03  0.12509000000E+03 0.  0.
<mgrwt>
<rscale>  2 0.45397796E+03</rscale>
<asrwt>0</asrwt>
<pdfrwt beam="1">  1       21 0.40937183E-01 0.45397796E+03</pdfrwt>
<pdfrwt beam="2">  1       21 0.27219101E-01 0.45397796E+03</pdfrwt>
<totfact> 0.68479200E+04</totfact>
</mgrwt>
</event>
<event>
 7    0  0.4737014E-002  0.4224093E+03  0.7546771E-02  0.1036285E+00
         21   -1    0    0  502  501  0.00000000000E+00  0.00000000000E+00  0.32117460959E+03  0.32117460959E+03  0.00000000000E+00 0. -1.
         21   -1    0    0  501  502 -0.00000000000E+00 -0.00000000000E+00 -0.13888835662E+03  0.13888835662E+03  0.00000000000E+00 0. -1.
      99926    2    1    2    0    0  0.35527136788E-14  0.00000000000E+00  0.18228625297E+03  0.46006296621E+03  0.42240934513E+03 0.  0.
      99925    2    3    3    0    0  0.17286461771E+02  0.67420599921E+02  0.77889606668E+02  0.28288924662E+03  0.26289765303E+03 0.  0.
         25    1    4    4    0    0  0.38566109205E+02  0.18154104299E+02  0.15178104423E+02  0.13302179985E+03  0.12509000000E+03 0.  0.
         25    1    3    3    0    0 -0.17286461771E+02 -0.67420599921E+02  0.10439664630E+03  0.17717371959E+03  0.12509000000E+03 0.  0.
         25    1    4    4    0    0 -0.21279647435E+02  0.49266495622E+02  0.62711502245E+02  0.14986744676E+03  0.12509000000E+03 0.  0.
<mgrwt>
<rscale>  2 0.42240935E+03</rscale>
<asrwt>0</asrwt>
<pdfrwt beam="1">  1       21 0.47231560E-01 0.42240935E+03</pdfrwt>
<pdfrwt beam="2">  1       21 0.20424758E-01 0.42240935E+03</pdfrwt>
<totfact> 0.89090515E+04</totfact>
</mgrwt>
</event>
<event>
 7    0  0.4737014E-002  0.4556343E+03  0.7546771E-02  0.1026055E+00
         21   -1    0    0  502  501  0.00000000000E+00  0.00000000000E+00  0.17405719331E+04  0.17405719331E+04  0.00000000000E+00 0. -1.
         21   -1    0    0  501  502 -0.00000000000E+00 -0.00000000000E+00 -0.29818165911E+02  0.29818165911E+02  0.00000000000E+00 0. -1.
      99926    2    1    2    0    0  0.00000000000E+00  0.88817841970E-15  0.17107537672E+04  0.17703900990E+04  0.45563433884E+03 0.  0.
      99925    2    3    3    0    0  0.25871310669E+02 -0.35242540051E+01  0.64558501648E+03  0.69758362966E+03  0.26298509804E+03 0.  0.
         25    1    4    4    0    0  0.24989328308E+02 -0.37642048874E+02  0.36535577440E+03  0.38881067419E+03  0.12509000000E+03 0.  0.
         25    1    3    3    0    0 -0.25871310669E+02  0.35242540051E+01  0.10651687507E+04  0.10728064694E+04  0.12509000000E+03 0.  0.
         25    1    4    4    0    0  0.88198236128E+00  0.34117794869E+02  0.28022924208E+03  0.30877295548E+03  0.12509000000E+03 0.  0.
<mgrwt>
<rscale>  2 0.45563434E+03</rscale>
<asrwt>0</asrwt>
<pdfrwt beam="1">  1       21 0.25596639E+00 0.45563434E+03</pdfrwt>
<pdfrwt beam="2">  1       21 0.43850256E-02 0.45563434E+03</pdfrwt>
<totfact> 0.17747838E+04</totfact>
</mgrwt>
</event>
<event>
 7    0  0.4737014E-002  0.4644674E+03  0.7546771E-02  0.1023493E+00
         21   -1    0    0  502  501  0.00000000000E+00  0.00000000000E+00  0.91199754614E+02  0.91199754614E+02  0.00000000000E+00 0.  1.
         21   -1    0    0  501  502 -0.00000000000E+00 -0.00000000000E+00 -0.59136656227E+03  0.59136656227E+03  0.00000000000E+00 0.  1.
      99926    2    1    2    0    0  0.00000000000E+00  0.17763568394E-14 -0.50016680765E+03  0.68256631688E+03  0.46446737395E+03 0.  0.
      99925    2    3    3    0    0 -0.67503490646E+02  0.13895014209E+02 -0.16340119199E+03  0.31676803823E+03  0.26247332785E+03 0.  0.
         25    1    4    4    0    0 -0.22064708785E+02 -0.27230959027E+02 -0.98859685072E+02  0.16324558780E+03  0.12509000000E+03 0.  0.
         25    1    4    4    0    0 -0.45438781860E+02  0.41125973236E+02 -0.64541506918E+02  0.15352245043E+03  0.12509000000E+03 0.  0.
         25    1    3    3    0    0  0.67503490646E+02 -0.13895014209E+02 -0.33676561566E+03  0.36579827865E+03  0.12509000000E+03 0.  0.
<mgrwt>
<rscale>  2 0.46446737E+03</rscale>
<asrwt>0</asrwt>
<pdfrwt beam="1">  1       21 0.13411729E-01 0.46446737E+03</pdfrwt>
<pdfrwt beam="2">  1       21 0.86965670E-01 0.46446737E+03</pdfrwt>
<totfact> 0.50022881E+04</totfact>
</mgrwt>
</event>
<event>
 7    0  0.4737014E-002  0.4495054E+03  0.7546771E-02  0.1027870E+00
         21   -1    0    0  502  501  0.00000000000E+00  0.00000000000E+00  0.81210335231E+02  0.81210335231E+02  0.00000000000E+00 0. -1.
         21   -1    0    0  501  502 -0.00000000000E+00 -0.00000000000E+00 -0.62201174837E+03  0.62201174837E+03  0.00000000000E+00 0. -1.
      99926    2    1    2    0    0 -0.71054273576E-14 -0.28421709430E-13 -0.54080141314E+03  0.70322208360E+03  0.44950542868E+03 0.  0.
      99925    2    3    3    0    0 -0.34674625528E+02 -0.10241703553E+03 -0.34643515902E+03  0.44804111319E+03  0.26273930212E+03 0.  0.
         25    1    3    3    0    0  0.34674625528E+02  0.10241703553E+03 -0.19436625412E+03  0.25518097042E+03  0.12509000000E+03 0.  0.
         25    1    4    4    0    0 -0.28962070755E+02 -0.90470304584E+02 -0.21314439828E+03  0.26476729437E+03  0.12509000000E+03 0.  0.
         25    1    4    4    0    0 -0.57125547731E+01 -0.11946730943E+02 -0.13329076074E+03  0.18327381881E+03  0.12509000000E+03 0.  0.
<mgrwt>
<rscale>  2 0.44950543E+03</rscale>
<asrwt>0</asrwt>
<pdfrwt beam="1">  1       21 0.11942697E-01 0.44950543E+03</pdfrwt>
<pdfrwt beam="2">  1       21 0.91472314E-01 0.44950543E+03</pdfrwt>
<totfact> 0.55071116E+04</totfact>
</mgrwt>
</event>
<event>
 7    0  0.4737014E-002  0.4551223E+03  0.7546771E-02  0.1026205E+00
         21   -1    0    0  502  501  0.00000000000E+00  0.00000000000E+00  0.46627166799E+02  0.46627166799E+02  0.00000000000E+00 0.  1.
         21   -1    0    0  501  502 -0.00000000000E+00 -0.00000000000E+00 -0.11105986328E+04  0.11105986328E+04  0.00000000000E+00 0.  1.
      99926    2    1    2    0    0  0.00000000000E+00  0.00000000000E+00 -0.10639714660E+04  0.11572257996E+04  0.45512225918E+03 0.  0.
      99925    2    3    3    0    0  0.41400007371E+02  0.16087252663E+02 -0.93450275671E+03  0.97180084149E+03  0.26292339742E+03 0.  0.
         25    1    4    4    0    0  0.58066475977E+02  0.34689305976E+01 -0.42922028348E+03  0.45084510529E+03  0.12509000000E+03 0.  0.
         25    1    3    3    0    0 -0.41400007371E+02 -0.16087252663E+02 -0.12946870933E+03  0.18542495815E+03  0.12509000000E+03 0.  0.
         25    1    4    4    0    0 -0.16666468606E+02  0.12618322065E+02 -0.50528247323E+03  0.52095573620E+03  0.12509000000E+03 0.  0.
<mgrwt>
<rscale>  2 0.45512226E+03</rscale>
<asrwt>0</asrwt>
<pdfrwt beam="1">  1       21 0.68569353E-02 0.45512226E+03</pdfrwt>
<pdfrwt beam="2">  1       21 0.16332335E+00 0.45512226E+03</pdfrwt>
<totfact> 0.33510081E+04</totfact>
</mgrwt>
</event>
<event>
 7    0  0.4737014E-002  0.4568207E+03  0.7546771E-02  0.1025707E+00
         21   -1    0    0  502  501  0.00000000000E+00  0.00000000000E+00  0.20196652538E+03  0.20196652538E+03  0.00000000000E+00 0. -1.
         21   -1    0    0  501  502 -0.00000000000E+00 -0.00000000000E+00 -0.25831652355E+03  0.25831652355E+03  0.00000000000E+00 0. -1.
      99926    2    1    2    0    0  0.14210854715E-13  0.00000000000E+00 -0.56349998176E+02  0.46028304893E+03  0.45682071192E+03 0.  0.
      99925    2    3    3    0    0  0.74930365283E+02  0.86772769170E+02 -0.41561616347E+02  0.28995901232E+03  0.26306802877E+03 0.  0.
         25    1    3    3    0    0 -0.74930365283E+02 -0.86772769170E+02 -0.14788381829E+02  0.17032403661E+03  0.12509000000E+03 0.  0.
         25    1    4    4    0    0  0.79574285720E+02  0.49027394479E+02 -0.25816584817E+02  0.15827114869E+03  0.12509000000E+03 0.  0.
         25    1    4    4    0    0 -0.46439204369E+01  0.37745374691E+02 -0.15745031530E+02  0.13168786362E+03  0.12509000000E+03 0.  0.
<mgrwt>
<rscale>  2 0.45682071E+03</rscale>
<asrwt>0</asrwt>
<pdfrwt beam="1">  1       21 0.29700960E-01 0.45682071E+03</pdfrwt>
<pdfrwt beam="2">  1       21 0.37987724E-01 0.45682071E+03</pdfrwt>
<totfact> 0.67179152E+04</totfact>
</mgrwt>
</event>
<event>
 7    0  0.4737014E-002  0.4524979E+03  0.7546771E-02  0.1026980E+00
         21   -1    0    0  502  501  0.00000000000E+00  0.00000000000E+00  0.16638422622E+03  0.16638422622E+03  0.00000000000E+00 0.  1.
         21   -1    0    0  501  502 -0.00000000000E+00 -0.00000000000E+00 -0.30765281865E+03  0.30765281865E+03  0.00000000000E+00 0.  1.
      99926    2    1    2    0    0  0.14210854715E-13  0.14210854715E-13 -0.14126859243E+03  0.47403704487E+03  0.45249785050E+03 0.  0.
      99925    2    3    3    0    0 -0.74768866020E+02 -0.66769691999E+02 -0.39519560513E+02  0.28417143795E+03  0.26295063299E+03 0.  0.
         25    1    4    4    0    0 -0.59936751841E+02 -0.65660597393E+02 -0.49539343002E+01  0.15354405829E+03  0.12509000000E+03 0.  0.
         25    1    3    3    0    0  0.74768866020E+02  0.66769691999E+02 -0.10174903192E+03  0.18986560692E+03  0.12509000000E+03 0.  0.
         25    1    4    4    0    0 -0.14832114179E+02 -0.11090946063E+01 -0.34565626213E+02  0.13062737966E+03  0.12509000000E+03 0.  0.
<mgrwt>
<rscale>  2 0.45249785E+03</rscale>
<asrwt>0</asrwt>
<pdfrwt beam="1">  1       21 0.24468269E-01 0.45249785E+03</pdfrwt>
<pdfrwt beam="2">  1       21 0.45243061E-01 0.45249785E+03</pdfrwt>
<totfact> 0.68486667E+04</totfact>
</mgrwt>
</event>
<event>
 7    0  0.4737014E-002  0.4545886E+03  0.7546771E-02  0.1026362E+00
         21   -1    0    0  502  501  0.00000000000E+00  0.00000000000E+00  0.48485137065E+03  0.48485137065E+03  0.00000000000E+00 0.  1.
         21   -1    0    0  501  502 -0.00000000000E+00 -0.00000000000E+00 -0.10655367523E+03  0.10655367523E+03  0.00000000000E+00 0.  1.
      99926    2    1    2    0    0  0.00000000000E+00  0.00000000000E+00  0.37829769543E+03  0.59140504588E+03  0.45458858535E+03 0.  0.
      99925    2    3    3    0    0  0.68444833072E+02  0.94167194362E+01  0.12228107641E+03  0.29820650037E+03  0.26306099185E+03 0.  0.
         25    1    4    4    0    0 -0.22850649433E+00 -0.38400807636E+01  0.80960321832E+02  0.14905327989E+03  0.12509000000E+03 0.  0.
         25    1    3    3    0    0 -0.68444833072E+02 -0.94167194362E+01  0.25601661901E+03  0.29319854551E+03  0.12509000000E+03 0.  0.
         25    1    4    4    0    0  0.68673339566E+02  0.13256800200E+02  0.41320754580E+02  0.14915322047E+03  0.12509000000E+03 0.  0.
<mgrwt>
<rscale>  2 0.45458859E+03</rscale>
<asrwt>0</asrwt>
<pdfrwt beam="1">  1       21 0.71301671E-01 0.45458859E+03</pdfrwt>
<pdfrwt beam="2">  1       21 0.15669658E-01 0.45458859E+03</pdfrwt>
<totfact> 0.59403365E+04</totfact>
</mgrwt>
</event>
<event>
 7    0  0.4737014E-002  0.4560443E+03  0.7546771E-02  0.1025935E+00
         21   -1    0    0  502  501  0.00000000000E+00  0.00000000000E+00  0.35455389621E+03  0.35455389621E+03  0.00000000000E+00 0.  1.
         21   -1    0    0  501  502 -0.00000000000E+00 -0.00000000000E+00 -0.14664653804E+03  0.14664653804E+03  0.00000000000E+00 0.  1.
      99926    2    1    2    0    0  0.71054273576E-14  0.00000000000E+00  0.20790735817E+03  0.50120043425E+03  0.45604430236E+03 0.  0.
      99925    2    3    3    0    0 -0.58977119482E+02 -0.61023218993E+02  0.21463108539E+03  0.34988999018E+03  0.26297218205E+03 0.  0.
         25    1    4    4    0    0  0.10172869164E+02 -0.17830779890E+02  0.91164557970E+02  0.15614066962E+03  0.12509000000E+03 0.  0.
         25    1    3    3    0    0  0.58977119482E+02  0.61023218993E+02 -0.67237272146E+01  0.15131044408E+03  0.12509000000E+03 0.  0.
         25    1    4    4    0    0 -0.69149988646E+02 -0.43192439102E+02  0.12346652742E+03  0.19374932056E+03  0.12509000000E+03 0.  0.
<mgrwt>
<rscale>  2 0.45604430E+03</rscale>
<asrwt>0</asrwt>
<pdfrwt beam="1">  1       21 0.52140279E-01 0.45604430E+03</pdfrwt>
<pdfrwt beam="2">  1       21 0.21565667E-01 0.45604430E+03</pdfrwt>
<totfact> 0.64648830E+04</totfact>
</mgrwt>
</event>
<event>
 7    0  0.4737014E-002  0.4481971E+03  0.7546771E-02  0.1028261E+00
         21   -1    0    0  502  501  0.00000000000E+00  0.00000000000E+00  0.82001607218E+02  0.82001607218E+02  0.00000000000E+00 0. -1.
         21   -1    0    0  501  502 -0.00000000000E+00 -0.00000000000E+00 -0.61242905425E+03  0.61242905425E+03  0.00000000000E+00 0. -1.
      99926    2    1    2    0    0  0.17763568394E-14  0.00000000000E+00 -0.53042744703E+03  0.69443066147E+03  0.44819712964E+03 0.  0.
      99925    2    3    3    0    0  0.93698984281E+01 -0.66813546282E+02 -0.46359390061E+03  0.53737628875E+03  0.26325296971E+03 0.  0.
         25    1    4    4    0    0  0.34691712053E+02 -0.12064164269E+02 -0.26106426284E+03  0.29180664210E+03  0.12509000000E+03 0.  0.
         25    1    3    3    0    0 -0.93698984281E+01  0.66813546282E+02 -0.66833546421E+02  0.15705437272E+03  0.12509000000E+03 0.  0.
         25    1    4    4    0    0 -0.25321813624E+02 -0.54749382014E+02 -0.20252963777E+03  0.24556964664E+03  0.12509000000E+03 0.  0.
<mgrwt>
<rscale>  2 0.44819713E+03</rscale>
<asrwt>0</asrwt>
<pdfrwt beam="1">  1       21 0.12059060E-01 0.44819713E+03</pdfrwt>
<pdfrwt beam="2">  1       21 0.90063097E-01 0.44819713E+03</pdfrwt>
<totfact> 0.56153248E+04</totfact>
</mgrwt>
</event>
<event>
 7    0  0.4737014E-002  0.4576430E+03  0.7546771E-02  0.1025467E+00
         21   -1    0    0  502  501  0.00000000000E+00  0.00000000000E+00  0.31067634479E+03  0.31067634479E+03  0.00000000000E+00 0. -1.
         21   -1    0    0  501  502 -0.00000000000E+00 -0.00000000000E+00 -0.16853318162E+03  0.16853318162E+03  0.00000000000E+00 0. -1.
      99926    2    1    2    0    0  0.00000000000E+00  0.14210854715E-13  0.14214316317E+03  0.47920952642E+03  0.45764297370E+03 0.  0.
      99925    2    3    3    0    0  0.75503445377E+02 -0.64476361811E+02  0.27438267812E+02  0.28258121560E+03  0.26313744198E+03 0.  0.
         25    1    4    4    0    0  0.95946890855E+01  0.81564895293E+00  0.14817102907E+02  0.12633201487E+03  0.12509000000E+03 0.  0.
         25    1    4    4    0    0  0.65908756292E+02 -0.65292010764E+02  0.12621164905E+02  0.15624920073E+03  0.12509000000E+03 0.  0.
         25    1    3    3    0    0 -0.75503445377E+02  0.64476361811E+02  0.11470489536E+03  0.19662831082E+03  0.12509000000E+03 0.  0.
<mgrwt>
<rscale>  2 0.45764297E+03</rscale>
<asrwt>0</asrwt>
<pdfrwt beam="1">  1       21 0.45687698E-01 0.45764297E+03</pdfrwt>
<pdfrwt beam="2">  1       21 0.24784291E-01 0.45764297E+03</pdfrwt>
<totfact> 0.65375518E+04</totfact>
</mgrwt>
</event>
<event>
 7    0  0.4737014E-002  0.4550136E+03  0.7546771E-02  0.1026237E+00
         21   -1    0    0  502  501  0.00000000000E+00  0.00000000000E+00  0.72117984946E+03  0.72117984946E+03  0.00000000000E+00 0. -1.
         21   -1    0    0  501  502 -0.00000000000E+00 -0.00000000000E+00 -0.71770371615E+02  0.71770371615E+02  0.00000000000E+00 0. -1.
      99926    2    1    2    0    0  0.71054273576E-14  0.71054273576E-14  0.64940947784E+03  0.79295022107E+03  0.45501360770E+03 0.  0.
      99925    2    3    3    0    0  0.60273938635E+02 -0.56202042403E+02  0.27333349620E+03  0.38813882139E+03  0.26296183615E+03 0.  0.
         25    1    4    4    0    0 -0.89781662223E+01 -0.30238242898E+02  0.11019028706E+03  0.16965955990E+03  0.12509000000E+03 0.  0.
         25    1    3    3    0    0 -0.60273938635E+02  0.56202042403E+02  0.37607598164E+03  0.40481139968E+03  0.12509000000E+03 0.  0.
         25    1    4    4    0    0  0.69252104858E+02 -0.25963799506E+02  0.16314320915E+03  0.21847926149E+03  0.12509000000E+03 0.  0.
<mgrwt>
<rscale>  2 0.45501361E+03</rscale>
<asrwt>0</asrwt>
<pdfrwt beam="1">  1       21 0.10605586E+00 0.45501361E+03</pdfrwt>
<pdfrwt beam="2">  1       21 0.10554467E-01 0.45501361E+03</pdfrwt>
<totfact> 0.48102564E+04</totfact>
</mgrwt>
</event>
<event>
 7    0  0.4737014E-002  0.4529244E+03  0.7546771E-02  0.1026854E+00
         21   -1    0    0  502  501  0.00000000000E+00  0.00000000000E+00  0.11865525362E+03  0.11865525362E+03  0.00000000000E+00 0. -1.
         21   -1    0    0  501  502 -0.00000000000E+00 -0.00000000000E+00 -0.43221959769E+03  0.43221959769E+03  0.00000000000E+00 0. -1.
      99926    2    1    2    0    0  0.00000000000E+00 -0.14210854715E-13 -0.31356434407E+03  0.55087485132E+03  0.45292439097E+03 0.  0.
      99925    2    3    3    0    0  0.37335832290E+02  0.96285830579E+02 -0.14750681689E+03  0.31873796072E+03  0.26300323388E+03 0.  0.
         25    1    3    3    0    0 -0.37335832290E+02 -0.96285830579E+02 -0.16605752718E+03  0.23213689060E+03  0.12509000000E+03 0.  0.
         25    1    4    4    0    0  0.28186467264E+02  0.60599805493E+02 -0.11927948516E+03  0.18531572260E+03  0.12509000000E+03 0.  0.
         25    1    4    4    0    0  0.91493650256E+01  0.35686025086E+02 -0.28227331721E+02  0.13342223811E+03  0.12509000000E+03 0.  0.
<mgrwt>
<rscale>  2 0.45292439E+03</rscale>
<asrwt>0</asrwt>
<pdfrwt beam="1">  1       21 0.17449302E-01 0.45292439E+03</pdfrwt>
<pdfrwt beam="2">  1       21 0.63561704E-01 0.45292439E+03</pdfrwt>
<totfact> 0.62834236E+04</totfact>
</mgrwt>
</event>
<event>
 7    0  0.4737014E-002  0.4648918E+03  0.7546771E-02  0.1023372E+00
         21   -1    0    0  502  501  0.00000000000E+00  0.00000000000E+00  0.39645380011E+03  0.39645380011E+03  0.00000000000E+00 0.  1.
         21   -1    0    0  501  502 -0.00000000000E+00 -0.00000000000E+00 -0.13628596742E+03  0.13628596742E+03  0.00000000000E+00 0.  1.
      99926    2    1    2    0    0  0.14210854715E-13 -0.35527136788E-14  0.26016783269E+03  0.53273976753E+03  0.46489177100E+03 0.  0.
      99925    2    3    3    0    0  0.90414382110E+02 -0.20538344049E+02  0.25349732628E+03  0.37689180372E+03  0.26303983198E+03 0.  0.
         25    1    3    3    0    0 -0.90414382110E+02  0.20538344049E+02  0.66705064019E+01  0.15584796381E+03  0.12509000000E+03 0.  0.
         25    1    4    4    0    0  0.53536120766E+02  0.12437039213E+02  0.17180571973E+03  0.21951198055E+03  0.12509000000E+03 0.  0.
         25    1    4    4    0    0  0.36878261344E+02 -0.32975383262E+02  0.81691606550E+02  0.15737982317E+03  0.12509000000E+03 0.  0.
<mgrwt>
<rscale>  2 0.46489177E+03</rscale>
<asrwt>0</asrwt>
<pdfrwt beam="1">  1       21 0.58302029E-01 0.46489177E+03</pdfrwt>
<pdfrwt beam="2">  1       21 0.20042054E-01 0.46489177E+03</pdfrwt>
<totfact> 0.58313216E+04</totfact>
</mgrwt>
</event>
<event>
 7    0  0.4737014E-002  0.4192639E+03  0.7546771E-02  0.1037306E+00
         21   -1    0    0  502  501  0.00000000000E+00  0.00000000000E+00  0.53964842527E+02  0.53964842527E+02  0.00000000000E+00 0. -1.
         21   -1    0    0  501  502 -0.00000000000E+00 -0.00000000000E+00 -0.81433676758E+03  0.81433676758E+03  0.00000000000E+00 0. -1.
      99926    2    1    2    0    0  0.00000000000E+00  0.00000000000E+00 -0.76037192505E+03  0.86830161010E+03  0.41926390460E+03 0.  0.
      99925    2    3    3    0    0 -0.35912174601E+02 -0.65471578178E+02 -0.48029775960E+03  0.55260356120E+03  0.26288504357E+03 0.  0.
         25    1    4    4    0    0 -0.22296609466E+02 -0.71414156695E+02 -0.22802740272E+03  0.27063097580E+03  0.12509000000E+03 0.  0.
         25    1    3    3    0    0  0.35912174601E+02  0.65471578178E+02 -0.28007416544E+03  0.31569804891E+03  0.12509000000E+03 0.  0.
         25    1    4    4    0    0 -0.13615565135E+02  0.59425785163E+01 -0.25227035689E+03  0.28197258540E+03  0.12509000000E+03 0.  0.
<mgrwt>
<rscale>  2 0.41926390E+03</rscale>
<asrwt>0</asrwt>
<pdfrwt beam="1">  1       21 0.79360060E-02 0.41926390E+03</pdfrwt>
<pdfrwt beam="2">  1       21 0.11975541E+00 0.41926390E+03</pdfrwt>
<totfact> 0.59655447E+04</totfact>
</mgrwt>
</event>
<event>
 7    0  0.4737014E-002  0.4552787E+03  0.7546771E-02  0.1026159E+00
         21   -1    0    0  502  501  0.00000000000E+00  0.00000000000E+00  0.31148743859E+03  0.31148743859E+03  0.00000000000E+00 0. -1.
         21   -1    0    0  501  502 -0.00000000000E+00 -0.00000000000E+00 -0.16636203099E+03  0.16636203099E+03  0.00000000000E+00 0. -1.
      99926    2    1    2    0    0 -0.14210854715E-13 -0.71054273576E-14  0.14512540760E+03  0.47784946958E+03  0.45527874060E+03 0.  0.
      99925    2    3    3    0    0  0.10247833626E+03  0.48357238837E+02  0.10063223081E+03  0.30330038528E+03  0.26272427729E+03 0.  0.
         25    1    4    4    0    0  0.57393630799E+02 -0.81563437627E+01  0.73704512487E+02  0.15633431505E+03  0.12509000000E+03 0.  0.
         25    1    3    3    0    0 -0.10247833626E+03 -0.48357238837E+02  0.44493176787E+02  0.17454908430E+03  0.12509000000E+03 0.  0.
         25    1    4    4    0    0  0.45084705460E+02  0.56513582599E+02  0.26927718324E+02  0.14696607023E+03  0.12509000000E+03 0.  0.
<mgrwt>
<rscale>  2 0.45527874E+03</rscale>
<asrwt>0</asrwt>
<pdfrwt beam="1">  1       21 0.45806976E-01 0.45527874E+03</pdfrwt>
<pdfrwt beam="2">  1       21 0.24465004E-01 0.45527874E+03</pdfrwt>
<totfact> 0.66709270E+04</totfact>
</mgrwt>
</event>
<event>
 7    0  0.4737014E-002  0.4533763E+03  0.7546771E-02  0.1026720E+00
         21   -1    0    0  502  501  0.00000000000E+00  0.00000000000E+00  0.18907264923E+03  0.18907264923E+03  0.00000000000E+00 0. -1.
         21   -1    0    0  501  502 -0.00000000000E+00 -0.00000000000E+00 -0.27178714779E+03  0.27178714779E+03  0.00000000000E+00 0. -1.
      99926    2    1    2    0    0  0.00000000000E+00  0.00000000000E+00 -0.82714498566E+02  0.46085979702E+03  0.45337629430E+03 0.  0.
      99925    2    3    3    0    0  0.60469988364E+02  0.67283560481E+02 -0.11865914091E+03  0.30235672949E+03  0.26297509985E+03 0.  0.
         25    1    3    3    0    0 -0.60469988364E+02 -0.67283560481E+02  0.35944642340E+02  0.15850306753E+03  0.12509000000E+03 0.  0.
         25    1    4    4    0    0 -0.54546792491E+01  0.23257873938E+02 -0.75729677385E+02  0.14816603647E+03  0.12509000000E+03 0.  0.
         25    1    4    4    0    0  0.65924667613E+02  0.44025686543E+02 -0.42929463520E+02  0.15419069302E+03  0.12509000000E+03 0.  0.
<mgrwt>
<rscale>  2 0.45337629E+03</rscale>
<asrwt>0</asrwt>
<pdfrwt beam="1">  1       21 0.27804802E-01 0.45337629E+03</pdfrwt>
<pdfrwt beam="2">  1       21 0.39968698E-01 0.45337629E+03</pdfrwt>
<totfact> 0.69004954E+04</totfact>
</mgrwt>
</event>
<event>
 7    0  0.4737014E-002  0.4552868E+03  0.7546771E-02  0.1026157E+00
         21   -1    0    0  502  501  0.00000000000E+00  0.00000000000E+00  0.37346699321E+02  0.37346699321E+02  0.00000000000E+00 0.  1.
         21   -1    0    0  501  502 -0.00000000000E+00 -0.00000000000E+00 -0.13875797939E+04  0.13875797939E+04  0.00000000000E+00 0.  1.
      99926    2    1    2    0    0  0.00000000000E+00  0.00000000000E+00 -0.13502330946E+04  0.14249264933E+04  0.45528683419E+03 0.  0.
      99925    2    3    3    0    0  0.10449881817E+03  0.29109029350E+02 -0.95400403333E+03  0.99549394245E+03  0.26290141735E+03 0.  0.
         25    1    3    3    0    0 -0.10449881817E+03 -0.29109029350E+02 -0.39622906129E+03  0.42943255081E+03  0.12509000000E+03 0.  0.
         25    1    4    4    0    0  0.54840764316E+02  0.36678322437E+02 -0.36929982386E+03  0.39545249623E+03  0.12509000000E+03 0.  0.
         25    1    4    4    0    0  0.49658053856E+02 -0.75692930871E+01 -0.58470420947E+03  0.60004144622E+03  0.12509000000E+03 0.  0.
<mgrwt>
<rscale>  2 0.45528683E+03</rscale>
<asrwt>0</asrwt>
<pdfrwt beam="1">  1       21 0.54921621E-02 0.45528683E+03</pdfrwt>
<pdfrwt beam="2">  1       21 0.20405584E+00 0.45528683E+03</pdfrwt>
<totfact> 0.25618137E+04</totfact>
</mgrwt>
</event>
<event>
 7    0  0.4737014E-002  0.4416918E+03  0.7546771E-02  0.1030229E+00
         21   -1    0    0  502  501  0.00000000000E+00  0.00000000000E+00  0.27698594054E+03  0.27698594054E+03  0.00000000000E+00 0. -1.
         21   -1    0    0  501  502 -0.00000000000E+00 -0.00000000000E+00 -0.17608440041E+03  0.17608440041E+03  0.00000000000E+00 0. -1.
      99926    2    1    2    0    0  0.00000000000E+00  0.00000000000E+00  0.10090154013E+03  0.45307034094E+03  0.44169176248E+03 0.  0.
      99925    2    3    3    0    0 -0.86262132419E+02  0.45855613025E+02  0.41532452562E+02  0.28361211779E+03  0.26299619010E+03 0.  0.
         25    1    4    4    0    0 -0.21051210509E+02  0.53482177978E+02  0.52908523025E+01  0.13776428435E+03  0.12509000000E+03 0.  0.
         25    1    4    4    0    0 -0.65210921910E+02 -0.76265649528E+01  0.36241600259E+02  0.14584783344E+03  0.12509000000E+03 0.  0.
         25    1    3    3    0    0  0.86262132419E+02 -0.45855613025E+02  0.59369087567E+02  0.16945822315E+03  0.12509000000E+03 0.  0.
<mgrwt>
<rscale>  2 0.44169176E+03</rscale>
<asrwt>0</asrwt>
<pdfrwt beam="1">  1       21 0.40733227E-01 0.44169176E+03</pdfrwt>
<pdfrwt beam="2">  1       21 0.25894765E-01 0.44169176E+03</pdfrwt>
<totfact> 0.76475404E+04</totfact>
</mgrwt>
</event>
<event>
 7    0  0.4737014E-002  0.4579373E+03  0.7546771E-02  0.1025381E+00
         21   -1    0    0  502  501  0.00000000000E+00  0.00000000000E+00  0.16142675045E+03  0.16142675045E+03  0.00000000000E+00 0. -1.
         21   -1    0    0  501  502 -0.00000000000E+00 -0.00000000000E+00 -0.32477045542E+03  0.32477045542E+03  0.00000000000E+00 0. -1.
      99926    2    1    2    0    0 -0.71054273576E-14 -0.14210854715E-13 -0.16334370497E+03  0.48619720587E+03  0.45793728506E+03 0.  0.
      99925    2    3    3    0    0  0.54946822138E+02  0.90346620628E+02 -0.51506053388E+02  0.28786205132E+03  0.26273565028E+03 0.  0.
         25    1    4    4    0    0  0.55085249576E+01  0.78938498408E+02 -0.21385619739E+02  0.14955428182E+03  0.12509000000E+03 0.  0.
         25    1    3    3    0    0 -0.54946822138E+02 -0.90346620628E+02 -0.11183765158E+03  0.19833515456E+03  0.12509000000E+03 0.  0.
         25    1    4    4    0    0  0.49438297180E+02  0.11408122219E+02 -0.30120433649E+02  0.13830776950E+03  0.12509000000E+03 0.  0.
<mgrwt>
<rscale>  2 0.45793729E+03</rscale>
<asrwt>0</asrwt>
<pdfrwt beam="1">  1       21 0.23739228E-01 0.45793729E+03</pdfrwt>
<pdfrwt beam="2">  1       21 0.47760360E-01 0.45793729E+03</pdfrwt>
<totfact> 0.64729176E+04</totfact>
</mgrwt>
</event>
<event>
 7    0  0.4737014E-002  0.4565843E+03  0.7546771E-02  0.1025777E+00
         21   -1    0    0  502  501  0.00000000000E+00  0.00000000000E+00  0.60634589055E+03  0.60634589055E+03  0.00000000000E+00 0. -1.
         21   -1    0    0  501  502 -0.00000000000E+00 -0.00000000000E+00 -0.85953093142E+02  0.85953093142E+02  0.00000000000E+00 0. -1.
      99926    2    1    2    0    0  0.00000000000E+00  0.44408920985E-15  0.52039279741E+03  0.69229898369E+03  0.45658429586E+03 0.  0.
      99925    2    3    3    0    0  0.11121092907E+03  0.28861047695E+01  0.36914399977E+03  0.46668890583E+03  0.26297346238E+03 0.  0.
         25    1    3    3    0    0 -0.11121092907E+03 -0.28861047695E+01  0.15124879763E+03  0.22561007786E+03  0.12509000000E+03 0.  0.
         25    1    4    4    0    0  0.92239324066E+02  0.14491310086E+02  0.17321481798E+03  0.23317155109E+03  0.12509000000E+03 0.  0.
         25    1    4    4    0    0  0.18971605000E+02 -0.11605205317E+02  0.19592918179E+03  0.23351735474E+03  0.12509000000E+03 0.  0.
<mgrwt>
<rscale>  2 0.45658430E+03</rscale>
<asrwt>0</asrwt>
<pdfrwt beam="1">  1       21 0.89168511E-01 0.45658430E+03</pdfrwt>
<pdfrwt beam="2">  1       21 0.12640161E-01 0.45658430E+03</pdfrwt>
<totfact> 0.52663303E+04</totfact>
</mgrwt>
</event>
<event>
 7    0  0.4737014E-002  0.4580914E+03  0.7546771E-02  0.1025336E+00
         21   -1    0    0  502  501  0.00000000000E+00  0.00000000000E+00  0.11769580743E+04  0.11769580743E+04  0.00000000000E+00 0.  1.
         21   -1    0    0  501  502 -0.00000000000E+00 -0.00000000000E+00 -0.44574168902E+02  0.44574168902E+02  0.00000000000E+00 0.  1.
      99926    2    1    2    0    0  0.00000000000E+00  0.00000000000E+00  0.11323839054E+04  0.12215322432E+04  0.45809137950E+03 0.  0.
      99925    2    3    3    0    0  0.93917107474E+02 -0.29501190589E+02  0.87455114235E+03  0.91852071681E+03  0.26296361593E+03 0.  0.
         25    1    4    4    0    0  0.87273119622E+02 -0.18074186745E+02  0.43468010235E+03  0.46101797482E+03  0.12509000000E+03 0.  0.
         25    1    3    3    0    0 -0.93917107474E+02  0.29501190589E+02  0.25783276302E+03  0.30301152637E+03  0.12509000000E+03 0.  0.
         25    1    4    4    0    0  0.66439878522E+01 -0.11427003844E+02  0.43987104000E+03  0.45750274198E+03  0.12509000000E+03 0.  0.
<mgrwt>
<rscale>  2 0.45809138E+03</rscale>
<asrwt>0</asrwt>
<pdfrwt beam="1">  1       21 0.17308205E+00 0.45809138E+03</pdfrwt>
<pdfrwt beam="2">  1       21 0.65550256E-02 0.45809138E+03</pdfrwt>
<totfact> 0.30734155E+04</totfact>
</mgrwt>
</event>
<event>
 7    0  0.4737014E-002  0.4590457E+03  0.7546771E-02  0.1025058E+00
         21   -1    0    0  502  501  0.00000000000E+00  0.00000000000E+00  0.18321844400E+03  0.18321844400E+03  0.00000000000E+00 0.  1.
         21   -1    0    0  501  502 -0.00000000000E+00 -0.00000000000E+00 -0.28752970965E+03  0.28752970965E+03  0.00000000000E+00 0.  1.
      99926    2    1    2    0    0  0.00000000000E+00 -0.35527136788E-14 -0.10431126565E+03  0.47074815365E+03  0.45904573195E+03 0.  0.
      99925    2    3    3    0    0  0.99684499735E+02 -0.25483972196E+02 -0.12191564310E+03  0.30782530525E+03  0.26326139518E+03 0.  0.
         25    1    4    4    0    0  0.89783668345E+02 -0.14048742198E+02 -0.48735700663E+02  0.16211462265E+03  0.12509000000E+03 0.  0.
         25    1    4    4    0    0  0.99008313898E+01 -0.11435229999E+02 -0.73179942435E+02  0.14571068259E+03  0.12509000000E+03 0.  0.
         25    1    3    3    0    0 -0.99684499735E+02  0.25483972196E+02  0.17604377449E+02  0.16292284840E+03  0.12509000000E+03 0.  0.
<mgrwt>
<rscale>  2 0.45904573E+03</rscale>
<asrwt>0</asrwt>
<pdfrwt beam="1">  1       21 0.26943889E-01 0.45904573E+03</pdfrwt>
<pdfrwt beam="2">  1       21 0.42283780E-01 0.45904573E+03</pdfrwt>
<totfact> 0.65260693E+04</totfact>
</mgrwt>
</event>
<event>
 7    0  0.4737014E-002  0.4400346E+03  0.7546771E-02  0.1030736E+00
         21   -1    0    0  502  501  0.00000000000E+00  0.00000000000E+00  0.17752728274E+03  0.17752728274E+03  0.00000000000E+00 0. -1.
         21   -1    0    0  501  502 -0.00000000000E+00 -0.00000000000E+00 -0.27267700703E+03  0.27267700703E+03  0.00000000000E+00 0. -1.
      99926    2    1    2    0    0  0.00000000000E+00  0.00000000000E+00 -0.95149724285E+02  0.45020428977E+03  0.44003458102E+03 0.  0.
      99925    2    3    3    0    0  0.86224825351E+02  0.43280119828E+02 -0.80756670732E+02  0.29157718815E+03  0.26303560120E+03 0.  0.
         25    1    3    3    0    0 -0.86224825351E+02 -0.43280119828E+02 -0.14393053553E+02  0.15862710162E+03  0.12509000000E+03 0.  0.
         25    1    4    4    0    0  0.34129024959E+02  0.29817132403E+02 -0.80307376855E+02  0.15540474448E+03  0.12509000000E+03 0.  0.
         25    1    4    4    0    0  0.52095800392E+02  0.13462987425E+02 -0.44929387650E+00  0.13617244367E+03  0.12509000000E+03 0.  0.
<mgrwt>
<rscale>  2 0.44003458E+03</rscale>
<asrwt>0</asrwt>
<pdfrwt beam="1">  1       21 0.26106954E-01 0.44003458E+03</pdfrwt>
<pdfrwt beam="2">  1       21 0.40099559E-01 0.44003458E+03</pdfrwt>
<totfact> 0.77766027E+04</totfact>
</mgrwt>
</event>
<event>
 7    0  0.4737014E-002  0.4876128E+03  0.7546771E-02  0.1017064E+00
         21   -1    0    0  502  501  0.00000000000E+00  0.00000000000E+00  0.35860378727E+03  0.35860378727E+03  0.00000000000E+00 0. -1.
         21   -1    0    0  501  502 -0.00000000000E+00 -0.00000000000E+00 -0.16575833560E+03  0.16575833560E+03  0.00000000000E+00 0. -1.
      99926    2    1    2    0    0 -0.35527136788E-14  0.00000000000E+00  0.19284545167E+03  0.52436212287E+03  0.48761282558E+03 0.  0.
      99925    2    3    3    0    0 -0.15316276910E+02  0.70789168410E+02 -0.12713632706E+02  0.27306998218E+03  0.26298266865E+03 0.  0.
         25    1    4    4    0    0  0.30939236458E+02  0.45419395519E+02 -0.13623522053E+02  0.13730719681E+03  0.12509000000E+03 0.  0.
         25    1    3    3    0    0  0.15316276910E+02 -0.70789168410E+02  0.20555908438E+03  0.25129214069E+03  0.12509000000E+03 0.  0.
         25    1    4    4    0    0 -0.46255513368E+02  0.25369772890E+02  0.90988934725E+00  0.13576278537E+03  0.12509000000E+03 0.  0.
<mgrwt>
<rscale>  2 0.48761283E+03</rscale>
<asrwt>0</asrwt>
<pdfrwt beam="1">  1       21 0.52735851E-01 0.48761283E+03</pdfrwt>
<pdfrwt beam="2">  1       21 0.24376226E-01 0.48761283E+03</pdfrwt>
<totfact> 0.49486763E+04</totfact>
</mgrwt>
</event>
<event>
 7    0  0.4737014E-002  0.4315594E+03  0.7546771E-02  0.1033369E+00
         21   -1    0    0  502  501  0.00000000000E+00  0.00000000000E+00  0.17634617880E+03  0.17634617880E+03  0.00000000000E+00 0.  1.
         21   -1    0    0  501  502 -0.00000000000E+00 -0.00000000000E+00 -0.26403108882E+03  0.26403108882E+03  0.00000000000E+00 0.  1.
      99926    2    1    2    0    0  0.00000000000E+00  0.00000000000E+00 -0.87684910016E+02  0.44037726762E+03  0.43155937528E+03 0.  0.
      99925    2    3    3    0    0 -0.19455140438E+02  0.40981747317E+02 -0.13436824075E+03  0.29936362441E+03  0.26363943066E+03 0.  0.
         25    1    4    4    0    0 -0.31523464619E+02  0.31106521372E+02 -0.10677080505E+03  0.17031986791E+03  0.12509000000E+03 0.  0.
         25    1    3    3    0    0  0.19455140438E+02 -0.40981747317E+02  0.46683330735E+02  0.14101364321E+03  0.12509000000E+03 0.  0.
         25    1    4    4    0    0  0.12068324181E+02  0.98752259457E+01 -0.27597435701E+02  0.12904375651E+03  0.12509000000E+03 0.  0.
<mgrwt>
<rscale>  2 0.43155938E+03</rscale>
<asrwt>0</asrwt>
<pdfrwt beam="1">  1       21 0.25933262E-01 0.43155938E+03</pdfrwt>
<pdfrwt beam="2">  1       21 0.38828101E-01 0.43155938E+03</pdfrwt>
<totfact> 0.84321382E+04</totfact>
</mgrwt>
</event>
<event>
 7    0  0.4737014E-002  0.4504334E+03  0.7546771E-02  0.1027593E+00
         21   -1    0    0  502  501  0.00000000000E+00  0.00000000000E+00  0.10257266593E+04  0.10257266593E+04  0.00000000000E+00 0. -1.
         21   -1    0    0  501  502 -0.00000000000E+00 -0.00000000000E+00 -0.49450365891E+02  0.49450365891E+02  0.00000000000E+00 0. -1.
      99926    2    1    2    0    0  0.14210854715E-13  0.00000000000E+00  0.97627629343E+03  0.10751770252E+04  0.45043338512E+03 0.  0.
      99925    2    3    3    0    0 -0.91894869136E+02 -0.55437002165E+02  0.56886320506E+03  0.63568770696E+03  0.26263203637E+03 0.  0.
         25    1    4    4    0    0 -0.86169179081E+02 -0.19589491999E+02  0.29261107851E+03  0.33026902214E+03  0.12509000000E+03 0.  0.
         25    1    4    4    0    0 -0.57256900545E+01 -0.35847510166E+02  0.27625212655E+03  0.30541868482E+03  0.12509000000E+03 0.  0.
         25    1    3    3    0    0  0.91894869136E+02  0.55437002165E+02  0.40741308837E+03  0.43948931825E+03  0.12509000000E+03 0.  0.
<mgrwt>
<rscale>  2 0.45043339E+03</rscale>
<asrwt>0</asrwt>
<pdfrwt beam="1">  1       21 0.15084214E+00 0.45043339E+03</pdfrwt>
<pdfrwt beam="2">  1       21 0.72721133E-02 0.45043339E+03</pdfrwt>
<totfact> 0.37692236E+04</totfact>
</mgrwt>
</event>
<event>
 7    0  0.4737014E-002  0.4522374E+03  0.7546771E-02  0.1027057E+00
         21   -1    0    0  502  501  0.00000000000E+00  0.00000000000E+00  0.66095239426E+02  0.66095239426E+02  0.00000000000E+00 0. -1.
         21   -1    0    0  501  502 -0.00000000000E+00 -0.00000000000E+00 -0.77357559799E+03  0.77357559799E+03  0.00000000000E+00 0. -1.
      99926    2    1    2    0    0 -0.88817841970E-15  0.00000000000E+00 -0.70748035856E+03  0.83967083741E+03  0.45223739059E+03 0.  0.
      99925    2    3    3    0    0 -0.48927333508E+01 -0.80244163564E+02 -0.58694820635E+03  0.64825878857E+03  0.26318851684E+03 0.  0.
         25    1    4    4    0    0  0.11517193242E+02 -0.28952164866E+02 -0.19905924739E+03  0.23715599436E+03  0.12509000000E+03 0.  0.
         25    1    4    4    0    0 -0.16409926593E+02 -0.51291998698E+02 -0.38788895897E+03  0.41110279421E+03  0.12509000000E+03 0.  0.
         25    1    3    3    0    0  0.48927333508E+01  0.80244163564E+02 -0.12053215221E+03  0.19141204884E+03  0.12509000000E+03 0.  0.
<mgrwt>
<rscale>  2 0.45223739E+03</rscale>
<asrwt>0</asrwt>
<pdfrwt beam="1">  1       21 0.97198888E-02 0.45223739E+03</pdfrwt>
<pdfrwt beam="2">  1       21 0.11376111E+00 0.45223739E+03</pdfrwt>
<totfact> 0.46913586E+04</totfact>
</mgrwt>
</event>
<event>
 7    0  0.4737014E-002  0.4530080E+03  0.7546771E-02  0.1026829E+00
         21   -1    0    0  502  501  0.00000000000E+00  0.00000000000E+00  0.10512497475E+04  0.10512497475E+04  0.00000000000E+00 0.  1.
         21   -1    0    0  501  502 -0.00000000000E+00 -0.00000000000E+00 -0.48802916424E+02  0.48802916424E+02  0.00000000000E+00 0.  1.
      99926    2    1    2    0    0  0.14210854715E-13 -0.17763568394E-14  0.10024468310E+04  0.11000526639E+04  0.45300796269E+03 0.  0.
      99925    2    3    3    0    0 -0.99960701857E+02  0.22916086134E+01  0.75102330299E+03  0.80196091301E+03  0.26288383551E+03 0.  0.
         25    1    4    4    0    0 -0.21929206458E+02 -0.26533332230E+02  0.38658650084E+03  0.40777633397E+03  0.12509000000E+03 0.  0.
         25    1    3    3    0    0  0.99960701857E+02 -0.22916086134E+01  0.25142352805E+03  0.29809175088E+03  0.12509000000E+03 0.  0.
         25    1    4    4    0    0 -0.78031495399E+02  0.28824940843E+02  0.36443680215E+03  0.39418457904E+03  0.12509000000E+03 0.  0.
<mgrwt>
<rscale>  2 0.45300796E+03</rscale>
<asrwt>0</asrwt>
<pdfrwt beam="1">  1       21 0.15459554E+00 0.45300796E+03</pdfrwt>
<pdfrwt beam="2">  1       21 0.71769001E-02 0.45300796E+03</pdfrwt>
<totfact> 0.36049359E+04</totfact>
</mgrwt>
</event>
<event>
 7    0  0.4737014E-002  0.4505891E+03  0.7546771E-02  0.1027547E+00
         21   -1    0    0  502  501  0.00000000000E+00  0.00000000000E+00  0.70699625675E+02  0.70699625675E+02  0.00000000000E+00 0.  1.
         21   -1    0    0  501  502 -0.00000000000E+00 -0.00000000000E+00 -0.71793357927E+03  0.71793357927E+03  0.00000000000E+00 0.  1.
      99926    2    1    2    0    0 -0.35527136788E-14  0.00000000000E+00 -0.64723395359E+03  0.78863320494E+03  0.45058910468E+03 0.  0.
      99925    2    3    3    0    0 -0.87543472485E+01  0.96303351468E+02 -0.32039789355E+03  0.42556256120E+03  0.26286443123E+03 0.  0.
         25    1    3    3    0    0  0.87543472485E+01 -0.96303351468E+02 -0.32683606005E+03  0.36307064374E+03  0.12509000000E+03 0.  0.
         25    1    4    4    0    0  0.88196840659E+01  0.63207000572E+02 -0.11195583001E+03  0.17959545574E+03  0.12509000000E+03 0.  0.
         25    1    4    4    0    0 -0.17574031314E+02  0.33096350896E+02 -0.20844206353E+03  0.24596710546E+03  0.12509000000E+03 0.  0.
<mgrwt>
<rscale>  2 0.45058910E+03</rscale>
<asrwt>0</asrwt>
<pdfrwt beam="1">  1       21 0.10397004E-01 0.45058910E+03</pdfrwt>
<pdfrwt beam="2">  1       21 0.10557846E+00 0.45058910E+03</pdfrwt>
<totfact> 0.50029166E+04</totfact>
</mgrwt>
</event>
<event>
 7    0  0.4737014E-002  0.4554528E+03  0.7546771E-02  0.1026108E+00
         21   -1    0    0  502  501  0.00000000000E+00  0.00000000000E+00  0.49345909126E+03  0.49345909126E+03  0.00000000000E+00 0.  1.
         21   -1    0    0  501  502 -0.00000000000E+00 -0.00000000000E+00 -0.10509343566E+03  0.10509343566E+03  0.00000000000E+00 0.  1.
      99926    2    1    2    0    0 -0.14210854715E-13  0.14210854715E-13  0.38836565559E+03  0.59855252692E+03  0.45545279123E+03 0.  0.
      99925    2    3    3    0    0  0.71396451556E+02 -0.85067786061E+02  0.27546620397E+03  0.39674128889E+03  0.26303619382E+03 0.  0.
         25    1    4    4    0    0  0.72125682253E+02 -0.46791183125E+02  0.11953685155E+03  0.19320480283E+03  0.12509000000E+03 0.  0.
         25    1    3    3    0    0 -0.71396451556E+02  0.85067786061E+02  0.11289945162E+03  0.20181123803E+03  0.12509000000E+03 0.  0.
         25    1    4    4    0    0 -0.72923069665E+00 -0.38276602937E+02  0.15592935242E+03  0.20353648606E+03  0.12509000000E+03 0.  0.
<mgrwt>
<rscale>  2 0.45545279E+03</rscale>
<asrwt>0</asrwt>
<pdfrwt beam="1">  1       21 0.72567512E-01 0.45545279E+03</pdfrwt>
<pdfrwt beam="2">  1       21 0.15454917E-01 0.45545279E+03</pdfrwt>
<totfact> 0.58557664E+04</totfact>
</mgrwt>
</event>
<event>
 7    0  0.4737014E-002  0.4567314E+03  0.7546771E-02  0.1025733E+00
         21   -1    0    0  502  501  0.00000000000E+00  0.00000000000E+00  0.19040803917E+03  0.19040803917E+03  0.00000000000E+00 0.  1.
         21   -1    0    0  501  502 -0.00000000000E+00 -0.00000000000E+00 -0.27389020605E+03  0.27389020605E+03  0.00000000000E+00 0.  1.
      99926    2    1    2    0    0  0.14210854715E-13  0.88817841970E-15 -0.83482166878E+02  0.46429824522E+03  0.45673141815E+03 0.  0.
      99925    2    3    3    0    0  0.96195464482E+02 -0.57498150588E+01 -0.11625579898E+03  0.30302751997E+03  0.26272350352E+03 0.  0.
         25    1    4    4    0    0  0.15197347855E+02 -0.28056609470E+02 -0.56767738243E+02  0.14102558960E+03  0.12509000000E+03 0.  0.
         25    1    4    4    0    0  0.80998116626E+02  0.22306794411E+02 -0.59488060734E+02  0.16200193037E+03  0.12509000000E+03 0.  0.
         25    1    3    3    0    0 -0.96195464482E+02  0.57498150588E+01  0.32773632099E+02  0.16127072524E+03  0.12509000000E+03 0.  0.
<mgrwt>
<rscale>  2 0.45673142E+03</rscale>
<asrwt>0</asrwt>
<pdfrwt beam="1">  1       21 0.28001182E-01 0.45673142E+03</pdfrwt>
<pdfrwt beam="2">  1       21 0.40277971E-01 0.45673142E+03</pdfrwt>
<totfact> 0.66936225E+04</totfact>
</mgrwt>
</event>
<event>
 7    0  0.4737014E-002  0.4525748E+03  0.7546771E-02  0.1026957E+00
         21   -1    0    0  502  501  0.00000000000E+00  0.00000000000E+00  0.10763992700E+03  0.10763992700E+03  0.00000000000E+00 0.  1.
         21   -1    0    0  501  502 -0.00000000000E+00 -0.00000000000E+00 -0.47571553814E+03  0.47571553814E+03  0.00000000000E+00 0.  1.
      99926    2    1    2    0    0  0.00000000000E+00  0.00000000000E+00 -0.36807561114E+03  0.58335546513E+03  0.45257479292E+03 0.  0.
      99925    2    3    3    0    0  0.79169642187E+02 -0.48646308845E+02 -0.31010480858E+03  0.41709537474E+03  0.26300050136E+03 0.  0.
         25    1    4    4    0    0  0.39226952661E+02  0.82698756691E+01 -0.11151148455E+03  0.17230630849E+03  0.12509000000E+03 0.  0.
         25    1    3    3    0    0 -0.79169642187E+02  0.48646308845E+02 -0.57970802560E+02  0.16626009039E+03  0.12509000000E+03 0.  0.
         25    1    4    4    0    0  0.39942689526E+02 -0.56916184514E+02 -0.19859332403E+03  0.24478906625E+03  0.12509000000E+03 0.  0.
<mgrwt>
<rscale>  2 0.45257479E+03</rscale>
<asrwt>0</asrwt>
<pdfrwt beam="1">  1       21 0.15829401E-01 0.45257479E+03</pdfrwt>
<pdfrwt beam="2">  1       21 0.69958168E-01 0.45257479E+03</pdfrwt>
<totfact> 0.60873296E+04</totfact>
</mgrwt>
</event>
<event>
 7    0  0.4737014E-002  0.4565760E+03  0.7546771E-02  0.1025779E+00
         21   -1    0    0  502  501  0.00000000000E+00  0.00000000000E+00  0.54090259079E+03  0.54090259079E+03  0.00000000000E+00 0. -1.
         21   -1    0    0  501  502 -0.00000000000E+00 -0.00000000000E+00 -0.96348964472E+02  0.96348964472E+02  0.00000000000E+00 0. -1.
      99926    2    1    2    0    0  0.00000000000E+00  0.00000000000E+00  0.44455362631E+03  0.63725155526E+03  0.45657597178E+03 0.  0.
      99925    2    3    3    0    0  0.76076248909E+02  0.29702831503E+02  0.39169377339E+03  0.47878538853E+03  0.26294786994E+03 0.  0.
         25    1    4    4    0    0  0.25892321689E+02  0.45715675160E+02  0.23613400150E+03  0.27233639133E+03  0.12509000000E+03 0.  0.
         25    1    3    3    0    0 -0.76076248909E+02 -0.29702831503E+02  0.52859852923E+02  0.15846616673E+03  0.12509000000E+03 0.  0.
         25    1    4    4    0    0  0.50183927219E+02 -0.16012843657E+02  0.15555977189E+03  0.20644899720E+03  0.12509000000E+03 0.  0.
<mgrwt>
<rscale>  2 0.45657597E+03</rscale>
<asrwt>0</asrwt>
<pdfrwt beam="1">  1       21 0.79544498E-01 0.45657597E+03</pdfrwt>
<pdfrwt beam="2">  1       21 0.14168966E-01 0.45657597E+03</pdfrwt>
<totfact> 0.55745359E+04</totfact>
</mgrwt>
</event>
<event>
 7    0  0.4737014E-002  0.4530478E+03  0.7546771E-02  0.1026817E+00
         21   -1    0    0  502  501  0.00000000000E+00  0.00000000000E+00  0.28116417051E+03  0.28116417051E+03  0.00000000000E+00 0. -1.
         21   -1    0    0  501  502 -0.00000000000E+00 -0.00000000000E+00 -0.18250220510E+03  0.18250220510E+03  0.00000000000E+00 0. -1.
      99926    2    1    2    0    0  0.14210854715E-13  0.00000000000E+00  0.98661965406E+02  0.46366637561E+03  0.45304781696E+03 0.  0.
      99925    2    3    3    0    0 -0.65065350976E+02  0.70443542011E+02  0.43191821567E+01  0.27997135292E+03  0.26300097075E+03 0.  0.
         25    1    3    3    0    0  0.65065350976E+02 -0.70443542011E+02  0.94342783250E+02  0.18369502269E+03  0.12509000000E+03 0.  0.
         25    1    4    4    0    0 -0.68283072034E+02  0.40519300600E+02 -0.18471300769E+02  0.14930870269E+03  0.12509000000E+03 0.  0.
         25    1    4    4    0    0  0.32177210574E+01  0.29924241411E+02  0.22790482926E+02  0.13066265023E+03  0.12509000000E+03 0.  0.
<mgrwt>
<rscale>  2 0.45304782E+03</rscale>
<asrwt>0</asrwt>
<pdfrwt beam="1">  1       21 0.41347672E-01 0.45304782E+03</pdfrwt>
<pdfrwt beam="2">  1       21 0.26838559E-01 0.45304782E+03</pdfrwt>
<totfact> 0.68972070E+04</totfact>
</mgrwt>
</event>
<event>
 7    0  0.4737014E-002  0.4432664E+03  0.7546771E-02  0.1029749E+00
         21   -1    0    0  502  501  0.00000000000E+00  0.00000000000E+00  0.64974004722E+03  0.64974004722E+03  0.00000000000E+00 0.  1.
         21   -1    0    0  501  502 -0.00000000000E+00 -0.00000000000E+00 -0.75601425682E+02  0.75601425682E+02  0.00000000000E+00 0.  1.
      99926    2    1    2    0    0  0.00000000000E+00 -0.14210854715E-13  0.57413862153E+03  0.72534147290E+03  0.44326639346E+03 0.  0.
      99925    2    3    3    0    0 -0.16821851111E+02  0.85038581675E+02  0.27867933663E+03  0.39298890080E+03  0.26317972649E+03 0.  0.
         25    1    4    4    0    0 -0.27720251977E+02  0.71333448069E+02  0.11568294199E+03  0.18678041747E+03  0.12509000000E+03 0.  0.
         25    1    4    4    0    0  0.10898400867E+02  0.13705133606E+02  0.16299639465E+03  0.20620848333E+03  0.12509000000E+03 0.  0.
         25    1    3    3    0    0  0.16821851111E+02 -0.85038581675E+02  0.29545928490E+03  0.33235257210E+03  0.12509000000E+03 0.  0.
<mgrwt>
<rscale>  2 0.44326639E+03</rscale>
<asrwt>0</asrwt>
<pdfrwt beam="1">  1       21 0.95550004E-01 0.44326639E+03</pdfrwt>
<pdfrwt beam="2">  1       21 0.11117857E-01 0.44326639E+03</pdfrwt>
<totfact> 0.56592851E+04</totfact>
</mgrwt>
</event>
<event>
 7    0  0.4737014E-002  0.4491356E+03  0.7546771E-02  0.1027980E+00
         21   -1    0    0  502  501  0.00000000000E+00  0.00000000000E+00  0.53304604474E+03  0.53304604474E+03  0.00000000000E+00 0.  1.
         21   -1    0    0  501  502 -0.00000000000E+00 -0.00000000000E+00 -0.94608509192E+02  0.94608509192E+02  0.00000000000E+00 0.  1.
      99926    2    1    2    0    0  0.00000000000E+00 -0.14210854715E-13  0.43843753554E+03  0.62765455393E+03  0.44913557696E+03 0.  0.
      99925    2    3    3    0    0  0.10122433752E+02  0.98727412080E+02  0.21917312183E+03  0.35640935714E+03  0.26294715621E+03 0.  0.
         25    1    4    4    0    0  0.44924385905E+01  0.15022474683E+02  0.13133349257E+03  0.18204903493E+03  0.12509000000E+03 0.  0.
         25    1    4    4    0    0  0.56299951610E+01  0.83704937396E+02  0.87839629263E+02  0.17436032220E+03  0.12509000000E+03 0.  0.
         25    1    3    3    0    0 -0.10122433752E+02 -0.98727412080E+02  0.21926441371E+03  0.27124519679E+03  0.12509000000E+03 0.  0.
<mgrwt>
<rscale>  2 0.44913558E+03</rscale>
<asrwt>0</asrwt>
<pdfrwt beam="1">  1       21 0.78389123E-01 0.44913558E+03</pdfrwt>
<pdfrwt beam="2">  1       21 0.13913016E-01 0.44913558E+03</pdfrwt>
<totfact> 0.59724890E+04</totfact>
</mgrwt>
</event>
<event>
 7    0  0.4737014E-002  0.4336734E+03  0.7546771E-02  0.1032706E+00
         21   -1    0    0  502  501  0.00000000000E+00  0.00000000000E+00  0.58743416442E+03  0.58743416442E+03  0.00000000000E+00 0.  1.
         21   -1    0    0  501  502 -0.00000000000E+00 -0.00000000000E+00 -0.80039886525E+02  0.80039886525E+02  0.00000000000E+00 0.  1.
      99926    2    1    2    0    0  0.17763568394E-14  0.00000000000E+00  0.50739427790E+03  0.66747405095E+03  0.43367344332E+03 0.  0.
      99925    2    3    3    0    0 -0.12531673683E+02  0.43346986154E+02  0.44882613718E+03  0.52216837569E+03  0.26301883412E+03 0.  0.
         25    1    4    4    0    0  0.13375453027E+02  0.57190537016E+02  0.22308545538E+03  0.26242006168E+03  0.12509000000E+03 0.  0.
         25    1    3    3    0    0  0.12531673683E+02 -0.43346986154E+02  0.58568140714E+02  0.14530567525E+03  0.12509000000E+03 0.  0.
         25    1    4    4    0    0 -0.25907126709E+02 -0.13843550863E+02  0.22574068180E+03  0.25974831402E+03  0.12509000000E+03 0.  0.
<mgrwt>
<rscale>  2 0.43367344E+03</rscale>
<asrwt>0</asrwt>
<pdfrwt beam="1">  1       21 0.86387375E-01 0.43367344E+03</pdfrwt>
<pdfrwt beam="2">  1       21 0.11770572E-01 0.43367344E+03</pdfrwt>
<totfact> 0.64947468E+04</totfact>
</mgrwt>
</event>
<event>
 7    0  0.4737014E-002  0.4587546E+03  0.7546771E-02  0.1025143E+00
         21   -1    0    0  502  501  0.00000000000E+00  0.00000000000E+00  0.32541258382E+03  0.32541258382E+03  0.00000000000E+00 0. -1.
         21   -1    0    0  501  502 -0.00000000000E+00 -0.00000000000E+00 -0.16168384178E+03  0.16168384178E+03  0.00000000000E+00 0. -1.
      99926    2    1    2    0    0  0.00000000000E+00  0.00000000000E+00  0.16372874205E+03  0.48709642560E+03  0.45875464778E+03 0.  0.
      99925    2    3    3    0    0  0.55961325120E+02  0.54764456566E+02  0.19458770340E+03  0.33632972103E+03  0.26291156559E+03 0.  0.
         25    1    4    4    0    0  0.31696314894E+02  0.52553034807E+02  0.62255242241E+02  0.15260963643E+03  0.12509000000E+03 0.  0.
         25    1    3    3    0    0 -0.55961325120E+02 -0.54764456566E+02 -0.30858961354E+02  0.15076670457E+03  0.12509000000E+03 0.  0.
         25    1    4    4    0    0  0.24265010226E+02  0.22114217589E+01  0.13233246116E+03  0.18372008460E+03  0.12509000000E+03 0.  0.
<mgrwt>
<rscale>  2 0.45875465E+03</rscale>
<asrwt>0</asrwt>
<pdfrwt beam="1">  1       21 0.47854792E-01 0.45875465E+03</pdfrwt>
<pdfrwt beam="2">  1       21 0.23777036E-01 0.45875465E+03</pdfrwt>
<totfact> 0.64250560E+04</totfact>
</mgrwt>
</event>
<event>
 7    0  0.4737014E-002  0.4511240E+03  0.7546771E-02  0.1027387E+00
         21   -1    0    0  502  501  0.00000000000E+00  0.00000000000E+00  0.57958281125E+03  0.57958281125E+03  0.00000000000E+00 0.  1.
         21   -1    0    0  501  502 -0.00000000000E+00 -0.00000000000E+00 -0.87784219761E+02  0.87784219761E+02  0.00000000000E+00 0.  1.
      99926    2    1    2    0    0 -0.14210854715E-13  0.00000000000E+00  0.49179859149E+03  0.66736703101E+03  0.45112404003E+03 0.  0.
      99925    2    3    3    0    0 -0.99165858418E+02  0.35358563253E+02  0.26591932404E+03  0.38852469736E+03  0.26297197206E+03 0.  0.
         25    1    3    3    0    0  0.99165858418E+02 -0.35358563253E+02  0.22587926745E+03  0.27884233365E+03  0.12509000000E+03 0.  0.
         25    1    4    4    0    0 -0.26374639970E+02 -0.39704108207E+01  0.85208692746E+02  0.15368609311E+03  0.12509000000E+03 0.  0.
         25    1    4    4    0    0 -0.72791218448E+02  0.39328974073E+02  0.18071063129E+03  0.23483860425E+03  0.12509000000E+03 0.  0.
<mgrwt>
<rscale>  2 0.45112404E+03</rscale>
<asrwt>0</asrwt>
<pdfrwt beam="1">  1       21 0.85232765E-01 0.45112404E+03</pdfrwt>
<pdfrwt beam="2">  1       21 0.12909444E-01 0.45112404E+03</pdfrwt>
<totfact> 0.56414812E+04</totfact>
</mgrwt>
</event>
<event>
 7    0  0.4737014E-002  0.4550033E+03  0.7546771E-02  0.1026240E+00
         21   -1    0    0  502  501  0.00000000000E+00  0.00000000000E+00  0.55244422425E+02  0.55244422425E+02  0.00000000000E+00 0. -1.
         21   -1    0    0  501  502 -0.00000000000E+00 -0.00000000000E+00 -0.93687287977E+03  0.93687287977E+03  0.00000000000E+00 0. -1.
      99926    2    1    2    0    0  0.71054273576E-14  0.00000000000E+00 -0.88162845735E+03  0.99211730220E+03  0.45500330165E+03 0.  0.
      99925    2    3    3    0    0 -0.54220900182E+02 -0.77225601588E+02 -0.42012483542E+03  0.50473982969E+03  0.26335094224E+03 0.  0.
         25    1    4    4    0    0  0.12404479629E+02 -0.50635532104E+02 -0.20003638577E+03  0.24161931206E+03  0.12509000000E+03 0.  0.
         25    1    3    3    0    0  0.54220900182E+02  0.77225601588E+02 -0.46150362193E+03  0.48737747251E+03  0.12509000000E+03 0.  0.
         25    1    4    4    0    0 -0.66625379811E+02 -0.26590069484E+02 -0.22008844965E+03  0.26312051763E+03  0.12509000000E+03 0.  0.
<mgrwt>
<rscale>  2 0.45500330E+03</rscale>
<asrwt>0</asrwt>
<pdfrwt beam="1">  1       21 0.81241804E-02 0.45500330E+03</pdfrwt>
<pdfrwt beam="2">  1       21 0.13777541E+00 0.45500330E+03</pdfrwt>
<totfact> 0.39473753E+04</totfact>
</mgrwt>
</event>
<event>
 7    0  0.4737014E-002  0.4000047E+03  0.7546771E-02  0.1043778E+00
         21   -1    0    0  502  501  0.00000000000E+00  0.00000000000E+00  0.40089872505E+03  0.40089872505E+03  0.00000000000E+00 0. -1.
         21   -1    0    0  501  502 -0.00000000000E+00 -0.00000000000E+00 -0.99778162318E+02  0.99778162318E+02  0.00000000000E+00 0. -1.
      99926    2    1    2    0    0  0.17763568394E-14  0.00000000000E+00  0.30112056273E+03  0.50067688737E+03  0.40000469028E+03 0.  0.
      99925    2    3    3    0    0 -0.77290897787E+01  0.33812783821E+02  0.23778403225E+03  0.35623981674E+03  0.26298767625E+03 0.  0.
         25    1    3    3    0    0  0.77290897787E+01 -0.33812783821E+02  0.63336530477E+02  0.14443707063E+03  0.12509000000E+03 0.  0.
         25    1    4    4    0    0 -0.25765915183E+02 -0.10350927829E+02  0.88548895427E+02  0.15575441911E+03  0.12509000000E+03 0.  0.
         25    1    4    4    0    0  0.18036825404E+02  0.44163711650E+02  0.14923513683E+03  0.20048539763E+03  0.12509000000E+03 0.  0.
<mgrwt>
<rscale>  2 0.40000469E+03</rscale>
<asrwt>0</asrwt>
<pdfrwt beam="1">  1       21 0.58955694E-01 0.40000469E+03</pdfrwt>
<pdfrwt beam="2">  1       21 0.14673259E-01 0.40000469E+03</pdfrwt>
<totfact> 0.10349411E+05</totfact>
</mgrwt>
</event>
<event>
 7    0  0.4737014E-002  0.4557016E+03  0.7546771E-02  0.1026035E+00
         21   -1    0    0  502  501  0.00000000000E+00  0.00000000000E+00  0.95022915404E+03  0.95022915404E+03  0.00000000000E+00 0.  1.
         21   -1    0    0  501  502 -0.00000000000E+00 -0.00000000000E+00 -0.54635229989E+02  0.54635229989E+02  0.00000000000E+00 0.  1.
      99926    2    1    2    0    0  0.00000000000E+00  0.00000000000E+00  0.89559392405E+03  0.10048643840E+04  0.45570160576E+03 0.  0.
      99925    2    3    3    0    0  0.93349710982E+02 -0.50611622150E+02  0.47152841726E+03  0.55016144035E+03  0.26279813038E+03 0.  0.
         25    1    3    3    0    0 -0.93349710982E+02  0.50611622150E+02  0.42406550680E+03  0.45470294368E+03  0.12509000000E+03 0.  0.
         25    1    4    4    0    0  0.52267983889E+02 -0.38685347490E+02  0.31609558072E+03  0.34611041952E+03  0.12509000000E+03 0.  0.
         25    1    4    4    0    0  0.41081727093E+02 -0.11926274660E+02  0.15543283654E+03  0.20405102083E+03  0.12509000000E+03 0.  0.
<mgrwt>
<rscale>  2 0.45570161E+03</rscale>
<asrwt>0</asrwt>
<pdfrwt beam="1">  1       21 0.13973957E+00 0.45570161E+03</pdfrwt>
<pdfrwt beam="2">  1       21 0.80345932E-02 0.45570161E+03</pdfrwt>
<totfact> 0.38765292E+04</totfact>
</mgrwt>
</event>
<event>
 7    0  0.4737014E-002  0.3997394E+03  0.7546771E-02  0.1043870E+00
         21   -1    0    0  502  501  0.00000000000E+00  0.00000000000E+00  0.18779926067E+03  0.18779926067E+03  0.00000000000E+00 0.  1.
         21   -1    0    0  501  502 -0.00000000000E+00 -0.00000000000E+00 -0.21271592702E+03  0.21271592702E+03  0.00000000000E+00 0.  1.
      99926    2    1    2    0    0  0.71054273576E-14  0.35527136788E-14 -0.24916666345E+02  0.40051518769E+03  0.39973938423E+03 0.  0.
      99925    2    3    3    0    0  0.37413617736E+02  0.20419130073E+02 -0.24636368411E+01  0.26646905272E+03  0.26302655168E+03 0.  0.
         25    1    4    4    0    0 -0.17354747373E+02  0.19420721803E+02  0.15600283015E+02  0.12872151577E+03  0.12509000000E+03 0.  0.
         25    1    4    4    0    0  0.54768365109E+02  0.99840826986E+00 -0.18063919856E+02  0.13774753695E+03  0.12509000000E+03 0.  0.
         25    1    3    3    0    0 -0.37413617736E+02 -0.20419130073E+02 -0.22453029504E+02  0.13404613496E+03  0.12509000000E+03 0.  0.
<mgrwt>
<rscale>  2 0.39973938E+03</rscale>
<asrwt>0</asrwt>
<pdfrwt beam="1">  1       21 0.27617539E-01 0.39973938E+03</pdfrwt>
<pdfrwt beam="2">  1       21 0.31281754E-01 0.39973938E+03</pdfrwt>
<totfact> 0.11607873E+05</totfact>
</mgrwt>
</event>
<event>
 7    0  0.4737014E-002  0.4480499E+03  0.7546771E-02  0.1028305E+00
         21   -1    0    0  502  501  0.00000000000E+00  0.00000000000E+00  0.36821731233E+03  0.36821731233E+03  0.00000000000E+00 0. -1.
         21   -1    0    0  501  502 -0.00000000000E+00 -0.00000000000E+00 -0.13629774443E+03  0.13629774443E+03  0.00000000000E+00 0. -1.
      99926    2    1    2    0    0  0.00000000000E+00 -0.35527136788E-14  0.23191956790E+03  0.50451505676E+03  0.44804994869E+03 0.  0.
      99925    2    3    3    0    0 -0.74404991963E+02 -0.23108296884E+02  0.64869454631E+02  0.28175207811E+03  0.26288037424E+03 0.  0.
         25    1    4    4    0    0 -0.72371482247E+02  0.95850586072E+01  0.31851948472E+02  0.14829551414E+03  0.12509000000E+03 0.  0.
         25    1    4    4    0    0 -0.20335097156E+01 -0.32693355491E+02  0.33017506159E+02  0.13345656397E+03  0.12509000000E+03 0.  0.
         25    1    3    3    0    0  0.74404991963E+02  0.23108296884E+02  0.16705011327E+03  0.22276297865E+03  0.12509000000E+03 0.  0.
<mgrwt>
<rscale>  2 0.44804995E+03</rscale>
<asrwt>0</asrwt>
<pdfrwt beam="1">  1       21 0.54149605E-01 0.44804995E+03</pdfrwt>
<pdfrwt beam="2">  1       21 0.20043786E-01 0.44804995E+03</pdfrwt>
<totfact> 0.68664688E+04</totfact>
</mgrwt>
</event>
<event>
 7    0  0.4737014E-002  0.4548223E+03  0.7546771E-02  0.1026294E+00
         21   -1    0    0  502  501  0.00000000000E+00  0.00000000000E+00  0.94562545509E+02  0.94562545509E+02  0.00000000000E+00 0.  1.
         21   -1    0    0  501  502 -0.00000000000E+00 -0.00000000000E+00 -0.54689542186E+03  0.54689542186E+03  0.00000000000E+00 0.  1.
      99926    2    1    2    0    0  0.00000000000E+00  0.00000000000E+00 -0.45233287635E+03  0.64145796737E+03  0.45482226515E+03 0.  0.
      99925    2    3    3    0    0 -0.28836827758E+02 -0.10495209525E+03 -0.32717814955E+03  0.43371360842E+03  0.26308828871E+03 0.  0.
         25    1    3    3    0    0  0.28836827758E+02  0.10495209525E+03 -0.12515472680E+03  0.20774435895E+03  0.12509000000E+03 0.  0.
         25    1    4    4    0    0 -0.23782886134E+02 -0.10367169364E+02 -0.15112310641E+03  0.19788583897E+03  0.12509000000E+03 0.  0.
         25    1    4    4    0    0 -0.50539416239E+01 -0.94584925889E+02 -0.17605504314E+03  0.23582776946E+03  0.12509000000E+03 0.  0.
<mgrwt>
<rscale>  2 0.45482227E+03</rscale>
<asrwt>0</asrwt>
<pdfrwt beam="1">  1       21 0.13906257E-01 0.45482227E+03</pdfrwt>
<pdfrwt beam="2">  1       21 0.80425796E-01 0.45482227E+03</pdfrwt>
<totfact> 0.56275182E+04</totfact>
</mgrwt>
</event>
<event>
 7    0  0.4737014E-002  0.4542931E+03  0.7546771E-02  0.1026449E+00
         21   -1    0    0  502  501  0.00000000000E+00  0.00000000000E+00  0.53829893586E+02  0.53829893586E+02  0.00000000000E+00 0. -1.
         21   -1    0    0  501  502 -0.00000000000E+00 -0.00000000000E+00 -0.95849241196E+03  0.95849241196E+03  0.00000000000E+00 0. -1.
      99926    2    1    2    0    0  0.00000000000E+00 -0.44408920985E-15 -0.90466251837E+03  0.10123223055E+04  0.45429305316E+03 0.  0.
      99925    2    3    3    0    0 -0.64045130087E+02  0.26385676157E+01 -0.36388582514E+03  0.45357756886E+03  0.26307979115E+03 0.  0.
         25    1    4    4    0    0 -0.63055503512E+02 -0.18543216907E+02 -0.22282891720E+03  0.26385617647E+03  0.12509000000E+03 0.  0.
         25    1    3    3    0    0  0.64045130087E+02 -0.26385676157E+01 -0.54077669323E+03  0.55874473668E+03  0.12509000000E+03 0.  0.
         25    1    4    4    0    0 -0.98962657439E+00  0.21181784523E+02 -0.14105690794E+03  0.18972139240E+03  0.12509000000E+03 0.  0.
<mgrwt>
<rscale>  2 0.45429305E+03</rscale>
<asrwt>0</asrwt>
<pdfrwt beam="1">  1       21 0.79161605E-02 0.45429305E+03</pdfrwt>
<pdfrwt beam="2">  1       21 0.14095477E+00 0.45429305E+03</pdfrwt>
<totfact> 0.38905211E+04</totfact>
</mgrwt>
</event>
<event>
 7    0  0.4737014E-002  0.4564767E+03  0.7546771E-02  0.1025808E+00
         21   -1    0    0  502  501  0.00000000000E+00  0.00000000000E+00  0.49147769471E+02  0.49147769471E+02  0.00000000000E+00 0.  1.
         21   -1    0    0  501  502 -0.00000000000E+00 -0.00000000000E+00 -0.10599208012E+04  0.10599208012E+04  0.00000000000E+00 0.  1.
      99926    2    1    2    0    0  0.00000000000E+00  0.14210854715E-13 -0.10107730317E+04  0.11090685706E+04  0.45647669466E+03 0.  0.
      99925    2    3    3    0    0  0.65510818926E+02 -0.64634339218E+02 -0.80130750419E+03  0.84831470103E+03  0.26282094761E+03 0.  0.
         25    1    4    4    0    0 -0.28712236646E+01 -0.44135771986E+02 -0.43202097590E+03  0.45193566136E+03  0.12509000000E+03 0.  0.
         25    1    4    4    0    0  0.68382042591E+02 -0.20498567233E+02 -0.36928652830E+03  0.39637903967E+03  0.12509000000E+03 0.  0.
         25    1    3    3    0    0 -0.65510818926E+02  0.64634339218E+02 -0.20946552749E+03  0.26075386960E+03  0.12509000000E+03 0.  0.
<mgrwt>
<rscale>  2 0.45647669E+03</rscale>
<asrwt>0</asrwt>
<pdfrwt beam="1">  1       21 0.72276140E-02 0.45647669E+03</pdfrwt>
<pdfrwt beam="2">  1       21 0.15587069E+00 0.45647669E+03</pdfrwt>
<totfact> 0.34776490E+04</totfact>
</mgrwt>
</event>
<event>
 7    0  0.4737014E-002  0.4669233E+03  0.7546771E-02  0.1022792E+00
         21   -1    0    0  502  501  0.00000000000E+00  0.00000000000E+00  0.95915306185E+02  0.95915306185E+02  0.00000000000E+00 0. -1.
         21   -1    0    0  501  502 -0.00000000000E+00 -0.00000000000E+00 -0.56825495371E+03  0.56825495371E+03  0.00000000000E+00 0. -1.
      99926    2    1    2    0    0  0.00000000000E+00 -0.14210854715E-13 -0.47233964753E+03  0.66417025990E+03  0.46692332508E+03 0.  0.
      99925    2    3    3    0    0 -0.95087381441E+01  0.11088694980E+03 -0.37230757387E+03  0.46913114690E+03  0.26283982137E+03 0.  0.
         25    1    4    4    0    0 -0.16482055804E+01  0.24195470079E+02 -0.12406172689E+03  0.17783969617E+03  0.12509000000E+03 0.  0.
         25    1    4    4    0    0 -0.78605325637E+01  0.86691479722E+02 -0.24824584698E+03  0.29129145074E+03  0.12509000000E+03 0.  0.
         25    1    3    3    0    0  0.95087381441E+01 -0.11088694980E+03 -0.10003207365E+03  0.19503911299E+03  0.12509000000E+03 0.  0.
<mgrwt>
<rscale>  2 0.46692333E+03</rscale>
<asrwt>0</asrwt>
<pdfrwt beam="1">  1       21 0.14105192E-01 0.46692333E+03</pdfrwt>
<pdfrwt beam="2">  1       21 0.83566905E-01 0.46692333E+03</pdfrwt>
<totfact> 0.50020198E+04</totfact>
</mgrwt>
</event>
<event>
 7    0  0.4737014E-002  0.3986186E+03  0.7546771E-02  0.1044259E+00
         21   -1    0    0  502  501  0.00000000000E+00  0.00000000000E+00  0.16940102743E+03  0.16940102743E+03  0.00000000000E+00 0.  1.
         21   -1    0    0  501  502 -0.00000000000E+00 -0.00000000000E+00 -0.23449796419E+03  0.23449796419E+03  0.00000000000E+00 0.  1.
      99926    2    1    2    0    0  0.35527136788E-14  0.00000000000E+00 -0.65096936760E+02  0.40389899161E+03  0.39861859496E+03 0.  0.
      99925    2    3    3    0    0  0.18542142853E+02 -0.35212785993E+02 -0.28049947202E+02  0.26750346788E+03  0.26303527222E+03 0.  0.
         25    1    3    3    0    0 -0.18542142853E+02  0.35212785993E+02 -0.37046989558E+02  0.13639552373E+03  0.12509000000E+03 0.  0.
         25    1    4    4    0    0  0.17629611715E+02 -0.48964960036E+02  0.10484683373E+02  0.13588895174E+03  0.12509000000E+03 0.  0.
         25    1    4    4    0    0  0.91253113792E+00  0.13752174043E+02 -0.38534630575E+02  0.13161451614E+03  0.12509000000E+03 0.  0.
<mgrwt>
<rscale>  2 0.39861859E+03</rscale>
<asrwt>0</asrwt>
<pdfrwt beam="1">  1       21 0.24911916E-01 0.39861859E+03</pdfrwt>
<pdfrwt beam="2">  1       21 0.34484994E-01 0.39861859E+03</pdfrwt>
<totfact> 0.11678992E+05</totfact>
</mgrwt>
</event>
<event>
 7    0  0.4737014E-002  0.4357405E+03  0.7546771E-02  0.1032062E+00
         21   -1    0    0  502  501  0.00000000000E+00  0.00000000000E+00  0.88461035190E+03  0.88461035190E+03  0.00000000000E+00 0. -1.
         21   -1    0    0  501  502 -0.00000000000E+00 -0.00000000000E+00 -0.53659157157E+02  0.53659157157E+02  0.00000000000E+00 0. -1.
      99926    2    1    2    0    0  0.00000000000E+00  0.71054273576E-14  0.83095119474E+03  0.93826950906E+03  0.43574050028E+03 0.  0.
      99925    2    3    3    0    0 -0.69202905161E+02  0.51594666683E+02  0.45198676997E+03  0.52996497191E+03  0.26290640827E+03 0.  0.
         25    1    4    4    0    0 -0.16505042754E+02 -0.69398187193E+01  0.17299428277E+03  0.21423143441E+03  0.12509000000E+03 0.  0.
         25    1    3    3    0    0  0.69202905161E+02 -0.51594666683E+02  0.37896442478E+03  0.40830453715E+03  0.12509000000E+03 0.  0.
         25    1    4    4    0    0 -0.52697862407E+02  0.58534485403E+02  0.27899248720E+03  0.31573353749E+03  0.12509000000E+03 0.  0.
<mgrwt>
<rscale>  2 0.43574050E+03</rscale>
<asrwt>0</asrwt>
<pdfrwt beam="1">  1       21 0.13008975E+00 0.43574050E+03</pdfrwt>
<pdfrwt beam="2">  1       21 0.78910531E-02 0.43574050E+03</pdfrwt>
<totfact> 0.48526669E+04</totfact>
</mgrwt>
</event>
<event>
 7    0  0.4737014E-002  0.4589203E+03  0.7546771E-02  0.1025095E+00
         21   -1    0    0  502  501  0.00000000000E+00  0.00000000000E+00  0.10377517978E+03  0.10377517978E+03  0.00000000000E+00 0. -1.
         21   -1    0    0  501  502 -0.00000000000E+00 -0.00000000000E+00 -0.50736557940E+03  0.50736557940E+03  0.00000000000E+00 0. -1.
      99926    2    1    2    0    0  0.00000000000E+00  0.00000000000E+00 -0.40359039961E+03  0.61114075918E+03  0.45892027289E+03 0.  0.
      99925    2    3    3    0    0  0.91289702746E+02  0.63756012330E+02 -0.20451430324E+03  0.35099188031E+03  0.26262246833E+03 0.  0.
         25    1    4    4    0    0  0.23523812860E+02  0.63930508881E+02 -0.91420320511E+02  0.16925029642E+03  0.12509000000E+03 0.  0.
         25    1    4    4    0    0  0.67765889886E+02 -0.17449655138E+00 -0.11309398273E+03  0.18174158388E+03  0.12509000000E+03 0.  0.
         25    1    3    3    0    0 -0.91289702746E+02 -0.63756012330E+02 -0.19907609637E+03  0.26014887888E+03  0.12509000000E+03 0.  0.
<mgrwt>
<rscale>  2 0.45892027E+03</rscale>
<asrwt>0</asrwt>
<pdfrwt beam="1">  1       21 0.15261056E-01 0.45892027E+03</pdfrwt>
<pdfrwt beam="2">  1       21 0.74612585E-01 0.45892027E+03</pdfrwt>
<totfact> 0.56235998E+04</totfact>
</mgrwt>
</event>
<event>
 7    0  0.4737014E-002  0.4579041E+03  0.7546771E-02  0.1025391E+00
         21   -1    0    0  502  501  0.00000000000E+00  0.00000000000E+00  0.48071723694E+02  0.48071723694E+02  0.00000000000E+00 0. -1.
         21   -1    0    0  501  502 -0.00000000000E+00 -0.00000000000E+00 -0.10904339895E+04  0.10904339895E+04  0.00000000000E+00 0. -1.
      99926    2    1    2    0    0  0.14210854715E-13  0.00000000000E+00 -0.10423622658E+04  0.11385057132E+04  0.45790410110E+03 0.  0.
      99925    2    3    3    0    0 -0.82404221482E+02  0.29081734784E+02 -0.46404323552E+03  0.54039484395E+03  0.26278177243E+03 0.  0.
         25    1    4    4    0    0 -0.77648509184E+02 -0.75630813183E+00 -0.22449070207E+03  0.26846498170E+03  0.12509000000E+03 0.  0.
         25    1    3    3    0    0  0.82404221482E+02 -0.29081734784E+02 -0.57831903029E+03  0.59811086925E+03  0.12509000000E+03 0.  0.
         25    1    4    4    0    0 -0.47557122981E+01  0.29838042915E+02 -0.23955253344E+03  0.27192986225E+03  0.12509000000E+03 0.  0.
<mgrwt>
<rscale>  2 0.45790410E+03</rscale>
<asrwt>0</asrwt>
<pdfrwt beam="1">  1       21 0.70693719E-02 0.45790410E+03</pdfrwt>
<pdfrwt beam="2">  1       21 0.16035792E+00 0.45790410E+03</pdfrwt>
<totfact> 0.33405852E+04</totfact>
</mgrwt>
</event>
<event>
 7    0  0.4737014E-002  0.4549179E+03  0.7546771E-02  0.1026266E+00
         21   -1    0    0  502  501  0.00000000000E+00  0.00000000000E+00  0.50817127764E+02  0.50817127764E+02  0.00000000000E+00 0. -1.
         21   -1    0    0  501  502 -0.00000000000E+00 -0.00000000000E+00 -0.10181131080E+04  0.10181131080E+04  0.00000000000E+00 0. -1.
      99926    2    1    2    0    0  0.00000000000E+00  0.00000000000E+00 -0.96729598028E+03  0.10689302358E+04  0.45491794377E+03 0.  0.
      99925    2    3    3    0    0 -0.10418358284E+03  0.42588549882E+02 -0.61009911630E+03  0.67408202288E+03  0.26362404736E+03 0.  0.
         25    1    4    4    0    0 -0.19165792752E+02  0.14466664361E+02 -0.21238998030E+03  0.24765626142E+03  0.12509000000E+03 0.  0.
         25    1    3    3    0    0  0.10418358284E+03 -0.42588549882E+02 -0.35719686398E+03  0.39484821293E+03  0.12509000000E+03 0.  0.
         25    1    4    4    0    0 -0.85017790092E+02  0.28121885521E+02 -0.39770913601E+03  0.42642576147E+03  0.12509000000E+03 0.  0.
<mgrwt>
<rscale>  2 0.45491794E+03</rscale>
<asrwt>0</asrwt>
<pdfrwt beam="1">  1       21 0.74731072E-02 0.45491794E+03</pdfrwt>
<pdfrwt beam="2">  1       21 0.14972251E+00 0.45491794E+03</pdfrwt>
<totfact> 0.36613805E+04</totfact>
</mgrwt>
</event>
<event>
 7    0  0.4737014E-002  0.4555637E+03  0.7546771E-02  0.1026076E+00
         21   -1    0    0  502  501  0.00000000000E+00  0.00000000000E+00  0.14514740976E+03  0.14514740976E+03  0.00000000000E+00 0. -1.
         21   -1    0    0  501  502 -0.00000000000E+00 -0.00000000000E+00 -0.35746117721E+03  0.35746117721E+03  0.00000000000E+00 0. -1.
      99926    2    1    2    0    0 -0.14210854715E-13 -0.14210854715E-13 -0.21231376745E+03  0.50260858698E+03  0.45556366828E+03 0.  0.
      99925    2    3    3    0    0 -0.78532835798E+02 -0.60781099548E+02 -0.72957462812E+02  0.29064293857E+03  0.26322761634E+03 0.  0.
         25    1    4    4    0    0 -0.13516261880E+02 -0.53243095801E+01 -0.57264534627E+02  0.13833933871E+03  0.12509000000E+03 0.  0.
         25    1    4    4    0    0 -0.65016573918E+02 -0.55456789968E+02 -0.15692928184E+02  0.15230359987E+03  0.12509000000E+03 0.  0.
         25    1    3    3    0    0  0.78532835798E+02  0.60781099548E+02 -0.13935630464E+03  0.21196564840E+03  0.12509000000E+03 0.  0.
<mgrwt>
<rscale>  2 0.45556367E+03</rscale>
<asrwt>0</asrwt>
<pdfrwt beam="1">  1       21 0.21345208E-01 0.45556367E+03</pdfrwt>
<pdfrwt beam="2">  1       21 0.52567820E-01 0.45556367E+03</pdfrwt>
<totfact> 0.64797382E+04</totfact>
</mgrwt>
</event>
<event>
 7    0  0.4737014E-002  0.4564383E+03  0.7546771E-02  0.1025819E+00
         21   -1    0    0  502  501  0.00000000000E+00  0.00000000000E+00  0.33901096590E+03  0.33901096590E+03  0.00000000000E+00 0. -1.
         21   -1    0    0  501  502 -0.00000000000E+00 -0.00000000000E+00 -0.15363512163E+03  0.15363512163E+03  0.00000000000E+00 0. -1.
      99926    2    1    2    0    0  0.00000000000E+00  0.14210854715E-13  0.18537584426E+03  0.49264608753E+03  0.45643834625E+03 0.  0.
      99925    2    3    3    0    0 -0.36385177515E+02  0.81068754006E+02  0.19427363343E+03  0.33894929911E+03  0.26315082881E+03 0.  0.
         25    1    4    4    0    0 -0.42638569523E+02  0.77588118537E+01  0.99721114874E+02  0.16574092924E+03  0.12509000000E+03 0.  0.
         25    1    3    3    0    0  0.36385177515E+02 -0.81068754006E+02 -0.88977891639E+01  0.15369678842E+03  0.12509000000E+03 0.  0.
         25    1    4    4    0    0  0.62533920084E+01  0.73309942152E+02  0.94552518552E+02  0.17320836987E+03  0.12509000000E+03 0.  0.
<mgrwt>
<rscale>  2 0.45643835E+03</rscale>
<asrwt>0</asrwt>
<pdfrwt beam="1">  1       21 0.49854554E-01 0.45643835E+03</pdfrwt>
<pdfrwt beam="2">  1       21 0.22593400E-01 0.45643835E+03</pdfrwt>
<totfact> 0.65044548E+04</totfact>
</mgrwt>
</event>
<event>
 7    0  0.4737014E-002  0.4534648E+03  0.7546771E-02  0.1026694E+00
         21   -1    0    0  502  501  0.00000000000E+00  0.00000000000E+00  0.86268295771E+03  0.86268295771E+03  0.00000000000E+00 0. -1.
         21   -1    0    0  501  502 -0.00000000000E+00 -0.00000000000E+00 -0.59590340887E+02  0.59590340887E+02  0.00000000000E+00 0. -1.
      99926    2    1    2    0    0  0.00000000000E+00  0.00000000000E+00  0.80309261682E+03  0.92227329860E+03  0.45346475730E+03 0.  0.
      99925    2    3    3    0    0 -0.11140411341E+02 -0.51477789693E+02  0.30471026247E+03  0.40574009461E+03  0.26268347630E+03 0.  0.
         25    1    4    4    0    0 -0.28406680748E+02 -0.53515360744E+02  0.13118745508E+03  0.19112427846E+03  0.12509000000E+03 0.  0.
         25    1    4    4    0    0  0.17266269407E+02  0.20375710508E+01  0.17352280739E+03  0.21461581614E+03  0.12509000000E+03 0.  0.
         25    1    3    3    0    0  0.11140411341E+02  0.51477789693E+02  0.49838235435E+03  0.51653320399E+03  0.12509000000E+03 0.  0.
<mgrwt>
<rscale>  2 0.45346476E+03</rscale>
<asrwt>0</asrwt>
<pdfrwt beam="1">  1       21 0.12686513E+00 0.45346476E+03</pdfrwt>
<pdfrwt beam="2">  1       21 0.87632860E-02 0.45346476E+03</pdfrwt>
<totfact> 0.42796113E+04</totfact>
</mgrwt>
</event>
<event>
 7    0  0.4737014E-002  0.4624999E+03  0.7546771E-02  0.1024059E+00
         21   -1    0    0  502  501  0.00000000000E+00  0.00000000000E+00  0.10089351110E+03  0.10089351110E+03  0.00000000000E+00 0.  1.
         21   -1    0    0  501  502 -0.00000000000E+00 -0.00000000000E+00 -0.53002949744E+03  0.53002949744E+03  0.00000000000E+00 0.  1.
      99926    2    1    2    0    0  0.00000000000E+00  0.00000000000E+00 -0.42913598634E+03  0.63092300855E+03  0.46249988967E+03 0.  0.
      99925    2    3    3    0    0 -0.87659626001E+02 -0.58710182711E+02 -0.34644031068E+03  0.44757312865E+03  0.26300137080E+03 0.  0.
         25    1    4    4    0    0 -0.77917975356E+02 -0.33442151178E+02 -0.14858845507E+03  0.21193306830E+03  0.12509000000E+03 0.  0.
         25    1    3    3    0    0  0.87659626001E+02  0.58710182711E+02 -0.82695675664E+02  0.18334987990E+03  0.12509000000E+03 0.  0.
         25    1    4    4    0    0 -0.97416506456E+01 -0.25268031533E+02 -0.19785185560E+03  0.23564006035E+03  0.12509000000E+03 0.  0.
<mgrwt>
<rscale>  2 0.46249989E+03</rscale>
<asrwt>0</asrwt>
<pdfrwt beam="1">  1       21 0.14837281E-01 0.46249989E+03</pdfrwt>
<pdfrwt beam="2">  1       21 0.77945515E-01 0.46249989E+03</pdfrwt>
<totfact> 0.53571227E+04</totfact>
</mgrwt>
</event>
<event>
 7    0  0.4737014E-002  0.4556444E+03  0.7546771E-02  0.1026052E+00
         21   -1    0    0  502  501  0.00000000000E+00  0.00000000000E+00  0.14766840247E+04  0.14766840247E+04  0.00000000000E+00 0. -1.
         21   -1    0    0  501  502 -0.00000000000E+00 -0.00000000000E+00 -0.35148321033E+02  0.35148321033E+02  0.00000000000E+00 0. -1.
      99926    2    1    2    0    0  0.00000000000E+00 -0.71054273576E-14  0.14415357036E+04  0.15118323457E+04  0.45564444104E+03 0.  0.
      99925    2    3    3    0    0 -0.73894974906E+02  0.51194941993E+02  0.11377428121E+04  0.11712166995E+04  0.26307501069E+03 0.  0.
         25    1    3    3    0    0  0.73894974906E+02 -0.51194941993E+02  0.30379289149E+03  0.34061564618E+03  0.12509000000E+03 0.  0.
         25    1    4    4    0    0 -0.21884000464E+02  0.32629910653E+02  0.40096896233E+03  0.42186163300E+03  0.12509000000E+03 0.  0.
         25    1    4    4    0    0 -0.52010974442E+02  0.18565031340E+02  0.73677384980E+03  0.74935506651E+03  0.12509000000E+03 0.  0.
<mgrwt>
<rscale>  2 0.45564444E+03</rscale>
<asrwt>0</asrwt>
<pdfrwt beam="1">  1       21 0.21715937E+00 0.45564444E+03</pdfrwt>
<pdfrwt beam="2">  1       21 0.51688717E-02 0.45564444E+03</pdfrwt>
<totfact> 0.23373402E+04</totfact>
</mgrwt>
</event>
<event>
 7    0  0.4737014E-002  0.4613556E+03  0.7546771E-02  0.1024389E+00
         21   -1    0    0  502  501  0.00000000000E+00  0.00000000000E+00  0.15739565188E+03  0.15739565188E+03  0.00000000000E+00 0.  1.
         21   -1    0    0  501  502 -0.00000000000E+00 -0.00000000000E+00 -0.33807947130E+03  0.33807947130E+03  0.00000000000E+00 0.  1.
      99926    2    1    2    0    0  0.00000000000E+00  0.00000000000E+00 -0.18068381943E+03  0.49547512318E+03  0.46135556255E+03 0.  0.
      99925    2    3    3    0    0  0.88666013005E+02 -0.64679307757E+02 -0.63844108065E+02  0.29214263447E+03  0.26310867342E+03 0.  0.
         25    1    3    3    0    0 -0.88666013005E+02  0.64679307757E+02 -0.11683971136E+03  0.20333248871E+03  0.12509000000E+03 0.  0.
         25    1    4    4    0    0  0.39804815463E+02 -0.62423795834E+02 -0.61438568237E+02  0.15780798265E+03  0.12509000000E+03 0.  0.
         25    1    4    4    0    0  0.48861197542E+02 -0.22555119233E+01 -0.24055398282E+01  0.13433465183E+03  0.12509000000E+03 0.  0.
<mgrwt>
<rscale>  2 0.46135556E+03</rscale>
<asrwt>0</asrwt>
<pdfrwt beam="1">  1       21 0.23146420E-01 0.46135556E+03</pdfrwt>
<pdfrwt beam="2">  1       21 0.49717569E-01 0.46135556E+03</pdfrwt>
<totfact> 0.62382343E+04</totfact>
</mgrwt>
</event>
<event>
 7    0  0.4737014E-002  0.4705491E+03  0.7546771E-02  0.1021765E+00
         21   -1    0    0  502  501  0.00000000000E+00  0.00000000000E+00  0.59263539907E+03  0.59263539907E+03  0.00000000000E+00 0.  1.
         21   -1    0    0  501  502 -0.00000000000E+00 -0.00000000000E+00 -0.93403329248E+02  0.93403329248E+02  0.00000000000E+00 0.  1.
      99926    2    1    2    0    0  0.00000000000E+00  0.00000000000E+00  0.49923206982E+03  0.68603872831E+03  0.47054912306E+03 0.  0.
      99925    2    3    3    0    0 -0.37734955669E+02 -0.75683067905E+02  0.44845735521E+03  0.52673576729E+03  0.26302987559E+03 0.  0.
         25    1    3    3    0    0  0.37734955669E+02  0.75683067905E+02  0.50774714604E+02  0.15930296102E+03  0.12509000000E+03 0.  0.
         25    1    4    4    0    0  0.10746198625E+02 -0.75513669903E+01  0.19932580429E+03  0.23569214727E+03  0.12509000000E+03 0.  0.
         25    1    4    4    0    0 -0.48481154294E+02 -0.68131700915E+02  0.24913155093E+03  0.29104362003E+03  0.12509000000E+03 0.  0.
<mgrwt>
<rscale>  2 0.47054912E+03</rscale>
<asrwt>0</asrwt>
<pdfrwt beam="1">  1       21 0.87152262E-01 0.47054912E+03</pdfrwt>
<pdfrwt beam="2">  1       21 0.13735784E-01 0.47054912E+03</pdfrwt>
<totfact> 0.47567033E+04</totfact>
</mgrwt>
</event>
<event>
 7    0  0.4737014E-002  0.4515058E+03  0.7546771E-02  0.1027274E+00
         21   -1    0    0  502  501  0.00000000000E+00  0.00000000000E+00  0.50042721551E+03  0.50042721551E+03  0.00000000000E+00 0.  1.
         21   -1    0    0  501  502 -0.00000000000E+00 -0.00000000000E+00 -0.10184172078E+03  0.10184172078E+03  0.00000000000E+00 0.  1.
      99926    2    1    2    0    0  0.00000000000E+00  0.00000000000E+00  0.39858549473E+03  0.60226893629E+03  0.45150578624E+03 0.  0.
      99925    2    3    3    0    0 -0.79604236371E+02  0.70923193014E+02  0.28699748285E+03  0.40360760072E+03  0.26299164709E+03 0.  0.
         25    1    3    3    0    0  0.79604236371E+02 -0.70923193014E+02  0.11158801188E+03  0.19866133557E+03  0.12509000000E+03 0.  0.
         25    1    4    4    0    0 -0.68638512805E+02  0.10146450917E+02  0.16406076275E+03  0.21766404821E+03  0.12509000000E+03 0.  0.
         25    1    4    4    0    0 -0.10965723567E+02  0.60776742097E+02  0.12293672009E+03  0.18594355251E+03  0.12509000000E+03 0.  0.
<mgrwt>
<rscale>  2 0.45150579E+03</rscale>
<asrwt>0</asrwt>
<pdfrwt beam="1">  1       21 0.73592236E-01 0.45150579E+03</pdfrwt>
<pdfrwt beam="2">  1       21 0.14976724E-01 0.45150579E+03</pdfrwt>
<totfact> 0.60183136E+04</totfact>
</mgrwt>
</event>
<event>
 7    0  0.4737014E-002  0.4533191E+03  0.7546771E-02  0.1026737E+00
         21   -1    0    0  502  501  0.00000000000E+00  0.00000000000E+00  0.94538896479E+02  0.94538896479E+02  0.00000000000E+00 0. -1.
         21   -1    0    0  501  502 -0.00000000000E+00 -0.00000000000E+00 -0.54342238279E+03  0.54342238279E+03  0.00000000000E+00 0. -1.
      99926    2    1    2    0    0  0.00000000000E+00  0.00000000000E+00 -0.44888348631E+03  0.63796127927E+03  0.45331910346E+03 0.  0.
      99925    2    3    3    0    0  0.37126126997E+02 -0.99799921146E+02 -0.23592301476E+03  0.36900395159E+03  0.26299405665E+03 0.  0.
         25    1    4    4    0    0  0.34850089962E+02 -0.16454841169E+02 -0.13438347992E+03  0.18759455840E+03  0.12509000000E+03 0.  0.
         25    1    4    4    0    0  0.22760370349E+01 -0.83345079978E+02 -0.10153953484E+03  0.18140939319E+03  0.12509000000E+03 0.  0.
         25    1    3    3    0    0 -0.37126126997E+02  0.99799921146E+02 -0.21296047156E+03  0.26895732768E+03  0.12509000000E+03 0.  0.
<mgrwt>
<rscale>  2 0.45331910E+03</rscale>
<asrwt>0</asrwt>
<pdfrwt beam="1">  1       21 0.13902779E-01 0.45331910E+03</pdfrwt>
<pdfrwt beam="2">  1       21 0.79915056E-01 0.45331910E+03</pdfrwt>
<totfact> 0.57154848E+04</totfact>
</mgrwt>
</event>
<event>
 7    0  0.4737014E-002  0.4558251E+03  0.7546771E-02  0.1025999E+00
         21   -1    0    0  502  501  0.00000000000E+00  0.00000000000E+00  0.33661550042E+03  0.33661550042E+03  0.00000000000E+00 0. -1.
         21   -1    0    0  501  502 -0.00000000000E+00 -0.00000000000E+00 -0.15431296682E+03  0.15431296682E+03  0.00000000000E+00 0. -1.
      99926    2    1    2    0    0  0.00000000000E+00  0.00000000000E+00  0.18230253360E+03  0.49092846724E+03  0.45582512676E+03 0.  0.
      99925    2    3    3    0    0  0.74339797152E+01 -0.11349763783E+03  0.10762905501E+03  0.30610256442E+03  0.26301670786E+03 0.  0.
         25    1    3    3    0    0 -0.74339797152E+01  0.11349763783E+03  0.74673478581E+02  0.18482590281E+03  0.12509000000E+03 0.  0.
         25    1    4    4    0    0 -0.32175525505E+02 -0.37787757021E+02  0.41681501333E+02  0.14088305319E+03  0.12509000000E+03 0.  0.
         25    1    4    4    0    0  0.39609505220E+02 -0.75709880811E+02  0.65947553682E+02  0.16521951124E+03  0.12509000000E+03 0.  0.
<mgrwt>
<rscale>  2 0.45582513E+03</rscale>
<asrwt>0</asrwt>
<pdfrwt beam="1">  1       21 0.49502279E-01 0.45582513E+03</pdfrwt>
<pdfrwt beam="2">  1       21 0.22693083E-01 0.45582513E+03</pdfrwt>
<totfact> 0.65482787E+04</totfact>
</mgrwt>
</event>
<event>
 7    0  0.4737014E-002  0.4526681E+03  0.7546771E-02  0.1026929E+00
         21   -1    0    0  502  501  0.00000000000E+00  0.00000000000E+00  0.24137120397E+03  0.24137120397E+03  0.00000000000E+00 0. -1.
         21   -1    0    0  501  502 -0.00000000000E+00 -0.00000000000E+00 -0.21223366904E+03  0.21223366904E+03  0.00000000000E+00 0. -1.
      99926    2    1    2    0    0  0.71054273576E-14 -0.14210854715E-13  0.29137534929E+02  0.45360487302E+03  0.45266807363E+03 0.  0.
      99925    2    3    3    0    0  0.44323343744E+02 -0.97508554064E+02  0.47431267020E+02  0.28791043844E+03  0.26300231663E+03 0.  0.
         25    1    3    3    0    0 -0.44323343744E+02  0.97508554064E+02 -0.18293732092E+02  0.16569443458E+03  0.12509000000E+03 0.  0.
         25    1    4    4    0    0  0.25705223594E+02 -0.64450795060E+01  0.27607427890E+02  0.13081275070E+03  0.12509000000E+03 0.  0.
         25    1    4    4    0    0  0.18618120150E+02 -0.91063474558E+02  0.19823839131E+02  0.15709768774E+03  0.12509000000E+03 0.  0.
<mgrwt>
<rscale>  2 0.45266807E+03</rscale>
<asrwt>0</asrwt>
<pdfrwt beam="1">  1       21 0.35495765E-01 0.45266807E+03</pdfrwt>
<pdfrwt beam="2">  1       21 0.31210834E-01 0.45266807E+03</pdfrwt>
<totfact> 0.69940433E+04</totfact>
</mgrwt>
</event>
<event>
 7    0  0.4737014E-002  0.4559956E+03  0.7546771E-02  0.1025949E+00
         21   -1    0    0  502  501  0.00000000000E+00  0.00000000000E+00  0.17648354809E+03  0.17648354809E+03  0.00000000000E+00 0. -1.
         21   -1    0    0  501  502 -0.00000000000E+00 -0.00000000000E+00 -0.29454874218E+03  0.29454874218E+03  0.00000000000E+00 0. -1.
      99926    2    1    2    0    0  0.00000000000E+00  0.00000000000E+00 -0.11806519409E+03  0.47103229027E+03  0.45599564518E+03 0.  0.
      99925    2    3    3    0    0  0.48617976209E+02 -0.94593585656E+02 -0.11693477747E+03  0.30683594439E+03  0.26298840380E+03 0.  0.
         25    1    3    3    0    0 -0.48617976209E+02  0.94593585656E+02 -0.11304166145E+01  0.16419634588E+03  0.12509000000E+03 0.  0.
         25    1    4    4    0    0 -0.41693951784E+01 -0.23048661491E+02 -0.75086567196E+02  0.14776374835E+03  0.12509000000E+03 0.  0.
         25    1    4    4    0    0  0.52787371388E+02 -0.71544924165E+02 -0.41848210276E+02  0.15907219605E+03  0.12509000000E+03 0.  0.
<mgrwt>
<rscale>  2 0.45599565E+03</rscale>
<asrwt>0</asrwt>
<pdfrwt beam="1">  1       21 0.25953463E-01 0.45599565E+03</pdfrwt>
<pdfrwt beam="2">  1       21 0.43315991E-01 0.45599565E+03</pdfrwt>
<totfact> 0.66829593E+04</totfact>
</mgrwt>
</event>
<event>
 7    0  0.4737014E-002  0.4614951E+03  0.7546771E-02  0.1024349E+00
         21   -1    0    0  502  501  0.00000000000E+00  0.00000000000E+00  0.10645483778E+03  0.10645483778E+03  0.00000000000E+00 0. -1.
         21   -1    0    0  501  502 -0.00000000000E+00 -0.00000000000E+00 -0.50015973763E+03  0.50015973763E+03  0.00000000000E+00 0. -1.
      99926    2    1    2    0    0  0.00000000000E+00  0.00000000000E+00 -0.39370489985E+03  0.60661457541E+03  0.46149506490E+03 0.  0.
      99925    2    3    3    0    0 -0.24920198431E+02 -0.92008360232E+02 -0.15218751376E+03  0.31840508472E+03  0.26293383956E+03 0.  0.
         25    1    3    3    0    0  0.24920198431E+02  0.92008360232E+02 -0.24151738608E+03  0.28820949069E+03  0.12509000000E+03 0.  0.
         25    1    4    4    0    0  0.48510344849E+01 -0.68217164366E+01 -0.64749319136E+02  0.14110297934E+03  0.12509000000E+03 0.  0.
         25    1    4    4    0    0 -0.29771232916E+02 -0.85186643795E+02 -0.87438194626E+02  0.17730210537E+03  0.12509000000E+03 0.  0.
<mgrwt>
<rscale>  2 0.46149506E+03</rscale>
<asrwt>0</asrwt>
<pdfrwt beam="1">  1       21 0.15655123E-01 0.46149506E+03</pdfrwt>
<pdfrwt beam="2">  1       21 0.73552903E-01 0.46149506E+03</pdfrwt>
<totfact> 0.55376371E+04</totfact>
</mgrwt>
</event>
<event>
 7    0  0.4737014E-002  0.4548156E+03  0.7546771E-02  0.1026296E+00
         21   -1    0    0  502  501  0.00000000000E+00  0.00000000000E+00  0.61808834062E+03  0.61808834062E+03  0.00000000000E+00 0. -1.
         21   -1    0    0  501  502 -0.00000000000E+00 -0.00000000000E+00 -0.83668160823E+02  0.83668160823E+02  0.00000000000E+00 0. -1.
      99926    2    1    2    0    0  0.00000000000E+00  0.00000000000E+00  0.53442017979E+03  0.70175650144E+03  0.45481563159E+03 0.  0.
      99925    2    3    3    0    0  0.67586236167E+02 -0.77248769514E+02  0.40926553283E+03  0.49719241498E+03  0.26299572135E+03 0.  0.
         25    1    4    4    0    0  0.20055551495E+02 -0.77447179839E+02  0.21275024274E+03  0.25944260385E+03  0.12509000000E+03 0.  0.
         25    1    3    3    0    0 -0.67586236167E+02  0.77248769514E+02  0.12515464697E+03  0.20456408646E+03  0.12509000000E+03 0.  0.
         25    1    4    4    0    0  0.47530684671E+02  0.19841032493E+00  0.19651529009E+03  0.23774981113E+03  0.12509000000E+03 0.  0.
<mgrwt>
<rscale>  2 0.45481563E+03</rscale>
<asrwt>0</asrwt>
<pdfrwt beam="1">  1       21 0.90895341E-01 0.45481563E+03</pdfrwt>
<pdfrwt beam="2">  1       21 0.12304142E-01 0.45481563E+03</pdfrwt>
<totfact> 0.52884378E+04</totfact>
</mgrwt>
</event>
<event>
 7    0  0.4737014E-002  0.4293811E+03  0.7546771E-02  0.1034056E+00
         21   -1    0    0  502  501  0.00000000000E+00  0.00000000000E+00  0.27679575669E+02  0.27679575669E+02  0.00000000000E+00 0. -1.
         21   -1    0    0  501  502 -0.00000000000E+00 -0.00000000000E+00 -0.16652000818E+04  0.16652000818E+04  0.00000000000E+00 0. -1.
      99926    2    1    2    0    0  0.00000000000E+00  0.17763568394E-14 -0.16375205062E+04  0.16928796575E+04  0.42938109725E+03 0.  0.
      99925    2    3    3    0    0 -0.74669446756E+02 -0.14870713116E+02 -0.88838309342E+03  0.92956384104E+03  0.26280743808E+03 0.  0.
         25    1    4    4    0    0 -0.45009497227E+02 -0.30468470935E+02 -0.34543168605E+03  0.37138220257E+03  0.12509000000E+03 0.  0.
         25    1    4    4    0    0 -0.29659949529E+02  0.15597757819E+02 -0.54295140737E+03  0.55818163847E+03  0.12509000000E+03 0.  0.
         25    1    3    3    0    0  0.74669446756E+02  0.14870713116E+02 -0.74913741275E+03  0.76331581646E+03  0.12509000000E+03 0.  0.
<mgrwt>
<rscale>  2 0.42938110E+03</rscale>
<asrwt>0</asrwt>
<pdfrwt beam="1">  1       21 0.40705256E-02 0.42938110E+03</pdfrwt>
<pdfrwt beam="2">  1       21 0.24488238E+00 0.42938110E+03</pdfrwt>
<totfact> 0.23804147E+04</totfact>
</mgrwt>
</event>
<event>
 7    0  0.4737014E-002  0.4526111E+03  0.7546771E-02  0.1026946E+00
         21   -1    0    0  502  501  0.00000000000E+00  0.00000000000E+00  0.24672123647E+03  0.24672123647E+03  0.00000000000E+00 0. -1.
         21   -1    0    0  501  502 -0.00000000000E+00 -0.00000000000E+00 -0.20757926549E+03  0.20757926549E+03  0.00000000000E+00 0. -1.
      99926    2    1    2    0    0 -0.35527136788E-14  0.00000000000E+00  0.39141970974E+02  0.45430050196E+03  0.45261114899E+03 0.  0.
      99925    2    3    3    0    0  0.19772594485E+02  0.61881923986E+02  0.11482358855E+03  0.29431442960E+03  0.26308971660E+03 0.  0.
         25    1    4    4    0    0  0.45900202830E+02  0.15370556335E+02  0.45222793737E+02  0.14154748954E+03  0.12509000000E+03 0.  0.
         25    1    3    3    0    0 -0.19772594485E+02 -0.61881923986E+02 -0.75681617571E+02  0.15998607235E+03  0.12509000000E+03 0.  0.
         25    1    4    4    0    0 -0.26127608345E+02  0.46511367651E+02  0.69600794808E+02  0.15276694006E+03  0.12509000000E+03 0.  0.
<mgrwt>
<rscale>  2 0.45261115E+03</rscale>
<asrwt>0</asrwt>
<pdfrwt beam="1">  1       21 0.36282535E-01 0.45261115E+03</pdfrwt>
<pdfrwt beam="2">  1       21 0.30526362E-01 0.45261115E+03</pdfrwt>
<totfact> 0.69920287E+04</totfact>
</mgrwt>
</event>
<event>
 7    0  0.4737014E-002  0.4528843E+03  0.7546771E-02  0.1026865E+00
         21   -1    0    0  502  501  0.00000000000E+00  0.00000000000E+00  0.12698617945E+04  0.12698617945E+04  0.00000000000E+00 0.  1.
         21   -1    0    0  501  502 -0.00000000000E+00 -0.00000000000E+00 -0.40379230220E+02  0.40379230220E+02  0.00000000000E+00 0.  1.
      99926    2    1    2    0    0  0.00000000000E+00  0.00000000000E+00  0.12294825643E+04  0.13102410247E+04  0.45288427549E+03 0.  0.
      99925    2    3    3    0    0 -0.93194164939E+02  0.55775659121E+02  0.84300221662E+03  0.88975244728E+03  0.26307908257E+03 0.  0.
         25    1    4    4    0    0 -0.11940154341E+02  0.17606866984E+02  0.45368097954E+03  0.47109076444E+03  0.12509000000E+03 0.  0.
         25    1    4    4    0    0 -0.81254010598E+02  0.38168792137E+02  0.38932123708E+03  0.41866168284E+03  0.12509000000E+03 0.  0.
         25    1    3    3    0    0  0.93194164939E+02 -0.55775659121E+02  0.38648034765E+03  0.42048857743E+03  0.12509000000E+03 0.  0.
<mgrwt>
<rscale>  2 0.45288428E+03</rscale>
<asrwt>0</asrwt>
<pdfrwt beam="1">  1       21 0.18674436E+00 0.45288428E+03</pdfrwt>
<pdfrwt beam="2">  1       21 0.59381229E-02 0.45288428E+03</pdfrwt>
<totfact> 0.29297791E+04</totfact>
</mgrwt>
</event>
<event>
 7    0  0.4737014E-002  0.4164153E+03  0.7546771E-02  0.1038239E+00
         21   -1    0    0  502  501  0.00000000000E+00  0.00000000000E+00  0.80237907861E+02  0.80237907861E+02  0.00000000000E+00 0. -1.
         21   -1    0    0  501  502 -0.00000000000E+00 -0.00000000000E+00 -0.54027355676E+03  0.54027355676E+03  0.00000000000E+00 0. -1.
      99926    2    1    2    0    0  0.00000000000E+00  0.00000000000E+00 -0.46003564890E+03  0.62051146462E+03  0.41641527286E+03 0.  0.
      99925    2    3    3    0    0  0.60715017328E+02  0.95489276968E+01 -0.35457316658E+03  0.44573349511E+03  0.26301848386E+03 0.  0.
         25    1    3    3    0    0 -0.60715017328E+02 -0.95489276968E+01 -0.10546248231E+03  0.17477796951E+03  0.12509000000E+03 0.  0.
         25    1    4    4    0    0  0.44529567073E+02  0.46116495117E+01 -0.24443850591E+03  0.27821186338E+03  0.12509000000E+03 0.  0.
         25    1    4    4    0    0  0.16185450255E+02  0.49372781851E+01 -0.11013466068E+03  0.16752163173E+03  0.12509000000E+03 0.  0.
<mgrwt>
<rscale>  2 0.41641527E+03</rscale>
<asrwt>0</asrwt>
<pdfrwt beam="1">  1       21 0.11799693E-01 0.41641527E+03</pdfrwt>
<pdfrwt beam="2">  1       21 0.79451991E-01 0.41641527E+03</pdfrwt>
<totfact> 0.78833580E+04</totfact>
</mgrwt>
</event>
<event>
 7    0  0.4737014E-002  0.4539233E+03  0.7546771E-02  0.1026558E+00
         21   -1    0    0  502  501  0.00000000000E+00  0.00000000000E+00  0.19235499199E+03  0.19235499199E+03  0.00000000000E+00 0. -1.
         21   -1    0    0  501  502 -0.00000000000E+00 -0.00000000000E+00 -0.26779441612E+03  0.26779441612E+03  0.00000000000E+00 0. -1.
      99926    2    1    2    0    0  0.17763568394E-14 -0.14210854715E-13 -0.75439424134E+02  0.46014940812E+03  0.45392330969E+03 0.  0.
      99925    2    3    3    0    0  0.13611835195E+02 -0.75931021525E+02  0.34945654732E+02  0.27634740643E+03  0.26305111323E+03 0.  0.
         25    1    3    3    0    0 -0.13611835195E+02  0.75931021525E+02 -0.11038507887E+03  0.18380200169E+03  0.12509000000E+03 0.  0.
         25    1    4    4    0    0 -0.10979561965E+02 -0.69622619666E+02  0.38517329960E+02  0.14865716517E+03  0.12509000000E+03 0.  0.
         25    1    4    4    0    0  0.24591397160E+02 -0.63084018584E+01 -0.35716752277E+01  0.12769024126E+03  0.12509000000E+03 0.  0.
<mgrwt>
<rscale>  2 0.45392331E+03</rscale>
<asrwt>0</asrwt>
<pdfrwt beam="1">  1       21 0.28287499E-01 0.45392331E+03</pdfrwt>
<pdfrwt beam="2">  1       21 0.39381531E-01 0.45392331E+03</pdfrwt>
<totfact> 0.68758068E+04</totfact>
</mgrwt>
</event>
<event>
 7    0  0.4737014E-002  0.4465663E+03  0.7546771E-02  0.1028751E+00
         21   -1    0    0  502  501  0.00000000000E+00  0.00000000000E+00  0.20108686762E+04  0.20108686762E+04  0.00000000000E+00 0.  1.
         21   -1    0    0  501  502 -0.00000000000E+00 -0.00000000000E+00 -0.24792944549E+02  0.24792944549E+02  0.00000000000E+00 0.  1.
      99926    2    1    2    0    0  0.00000000000E+00  0.00000000000E+00  0.19860757317E+04  0.20356616208E+04  0.44656625750E+03 0.  0.
      99925    2    3    3    0    0  0.83591107795E+02 -0.51718554453E+02  0.14281670749E+04  0.14555134849E+04  0.26305138026E+03 0.  0.
         25    1    4    4    0    0  0.49775345104E+02  0.10775424801E+02  0.60750139196E+03  0.62233362764E+03  0.12509000000E+03 0.  0.
         25    1    3    3    0    0 -0.83591107795E+02  0.51718554453E+02  0.55790865676E+03  0.58014813588E+03  0.12509000000E+03 0.  0.
         25    1    4    4    0    0  0.33815762692E+02 -0.62493979255E+02  0.82066568296E+03  0.83317985726E+03  0.12509000000E+03 0.  0.
<mgrwt>
<rscale>  2 0.44656626E+03</rscale>
<asrwt>0</asrwt>
<pdfrwt beam="1">  1       21 0.29571587E+00 0.44656626E+03</pdfrwt>
<pdfrwt beam="2">  1       21 0.36460226E-02 0.44656626E+03</pdfrwt>
<totfact> 0.14032684E+04</totfact>
</mgrwt>
</event>
<event>
 7    0  0.4737014E-002  0.4478779E+03  0.7546771E-02  0.1028357E+00
         21   -1    0    0  502  501  0.00000000000E+00  0.00000000000E+00  0.14144894130E+03  0.14144894130E+03  0.00000000000E+00 0. -1.
         21   -1    0    0  501  502 -0.00000000000E+00 -0.00000000000E+00 -0.35453539479E+03  0.35453539479E+03  0.00000000000E+00 0. -1.
      99926    2    1    2    0    0  0.00000000000E+00  0.00000000000E+00 -0.21308645349E+03  0.49598433610E+03  0.44787791304E+03 0.  0.
      99925    2    3    3    0    0  0.13466225790E+02  0.10539668166E+03 -0.13048437746E+03  0.31224427294E+03  0.26302188784E+03 0.  0.
         25    1    3    3    0    0 -0.13466225790E+02 -0.10539668166E+03 -0.82602076028E+02  0.18374006315E+03  0.12509000000E+03 0.  0.
         25    1    4    4    0    0 -0.46847091639E+01  0.82409236501E+02 -0.10010830528E+03  0.18022877031E+03  0.12509000000E+03 0.  0.
         25    1    4    4    0    0  0.18150934954E+02  0.22987445163E+02 -0.30376072178E+02  0.13201550263E+03  0.12509000000E+03 0.  0.
<mgrwt>
<rscale>  2 0.44787791E+03</rscale>
<asrwt>0</asrwt>
<pdfrwt beam="1">  1       21 0.20801315E-01 0.44787791E+03</pdfrwt>
<pdfrwt beam="2">  1       21 0.52137558E-01 0.44787791E+03</pdfrwt>
<totfact> 0.69394750E+04</totfact>
</mgrwt>
</event>
<event>
 7    0  0.4737014E-002  0.4556382E+03  0.7546771E-02  0.1026054E+00
         21   -1    0    0  502  501  0.00000000000E+00  0.00000000000E+00  0.36047221812E+03  0.36047221812E+03  0.00000000000E+00 0. -1.
         21   -1    0    0  501  502 -0.00000000000E+00 -0.00000000000E+00 -0.14398205709E+03  0.14398205709E+03  0.00000000000E+00 0. -1.
      99926    2    1    2    0    0  0.00000000000E+00  0.00000000000E+00  0.21649016103E+03  0.50445427521E+03  0.45563815243E+03 0.  0.
      99925    2    3    3    0    0 -0.36115109377E+02  0.10126755764E+03  0.17627256579E+03  0.33467682551E+03  0.26339540757E+03 0.  0.
         25    1    4    4    0    0 -0.31853939234E+02  0.88110552550E+02  0.76127018631E+02  0.17384180735E+03  0.12509000000E+03 0.  0.
         25    1    4    4    0    0 -0.42611701438E+01  0.13157005092E+02  0.10014554716E+03  0.16083501817E+03  0.12509000000E+03 0.  0.
         25    1    3    3    0    0  0.36115109377E+02 -0.10126755764E+03  0.40217595244E+02  0.16977744969E+03  0.12509000000E+03 0.  0.
<mgrwt>
<rscale>  2 0.45563815E+03</rscale>
<asrwt>0</asrwt>
<pdfrwt beam="1">  1       21 0.53010620E-01 0.45563815E+03</pdfrwt>
<pdfrwt beam="2">  1       21 0.21173832E-01 0.45563815E+03</pdfrwt>
<totfact> 0.64630860E+04</totfact>
</mgrwt>
</event>
<event>
 7    0  0.4737014E-002  0.4266238E+03  0.7546771E-02  0.1034932E+00
         21   -1    0    0  502  501  0.00000000000E+00  0.00000000000E+00  0.12289432038E+03  0.12289432038E+03  0.00000000000E+00 0.  1.
         21   -1    0    0  501  502 -0.00000000000E+00 -0.00000000000E+00 -0.37025285864E+03  0.37025285864E+03  0.00000000000E+00 0.  1.
      99926    2    1    2    0    0  0.00000000000E+00  0.00000000000E+00 -0.24735853826E+03  0.49314717902E+03  0.42662383164E+03 0.  0.
      99925    2    3    3    0    0 -0.47629474180E+02  0.47639486766E+02 -0.21785317789E+03  0.34803976397E+03  0.26293265807E+03 0.  0.
         25    1    3    3    0    0  0.47629474180E+02 -0.47639486766E+02 -0.29505360367E+02  0.14510741504E+03  0.12509000000E+03 0.  0.
         25    1    4    4    0    0  0.25353232375E+01  0.33306781244E+02 -0.14416209815E+03  0.19376787191E+03  0.12509000000E+03 0.  0.
         25    1    4    4    0    0 -0.50164797417E+02  0.14332705522E+02 -0.73691079743E+02  0.15427189206E+03  0.12509000000E+03 0.  0.
<mgrwt>
<rscale>  2 0.42662383E+03</rscale>
<asrwt>0</asrwt>
<pdfrwt beam="1">  1       21 0.18072694E-01 0.42662383E+03</pdfrwt>
<pdfrwt beam="2">  1       21 0.54448949E-01 0.42662383E+03</pdfrwt>
<totfact> 0.82906811E+04</totfact>
</mgrwt>
</event>
<event>
 7    0  0.4737014E-002  0.4188181E+03  0.7546771E-02  0.1037452E+00
         21   -1    0    0  502  501  0.00000000000E+00  0.00000000000E+00  0.73694309801E+03  0.73694309801E+03  0.00000000000E+00 0. -1.
         21   -1    0    0  501  502 -0.00000000000E+00 -0.00000000000E+00 -0.59505482413E+02  0.59505482413E+02  0.00000000000E+00 0. -1.
      99926    2    1    2    0    0  0.00000000000E+00  0.00000000000E+00  0.67743761560E+03  0.79644858042E+03  0.41881812070E+03 0.  0.
      99925    2    3    3    0    0 -0.49860486492E+02 -0.24890043235E+02  0.53562119450E+03  0.59930653073E+03  0.26300697977E+03 0.  0.
         25    1    4    4    0    0  0.79259648008E+01 -0.14469336263E+02  0.20158089565E+03  0.23781200180E+03  0.12509000000E+03 0.  0.
         25    1    4    4    0    0 -0.57786451293E+02 -0.10420706972E+02  0.33404029885E+03  0.36149452892E+03  0.12509000000E+03 0.  0.
         25    1    3    3    0    0  0.49860486492E+02  0.24890043235E+02  0.14181642110E+03  0.19714204970E+03  0.12509000000E+03 0.  0.
<mgrwt>
<rscale>  2 0.41881812E+03</rscale>
<asrwt>0</asrwt>
<pdfrwt beam="1">  1       21 0.10837398E+00 0.41881812E+03</pdfrwt>
<pdfrwt beam="2">  1       21 0.87508067E-02 0.41881812E+03</pdfrwt>
<totfact> 0.64356465E+04</totfact>
</mgrwt>
</event>
<event>
 7    0  0.4737014E-002  0.4566436E+03  0.7546771E-02  0.1025759E+00
         21   -1    0    0  502  501  0.00000000000E+00  0.00000000000E+00  0.39133820867E+03  0.39133820867E+03  0.00000000000E+00 0. -1.
         21   -1    0    0  501  502 -0.00000000000E+00 -0.00000000000E+00 -0.13321175380E+03  0.13321175380E+03  0.00000000000E+00 0. -1.
      99926    2    1    2    0    0  0.00000000000E+00  0.71054273576E-14  0.25812645487E+03  0.52454996248E+03  0.45664362082E+03 0.  0.
      99925    2    3    3    0    0 -0.48504971381E+02  0.63442007933E+02  0.25685954998E+03  0.37613590058E+03  0.26291399102E+03 0.  0.
         25    1    3    3    0    0  0.48504971381E+02 -0.63442007933E+02  0.12669048914E+01  0.14841406189E+03  0.12509000000E+03 0.  0.
         25    1    4    4    0    0 -0.48598312868E+02  0.14522403655E+02  0.91371159413E+02  0.16299967207E+03  0.12509000000E+03 0.  0.
         25    1    4    4    0    0  0.93341486800E-01  0.48919604278E+02  0.16548839056E+03  0.21313622852E+03  0.12509000000E+03 0.  0.
<mgrwt>
<rscale>  2 0.45664362E+03</rscale>
<asrwt>0</asrwt>
<pdfrwt beam="1">  1       21 0.57549736E-01 0.45664362E+03</pdfrwt>
<pdfrwt beam="2">  1       21 0.19589964E-01 0.45664362E+03</pdfrwt>
<totfact> 0.62755244E+04</totfact>
</mgrwt>
</event>
<event>
 7    0  0.4737014E-002  0.4541228E+03  0.7546771E-02  0.1026500E+00
         21   -1    0    0  502  501  0.00000000000E+00  0.00000000000E+00  0.60901252473E+03  0.60901252473E+03  0.00000000000E+00 0. -1.
         21   -1    0    0  501  502 -0.00000000000E+00 -0.00000000000E+00 -0.84656501977E+02  0.84656501977E+02  0.00000000000E+00 0. -1.
      99926    2    1    2    0    0  0.00000000000E+00  0.14210854715E-13  0.52435602275E+03  0.69366902670E+03  0.45412275875E+03 0.  0.
      99925    2    3    3    0    0 -0.52346542438E+02 -0.99498275917E+02  0.32753151409E+03  0.43477240115E+03  0.26288796218E+03 0.  0.
         25    1    4    4    0    0 -0.49630710264E+02 -0.86005949153E+02  0.19402062457E+03  0.25130010257E+03  0.12509000000E+03 0.  0.
         25    1    4    4    0    0 -0.27158321742E+01 -0.13492326764E+02  0.13351088952E+03  0.18347229858E+03  0.12509000000E+03 0.  0.
         25    1    3    3    0    0  0.52346542438E+02  0.99498275917E+02  0.19682450866E+03  0.25889662556E+03  0.12509000000E+03 0.  0.
<mgrwt>
<rscale>  2 0.45412276E+03</rscale>
<asrwt>0</asrwt>
<pdfrwt beam="1">  1       21 0.89560663E-01 0.45412276E+03</pdfrwt>
<pdfrwt beam="2">  1       21 0.12449486E-01 0.45412276E+03</pdfrwt>
<totfact> 0.53617348E+04</totfact>
</mgrwt>
</event>
<event>
 7    0  0.4737014E-002  0.4552907E+03  0.7546771E-02  0.1026156E+00
         21   -1    0    0  502  501  0.00000000000E+00  0.00000000000E+00  0.12192629712E+03  0.12192629712E+03  0.00000000000E+00 0. -1.
         21   -1    0    0  501  502 -0.00000000000E+00 -0.00000000000E+00 -0.42503053796E+03  0.42503053796E+03  0.00000000000E+00 0. -1.
      99926    2    1    2    0    0  0.00000000000E+00  0.00000000000E+00 -0.30310424084E+03  0.54695683508E+03  0.45529067488E+03 0.  0.
      99925    2    3    3    0    0  0.97182060252E+02 -0.49321305872E+02 -0.22834247669E+03  0.36498493196E+03  0.26305278909E+03 0.  0.
         25    1    3    3    0    0 -0.97182060252E+02  0.49321305872E+02 -0.74761764147E+02  0.18197190312E+03  0.12509000000E+03 0.  0.
         25    1    4    4    0    0  0.17107758878E+02 -0.24981806328E+02 -0.14127564834E+03  0.19111013310E+03  0.12509000000E+03 0.  0.
         25    1    4    4    0    0  0.80074301373E+02 -0.24339499544E+02 -0.87066828349E+02  0.17387479886E+03  0.12509000000E+03 0.  0.
<mgrwt>
<rscale>  2 0.45529067E+03</rscale>
<asrwt>0</asrwt>
<pdfrwt beam="1">  1       21 0.17930338E-01 0.45529067E+03</pdfrwt>
<pdfrwt beam="2">  1       21 0.62504492E-01 0.45529067E+03</pdfrwt>
<totfact> 0.61925506E+04</totfact>
</mgrwt>
</event>
<event>
 7    0  0.4737014E-002  0.4544109E+03  0.7546771E-02  0.1026415E+00
         21   -1    0    0  502  501  0.00000000000E+00  0.00000000000E+00  0.35781471459E+02  0.35781471459E+02  0.00000000000E+00 0.  1.
         21   -1    0    0  501  502 -0.00000000000E+00 -0.00000000000E+00 -0.14427107640E+04  0.14427107640E+04  0.00000000000E+00 0.  1.
      99926    2    1    2    0    0  0.00000000000E+00  0.00000000000E+00 -0.14069292925E+04  0.14784922354E+04  0.45441088906E+03 0.  0.
      99925    2    3    3    0    0  0.67023259927E+02 -0.71503647695E+02 -0.70501030035E+03  0.75880989671E+03  0.26296016189E+03 0.  0.
         25    1    4    4    0    0  0.38266810317E+02  0.25529164538E+01 -0.29036830314E+03  0.31848410592E+03  0.12509000000E+03 0.  0.
         25    1    3    3    0    0 -0.67023259927E+02  0.71503647695E+02 -0.70191899215E+03  0.71968233870E+03  0.12509000000E+03 0.  0.
         25    1    4    4    0    0  0.28756449610E+02 -0.74056564149E+02 -0.41464199721E+03  0.44032579079E+03  0.12509000000E+03 0.  0.
<mgrwt>
<rscale>  2 0.45441089E+03</rscale>
<asrwt>0</asrwt>
<pdfrwt beam="1">  1       21 0.52619809E-02 0.45441089E+03</pdfrwt>
<pdfrwt beam="2">  1       21 0.21216335E+00 0.45441089E+03</pdfrwt>
<totfact> 0.24422768E+04</totfact>
</mgrwt>
</event>
<event>
 7    0  0.4737014E-002  0.4529364E+03  0.7546771E-02  0.1026850E+00
         21   -1    0    0  502  501  0.00000000000E+00  0.00000000000E+00  0.10439370808E+04  0.10439370808E+04  0.00000000000E+00 0. -1.
         21   -1    0    0  501  502 -0.00000000000E+00 -0.00000000000E+00 -0.49129250313E+02  0.49129250313E+02  0.00000000000E+00 0. -1.
      99926    2    1    2    0    0  0.00000000000E+00  0.00000000000E+00  0.99480783052E+03  0.10930663312E+04  0.45293640240E+03 0.  0.
      99925    2    3    3    0    0  0.28827357414E+02 -0.28880602157E+02  0.37721444604E+03  0.46161229294E+03  0.26292596862E+03 0.  0.
         25    1    4    4    0    0  0.76055263749E+01 -0.53663676587E+02  0.17987365469E+03  0.22569819221E+03  0.12509000000E+03 0.  0.
         25    1    4    4    0    0  0.21221831039E+02  0.24783074431E+02  0.19734079136E+03  0.23591410073E+03  0.12509000000E+03 0.  0.
         25    1    3    3    0    0 -0.28827357414E+02  0.28880602157E+02  0.61759338448E+03  0.63145403821E+03  0.12509000000E+03 0.  0.
<mgrwt>
<rscale>  2 0.45293640E+03</rscale>
<asrwt>0</asrwt>
<pdfrwt beam="1">  1       21 0.15352014E+00 0.45293640E+03</pdfrwt>
<pdfrwt beam="2">  1       21 0.72248904E-02 0.45293640E+03</pdfrwt>
<totfact> 0.36316786E+04</totfact>
</mgrwt>
</event>
<event>
 7    0  0.4737014E-002  0.4505156E+03  0.7546771E-02  0.1027568E+00
         21   -1    0    0  502  501  0.00000000000E+00  0.00000000000E+00  0.49494698870E+03  0.49494698870E+03  0.00000000000E+00 0.  1.
         21   -1    0    0  501  502 -0.00000000000E+00 -0.00000000000E+00 -0.10251819445E+03  0.10251819445E+03  0.00000000000E+00 0.  1.
      99926    2    1    2    0    0  0.00000000000E+00  0.00000000000E+00  0.39242879424E+03  0.59746518315E+03  0.45051557856E+03 0.  0.
      99925    2    3    3    0    0  0.61001704772E+02  0.61578317996E+02  0.33522706811E+03  0.43488399480E+03  0.26312317364E+03 0.  0.
         25    1    3    3    0    0 -0.61001704772E+02 -0.61578317996E+02  0.57201726130E+02  0.16258118835E+03  0.12509000000E+03 0.  0.
         25    1    4    4    0    0  0.59704766312E+02  0.39436431364E+02  0.13323532265E+03  0.19626270797E+03  0.12509000000E+03 0.  0.
         25    1    4    4    0    0  0.12969384594E+01  0.22141886632E+02  0.20199174547E+03  0.23862128683E+03  0.12509000000E+03 0.  0.
<mgrwt>
<rscale>  2 0.45051558E+03</rscale>
<asrwt>0</asrwt>
<pdfrwt beam="1">  1       21 0.72786321E-01 0.45051558E+03</pdfrwt>
<pdfrwt beam="2">  1       21 0.15076205E-01 0.45051558E+03</pdfrwt>
<totfact> 0.60966321E+04</totfact>
</mgrwt>
</event>
<event>
 7    0  0.4737014E-002  0.4527653E+03  0.7546771E-02  0.1026901E+00
         21   -1    0    0  502  501  0.00000000000E+00  0.00000000000E+00  0.14878647650E+03  0.14878647650E+03  0.00000000000E+00 0.  1.
         21   -1    0    0  501  502 -0.00000000000E+00 -0.00000000000E+00 -0.34444740295E+03  0.34444740295E+03  0.00000000000E+00 0.  1.
      99926    2    1    2    0    0  0.00000000000E+00  0.00000000000E+00 -0.19566092645E+03  0.49323387945E+03  0.45276534948E+03 0.  0.
      99925    2    3    3    0    0 -0.49264885629E+02 -0.44052246617E+02 -0.22068720314E+03  0.34956254614E+03  0.26291348890E+03 0.  0.
         25    1    4    4    0    0 -0.14749356289E+02 -0.10363147934E+02 -0.58863053629E+02  0.13941773750E+03  0.12509000000E+03 0.  0.
         25    1    4    4    0    0 -0.34515529340E+02 -0.33689098683E+02 -0.16182414951E+03  0.21014480865E+03  0.12509000000E+03 0.  0.
         25    1    3    3    0    0  0.49264885629E+02  0.44052246617E+02  0.25026276692E+02  0.14367133330E+03  0.12509000000E+03 0.  0.
<mgrwt>
<rscale>  2 0.45276535E+03</rscale>
<asrwt>0</asrwt>
<pdfrwt beam="1">  1       21 0.21880365E-01 0.45276535E+03</pdfrwt>
<pdfrwt beam="2">  1       21 0.50654029E-01 0.45276535E+03</pdfrwt>
<totfact> 0.66928101E+04</totfact>
</mgrwt>
</event>
<event>
 7    0  0.4737014E-002  0.4272604E+03  0.7546771E-02  0.1034729E+00
         21   -1    0    0  502  501  0.00000000000E+00  0.00000000000E+00  0.26876842971E+03  0.26876842971E+03  0.00000000000E+00 0. -1.
         21   -1    0    0  501  502 -0.00000000000E+00 -0.00000000000E+00 -0.16980364284E+03  0.16980364284E+03  0.00000000000E+00 0. -1.
      99926    2    1    2    0    0  0.71054273576E-14  0.00000000000E+00  0.98964786869E+02  0.43857207254E+03  0.42726038170E+03 0.  0.
      99925    2    3    3    0    0 -0.38036679814E+02  0.67238691703E+02  0.28628312077E+02  0.27559183307E+03  0.26298944376E+03 0.  0.
         25    1    4    4    0    0 -0.52897397504E+02  0.28560385225E+02  0.36748216514E+02  0.14356799707E+03  0.12509000000E+03 0.  0.
         25    1    3    3    0    0  0.38036679814E+02 -0.67238691703E+02  0.70336474793E+02  0.16298023948E+03  0.12509000000E+03 0.  0.
         25    1    4    4    0    0  0.14860717690E+02  0.38678306478E+02 -0.81199044369E+01  0.13202383599E+03  0.12509000000E+03 0.  0.
<mgrwt>
<rscale>  2 0.42726038E+03</rscale>
<asrwt>0</asrwt>
<pdfrwt beam="1">  1       21 0.39524769E-01 0.42726038E+03</pdfrwt>
<pdfrwt beam="2">  1       21 0.24971124E-01 0.42726038E+03</pdfrwt>
<totfact> 0.87588050E+04</totfact>
</mgrwt>
</event>
<event>
 7    0  0.4737014E-002  0.4528077E+03  0.7546771E-02  0.1026888E+00
         21   -1    0    0  502  501  0.00000000000E+00  0.00000000000E+00  0.53747243322E+03  0.53747243322E+03  0.00000000000E+00 0. -1.
         21   -1    0    0  501  502 -0.00000000000E+00 -0.00000000000E+00 -0.95369933565E+02  0.95369933565E+02  0.00000000000E+00 0. -1.
      99926    2    1    2    0    0  0.17763568394E-14  0.44408920985E-15  0.44210249965E+03  0.63284236678E+03  0.45280773071E+03 0.  0.
      99925    2    3    3    0    0  0.41352397924E+01  0.23273759489E+01  0.43388061497E+03  0.50739267816E+03  0.26300651117E+03 0.  0.
         25    1    4    4    0    0 -0.24750662119E+02  0.30306256421E+02  0.19973161158E+03  0.23889597991E+03  0.12509000000E+03 0.  0.
         25    1    3    3    0    0 -0.41352397924E+01 -0.23273759489E+01  0.82218846797E+01  0.12544968862E+03  0.12509000000E+03 0.  0.
         25    1    4    4    0    0  0.28885901911E+02 -0.27978880472E+02  0.23414900340E+03  0.26849669825E+03  0.12509000000E+03 0.  0.
<mgrwt>
<rscale>  2 0.45280773E+03</rscale>
<asrwt>0</asrwt>
<pdfrwt beam="1">  1       21 0.79040063E-01 0.45280773E+03</pdfrwt>
<pdfrwt beam="2">  1       21 0.14024990E-01 0.45280773E+03</pdfrwt>
<totfact> 0.57692787E+04</totfact>
</mgrwt>
</event>
<event>
 7    0  0.4737014E-002  0.4499653E+03  0.7546771E-02  0.1027732E+00
         21   -1    0    0  502  501  0.00000000000E+00  0.00000000000E+00  0.12925083705E+04  0.12925083705E+04  0.00000000000E+00 0.  1.
         21   -1    0    0  501  502 -0.00000000000E+00 -0.00000000000E+00 -0.39161990608E+02  0.39161990608E+02  0.00000000000E+00 0.  1.
      99926    2    1    2    0    0  0.00000000000E+00 -0.26645352591E-14  0.12533463799E+04  0.13316703611E+04  0.44996533496E+03 0.  0.
      99925    2    3    3    0    0  0.40317831956E+02 -0.65212747865E+01  0.49556491795E+03  0.56254858482E+03  0.26307464298E+03 0.  0.
         25    1    4    4    0    0  0.30021344442E+02 -0.42799717729E+02  0.25211157395E+03  0.28625312362E+03  0.12509000000E+03 0.  0.
         25    1    4    4    0    0  0.10296487514E+02  0.36278442943E+02  0.24345334400E+03  0.27629546120E+03  0.12509000000E+03 0.  0.
         25    1    3    3    0    0 -0.40317831956E+02  0.65212747865E+01  0.75778146197E+03  0.76912177632E+03  0.12509000000E+03 0.  0.
<mgrwt>
<rscale>  2 0.44996533E+03</rscale>
<asrwt>0</asrwt>
<pdfrwt beam="1">  1       21 0.19007473E+00 0.44996533E+03</pdfrwt>
<pdfrwt beam="2">  1       21 0.57591171E-02 0.44996533E+03</pdfrwt>
<totfact> 0.29340551E+04</totfact>
</mgrwt>
</event>
<event>
 7    0  0.4737014E-002  0.4837140E+03  0.7546771E-02  0.1018119E+00
         21   -1    0    0  502  501  0.00000000000E+00  0.00000000000E+00  0.41086887390E+03  0.41086887390E+03  0.00000000000E+00 0.  1.
         21   -1    0    0  501  502 -0.00000000000E+00 -0.00000000000E+00 -0.14236855592E+03  0.14236855592E+03  0.00000000000E+00 0.  1.
      99926    2    1    2    0    0  0.00000000000E+00 -0.14210854715E-13  0.26850031798E+03  0.55323742983E+03  0.48371399918E+03 0.  0.
      99925    2    3    3    0    0 -0.66161778015E+02 -0.12148316443E+03  0.17059995174E+03  0.34260141696E+03  0.26293696442E+03 0.  0.
         25    1    4    4    0    0 -0.31544729686E+02 -0.40751668450E+02  0.12209897768E+03  0.18224005296E+03  0.12509000000E+03 0.  0.
         25    1    4    4    0    0 -0.34617048328E+02 -0.80731495977E+02  0.48500974066E+02  0.16036136400E+03  0.12509000000E+03 0.  0.
         25    1    3    3    0    0  0.66161778015E+02  0.12148316443E+03  0.97900366233E+02  0.21063601287E+03  0.12509000000E+03 0.  0.
<mgrwt>
<rscale>  2 0.48371400E+03</rscale>
<asrwt>0</asrwt>
<pdfrwt beam="1">  1       21 0.60421893E-01 0.48371400E+03</pdfrwt>
<pdfrwt beam="2">  1       21 0.20936552E-01 0.48371400E+03</pdfrwt>
<totfact> 0.49420234E+04</totfact>
</mgrwt>
</event>
<event>
 7    0  0.4737014E-002  0.4771837E+03  0.7546771E-02  0.1019912E+00
         21   -1    0    0  502  501  0.00000000000E+00  0.00000000000E+00  0.17615074770E+03  0.17615074770E+03  0.00000000000E+00 0.  1.
         21   -1    0    0  501  502 -0.00000000000E+00 -0.00000000000E+00 -0.32316677422E+03  0.32316677422E+03  0.00000000000E+00 0.  1.
      99926    2    1    2    0    0  0.00000000000E+00  0.14210854715E-13 -0.14701602652E+03  0.49931752192E+03  0.47718369172E+03 0.  0.
      99925    2    3    3    0    0  0.64214368753E+02  0.11498570923E+03 -0.10967041732E+03  0.31387911946E+03  0.26295874718E+03 0.  0.
         25    1    4    4    0    0  0.50504757966E+02  0.65349006330E+02 -0.19155290117E+02  0.15111471287E+03  0.12509000000E+03 0.  0.
         25    1    3    3    0    0 -0.64214368753E+02 -0.11498570923E+03 -0.37345609205E+02  0.18543840246E+03  0.12509000000E+03 0.  0.
         25    1    4    4    0    0  0.13709610787E+02  0.49636702897E+02 -0.90515127199E+02  0.16276440659E+03  0.12509000000E+03 0.  0.
<mgrwt>
<rscale>  2 0.47718369E+03</rscale>
<asrwt>0</asrwt>
<pdfrwt beam="1">  1       21 0.25904522E-01 0.47718369E+03</pdfrwt>
<pdfrwt beam="2">  1       21 0.47524525E-01 0.47718369E+03</pdfrwt>
<totfact> 0.54979974E+04</totfact>
</mgrwt>
</event>
<event>
 7    0  0.4737014E-002  0.4512918E+03  0.7546771E-02  0.1027338E+00
         21   -1    0    0  502  501  0.00000000000E+00  0.00000000000E+00  0.18803845341E+03  0.18803845341E+03  0.00000000000E+00 0. -1.
         21   -1    0    0  501  502 -0.00000000000E+00 -0.00000000000E+00 -0.27077477713E+03  0.27077477713E+03  0.00000000000E+00 0. -1.
      99926    2    1    2    0    0 -0.71054273576E-14  0.00000000000E+00 -0.82736323719E+02  0.45881323055E+03  0.45129179171E+03 0.  0.
      99925    2    3    3    0    0  0.49396180967E+02  0.25477995756E+02  0.43802040328E+02  0.27240352952E+03  0.26305123683E+03 0.  0.
         25    1    3    3    0    0 -0.49396180967E+02 -0.25477995756E+02 -0.12653836405E+03  0.18640970103E+03  0.12509000000E+03 0.  0.
         25    1    4    4    0    0  0.38696789536E+02  0.21308608723E+02 -0.15369846173E+02  0.13354863757E+03  0.12509000000E+03 0.  0.
         25    1    4    4    0    0  0.10699391431E+02  0.41693870327E+01  0.59171886501E+02  0.13885489195E+03  0.12509000000E+03 0.  0.
<mgrwt>
<rscale>  2 0.45129179E+03</rscale>
<asrwt>0</asrwt>
<pdfrwt beam="1">  1       21 0.27652714E-01 0.45129179E+03</pdfrwt>
<pdfrwt beam="2">  1       21 0.39819820E-01 0.45129179E+03</pdfrwt>
<totfact> 0.70322060E+04</totfact>
</mgrwt>
</event>
<event>
 7    0  0.4737014E-002  0.4739340E+03  0.7546771E-02  0.1020816E+00
         21   -1    0    0  502  501  0.00000000000E+00  0.00000000000E+00  0.13167896679E+03  0.13167896679E+03  0.00000000000E+00 0. -1.
         21   -1    0    0  501  502 -0.00000000000E+00 -0.00000000000E+00 -0.42644144223E+03  0.42644144223E+03  0.00000000000E+00 0. -1.
      99926    2    1    2    0    0  0.00000000000E+00  0.00000000000E+00 -0.29476247544E+03  0.55812040902E+03  0.47393403976E+03 0.  0.
      99925    2    3    3    0    0 -0.11128866993E+02 -0.30436390400E+02 -0.34069718362E+02  0.26715916206E+03  0.26298868155E+03 0.  0.
         25    1    3    3    0    0  0.11128866993E+02  0.30436390400E+02 -0.26069275708E+03  0.29096124696E+03  0.12509000000E+03 0.  0.
         25    1    4    4    0    0 -0.36977791631E+02  0.98902758750E+01 -0.22213091627E+02  0.13268799558E+03  0.12509000000E+03 0.  0.
         25    1    4    4    0    0  0.25848924639E+02 -0.40326666275E+02 -0.11856626735E+02  0.13447116648E+03  0.12509000000E+03 0.  0.
<mgrwt>
<rscale>  2 0.47393404E+03</rscale>
<asrwt>0</asrwt>
<pdfrwt beam="1">  1       21 0.19364554E-01 0.47393404E+03</pdfrwt>
<pdfrwt beam="2">  1       21 0.62711976E-01 0.47393404E+03</pdfrwt>
<totfact> 0.52943023E+04</totfact>
</mgrwt>
</event>
<event>
 7    0  0.4737014E-002  0.4529361E+03  0.7546771E-02  0.1026850E+00
         21   -1    0    0  502  501  0.00000000000E+00  0.00000000000E+00  0.30018406481E+03  0.30018406481E+03  0.00000000000E+00 0.  1.
         21   -1    0    0  501  502 -0.00000000000E+00 -0.00000000000E+00 -0.17085440993E+03  0.17085440993E+03  0.00000000000E+00 0.  1.
      99926    2    1    2    0    0  0.00000000000E+00  0.00000000000E+00  0.12932965488E+03  0.47103847474E+03  0.45293607171E+03 0.  0.
      99925    2    3    3    0    0 -0.39844808841E+02  0.66779831630E+02 -0.11187730003E+01  0.27428620629E+03  0.26302949760E+03 0.  0.
         25    1    4    4    0    0 -0.58831481959E+02  0.21920803863E+02  0.27969323229E+01  0.13998927045E+03  0.12509000000E+03 0.  0.
         25    1    3    3    0    0  0.39844808841E+02 -0.66779831630E+02  0.13044842788E+03  0.19675226845E+03  0.12509000000E+03 0.  0.
         25    1    4    4    0    0  0.18986673118E+02  0.44859027767E+02 -0.39157053232E+01  0.13429693584E+03  0.12509000000E+03 0.  0.
<mgrwt>
<rscale>  2 0.45293607E+03</rscale>
<asrwt>0</asrwt>
<pdfrwt beam="1">  1       21 0.44144716E-01 0.45293607E+03</pdfrwt>
<pdfrwt beam="2">  1       21 0.25125648E-01 0.45293607E+03</pdfrwt>
<totfact> 0.68473000E+04</totfact>
</mgrwt>
</event>
<event>
 7    0  0.4737014E-002  0.4377406E+03  0.7546771E-02  0.1031442E+00
         21   -1    0    0  502  501  0.00000000000E+00  0.00000000000E+00  0.22673573944E+03  0.22673573944E+03  0.00000000000E+00 0. -1.
         21   -1    0    0  501  502 -0.00000000000E+00 -0.00000000000E+00 -0.21127772218E+03  0.21127772218E+03  0.00000000000E+00 0. -1.
      99926    2    1    2    0    0  0.00000000000E+00  0.00000000000E+00  0.15458017264E+02  0.43801346162E+03  0.43774061070E+03 0.  0.
      99925    2    3    3    0    0 -0.72232863795E+02 -0.61423996676E+02  0.24751828301E+02  0.28077359071E+03  0.26311720251E+03 0.  0.
         25    1    4    4    0    0 -0.15495714889E+02 -0.19616820389E+02  0.46058634855E+02  0.13562390190E+03  0.12509000000E+03 0.  0.
         25    1    3    3    0    0  0.72232863795E+02  0.61423996676E+02 -0.92938110369E+01  0.15723987091E+03  0.12509000000E+03 0.  0.
         25    1    4    4    0    0 -0.56737148905E+02 -0.41807176287E+02 -0.21306806555E+02  0.14514968881E+03  0.12509000000E+03 0.  0.
<mgrwt>
<rscale>  2 0.43774061E+03</rscale>
<asrwt>0</asrwt>
<pdfrwt beam="1">  1       21 0.33343491E-01 0.43774061E+03</pdfrwt>
<pdfrwt beam="2">  1       21 0.31070253E-01 0.43774061E+03</pdfrwt>
<totfact> 0.80311526E+04</totfact>
</mgrwt>
</event>
<event>
 7    0  0.4737014E-002  0.4727114E+03  0.7546771E-02  0.1021158E+00
         21   -1    0    0  502  501  0.00000000000E+00  0.00000000000E+00  0.16044885857E+04  0.16044885857E+04  0.00000000000E+00 0.  1.
         21   -1    0    0  501  502 -0.00000000000E+00 -0.00000000000E+00 -0.34817327870E+02  0.34817327870E+02  0.00000000000E+00 0.  1.
      99926    2    1    2    0    0  0.35527136788E-14  0.00000000000E+00  0.15696712578E+04  0.16393059136E+04  0.47271135020E+03 0.  0.
      99925    2    3    3    0    0  0.10817562182E+02 -0.96040217001E+02  0.67610003939E+03  0.73186017223E+03  0.26299677852E+03 0.  0.
         25    1    3    3    0    0 -0.10817562182E+02  0.96040217001E+02  0.89357121843E+03  0.90744574132E+03  0.12509000000E+03 0.  0.
         25    1    4    4    0    0 -0.34489019585E+02 -0.41537577783E+02  0.31601238140E+03  0.34413107407E+03  0.12509000000E+03 0.  0.
         25    1    4    4    0    0  0.45306581767E+02 -0.54502639218E+02  0.36008765798E+03  0.38772909817E+03  0.12509000000E+03 0.  0.
<mgrwt>
<rscale>  2 0.47271135E+03</rscale>
<asrwt>0</asrwt>
<pdfrwt beam="1">  1       21 0.23595415E+00 0.47271135E+03</pdfrwt>
<pdfrwt beam="2">  1       21 0.51201963E-02 0.47271135E+03</pdfrwt>
<totfact> 0.17956769E+04</totfact>
</mgrwt>
</event>
<event>
 7    0  0.4737014E-002  0.4528140E+03  0.7546771E-02  0.1026886E+00
         21   -1    0    0  502  501  0.00000000000E+00  0.00000000000E+00  0.31862089926E+02  0.31862089926E+02  0.00000000000E+00 0.  1.
         21   -1    0    0  501  502 -0.00000000000E+00 -0.00000000000E+00 -0.16088122223E+04  0.16088122223E+04  0.00000000000E+00 0.  1.
      99926    2    1    2    0    0  0.00000000000E+00  0.00000000000E+00 -0.15769501324E+04  0.16406743123E+04  0.45281395607E+03 0.  0.
      99925    2    3    3    0    0  0.24162419442E+02  0.86714873294E+02 -0.12324027058E+04  0.12632306356E+04  0.26235837649E+03 0.  0.
         25    1    4    4    0    0  0.91447021490E+01  0.21778025603E+02 -0.73853644803E+03  0.74942744889E+03  0.12509000000E+03 0.  0.
         25    1    4    4    0    0  0.15017717293E+02  0.64936847691E+02 -0.49386625773E+03  0.51380318668E+03  0.12509000000E+03 0.  0.
         25    1    3    3    0    0 -0.24162419442E+02 -0.86714873294E+02 -0.34454742664E+03  0.37744367669E+03  0.12509000000E+03 0.  0.
<mgrwt>
<rscale>  2 0.45281396E+03</rscale>
<asrwt>0</asrwt>
<pdfrwt beam="1">  1       21 0.46856008E-02 0.45281396E+03</pdfrwt>
<pdfrwt beam="2">  1       21 0.23659007E+00 0.45281396E+03</pdfrwt>
<totfact> 0.20878173E+04</totfact>
</mgrwt>
</event>
<event>
 7    0  0.4737014E-002  0.4559439E+03  0.7546771E-02  0.1025964E+00
         21   -1    0    0  502  501  0.00000000000E+00  0.00000000000E+00  0.57765620206E+02  0.57765620206E+02  0.00000000000E+00 0.  1.
         21   -1    0    0  501  502 -0.00000000000E+00 -0.00000000000E+00 -0.89969115081E+03  0.89969115081E+03  0.00000000000E+00 0.  1.
      99926    2    1    2    0    0  0.00000000000E+00  0.00000000000E+00 -0.84192553061E+03  0.95745677102E+03  0.45594393217E+03 0.  0.
      99925    2    3    3    0    0 -0.11206194599E+03 -0.85999214356E+01 -0.57003150430E+03  0.63776049636E+03  0.26300322515E+03 0.  0.
         25    1    3    3    0    0  0.11206194599E+03  0.85999214356E+01 -0.27189402631E+03  0.31969627466E+03  0.12509000000E+03 0.  0.
         25    1    4    4    0    0 -0.13166390574E+02  0.27270031458E+01 -0.26650970645E+03  0.29471294868E+03  0.12509000000E+03 0.  0.
         25    1    4    4    0    0 -0.98895555417E+02 -0.11326924581E+02 -0.30352179784E+03  0.34304754768E+03  0.12509000000E+03 0.  0.
<mgrwt>
<rscale>  2 0.45594393E+03</rscale>
<asrwt>0</asrwt>
<pdfrwt beam="1">  1       21 0.84949441E-02 0.45594393E+03</pdfrwt>
<pdfrwt beam="2">  1       21 0.13230752E+00 0.45594393E+03</pdfrwt>
<totfact> 0.40540301E+04</totfact>
</mgrwt>
</event>
<event>
 7    0  0.4737014E-002  0.4552817E+03  0.7546771E-02  0.1026159E+00
         21   -1    0    0  502  501  0.00000000000E+00  0.00000000000E+00  0.28923015720E+03  0.28923015720E+03  0.00000000000E+00 0. -1.
         21   -1    0    0  501  502 -0.00000000000E+00 -0.00000000000E+00 -0.17916650345E+03  0.17916650345E+03  0.00000000000E+00 0. -1.
      99926    2    1    2    0    0  0.00000000000E+00  0.00000000000E+00  0.11006365376E+03  0.46839666065E+03  0.45528169723E+03 0.  0.
      99925    2    3    3    0    0  0.22940294707E+02 -0.22482603449E+02 -0.42705574427E+02  0.26835249113E+03  0.26297826684E+03 0.  0.
         25    1    4    4    0    0 -0.25207470160E+02 -0.15745915952E+02 -0.37976793407E+02  0.13406377348E+03  0.12509000000E+03 0.  0.
         25    1    4    4    0    0  0.48147764867E+02 -0.67366874972E+01 -0.47287810203E+01  0.13428871766E+03  0.12509000000E+03 0.  0.
         25    1    3    3    0    0 -0.22940294707E+02  0.22482603449E+02  0.15276922818E+03  0.20004416952E+03  0.12509000000E+03 0.  0.
<mgrwt>
<rscale>  2 0.45528170E+03</rscale>
<asrwt>0</asrwt>
<pdfrwt beam="1">  1       21 0.42533847E-01 0.45528170E+03</pdfrwt>
<pdfrwt beam="2">  1       21 0.26348015E-01 0.45528170E+03</pdfrwt>
<totfact> 0.67404509E+04</totfact>
</mgrwt>
</event>
<event>
 7    0  0.4737014E-002  0.4087398E+03  0.7546771E-02  0.1040795E+00
         21   -1    0    0  502  501  0.00000000000E+00  0.00000000000E+00  0.29719616590E+02  0.29719616590E+02  0.00000000000E+00 0.  1.
         21   -1    0    0  501  502 -0.00000000000E+00 -0.00000000000E+00 -0.14053702134E+04  0.14053702134E+04  0.00000000000E+00 0.  1.
      99926    2    1    2    0    0  0.00000000000E+00 -0.35527136788E-14 -0.13756505968E+04  0.14350898300E+04  0.40873983857E+03 0.  0.
      99925    2    3    3    0    0  0.26375500390E+02 -0.28722653494E+02 -0.10700733590E+04  0.11026058240E+04  0.26298659989E+03 0.  0.
         25    1    4    4    0    0  0.50036552773E+02 -0.31386904915E+02 -0.53622302487E+03  0.55377922940E+03  0.12509000000E+03 0.  0.
         25    1    4    4    0    0 -0.23661052383E+02  0.26642514211E+01 -0.53385033411E+03  0.54882659463E+03  0.12509000000E+03 0.  0.
         25    1    3    3    0    0 -0.26375500390E+02  0.28722653494E+02 -0.30557723782E+03  0.33248400596E+03  0.12509000000E+03 0.  0.
<mgrwt>
<rscale>  2 0.40873984E+03</rscale>
<asrwt>0</asrwt>
<pdfrwt beam="1">  1       21 0.43705326E-02 0.40873984E+03</pdfrwt>
<pdfrwt beam="2">  1       21 0.20667205E+00 0.40873984E+03</pdfrwt>
<totfact> 0.37044566E+04</totfact>
</mgrwt>
</event>
<event>
 7    0  0.4737014E-002  0.4752572E+03  0.7546771E-02  0.1020447E+00
         21   -1    0    0  502  501  0.00000000000E+00  0.00000000000E+00  0.38977275297E+03  0.38977275297E+03  0.00000000000E+00 0.  1.
         21   -1    0    0  501  502 -0.00000000000E+00 -0.00000000000E+00 -0.14487248369E+03  0.14487248369E+03  0.00000000000E+00 0.  1.
      99926    2    1    2    0    0  0.00000000000E+00  0.14210854715E-13  0.24490026928E+03  0.53464523666E+03  0.47525718005E+03 0.  0.
      99925    2    3    3    0    0 -0.16266356473E+02  0.10391874417E+03  0.63121680047E+02  0.29019756671E+03  0.26299540203E+03 0.  0.
         25    1    4    4    0    0  0.33981021930E+01  0.84138211945E+02  0.89511663124E+01  0.15105766212E+03  0.12509000000E+03 0.  0.
         25    1    3    3    0    0  0.16266356473E+02 -0.10391874417E+03  0.18177858923E+03  0.24444766995E+03  0.12509000000E+03 0.  0.
         25    1    4    4    0    0 -0.19664458666E+02  0.19780532220E+02  0.54170513735E+02  0.13913990458E+03  0.12509000000E+03 0.  0.
<mgrwt>
<rscale>  2 0.47525718E+03</rscale>
<asrwt>0</asrwt>
<pdfrwt beam="1">  1       21 0.57319522E-01 0.47525718E+03</pdfrwt>
<pdfrwt beam="2">  1       21 0.21304777E-01 0.47525718E+03</pdfrwt>
<totfact> 0.53731703E+04</totfact>
</mgrwt>
</event>
<event>
 7    0  0.4737014E-002  0.4568869E+03  0.7546771E-02  0.1025688E+00
         21   -1    0    0  502  501  0.00000000000E+00  0.00000000000E+00  0.91080081997E+02  0.91080081997E+02  0.00000000000E+00 0. -1.
         21   -1    0    0  501  502 -0.00000000000E+00 -0.00000000000E+00 -0.57297289183E+03  0.57297289183E+03  0.00000000000E+00 0. -1.
      99926    2    1    2    0    0  0.00000000000E+00  0.00000000000E+00 -0.48189280983E+03  0.66405297382E+03  0.45688693555E+03 0.  0.
      99925    2    3    3    0    0  0.86397553019E+02 -0.75702893484E+02 -0.31172571480E+03  0.42363705593E+03  0.26286872890E+03 0.  0.
         25    1    4    4    0    0  0.23210032014E+02 -0.61197879137E+02 -0.11742511923E+03  0.18363020646E+03  0.12509000000E+03 0.  0.
         25    1    3    3    0    0 -0.86397553019E+02  0.75702893484E+02 -0.17016709503E+03  0.24041591790E+03  0.12509000000E+03 0.  0.
         25    1    4    4    0    0  0.63187521005E+02 -0.14505014347E+02 -0.19430059558E+03  0.24000684947E+03  0.12509000000E+03 0.  0.
<mgrwt>
<rscale>  2 0.45688694E+03</rscale>
<asrwt>0</asrwt>
<pdfrwt beam="1">  1       21 0.13394130E-01 0.45688694E+03</pdfrwt>
<pdfrwt beam="2">  1       21 0.84260716E-01 0.45688694E+03</pdfrwt>
<totfact> 0.54088989E+04</totfact>
</mgrwt>
</event>
<event>
 7    0  0.4737014E-002  0.4576141E+03  0.7546771E-02  0.1025475E+00
         21   -1    0    0  502  501  0.00000000000E+00  0.00000000000E+00  0.25580914027E+03  0.25580914027E+03  0.00000000000E+00 0.  1.
         21   -1    0    0  501  502 -0.00000000000E+00 -0.00000000000E+00 -0.20465520194E+03  0.20465520194E+03  0.00000000000E+00 0.  1.
      99926    2    1    2    0    0  0.00000000000E+00  0.00000000000E+00  0.51153938334E+02  0.46046434221E+03  0.45761412242E+03 0.  0.
      99925    2    3    3    0    0  0.43379173941E+02  0.16968074439E+01  0.13984861844E+03  0.30109406183E+03  0.26308813372E+03 0.  0.
         25    1    4    4    0    0  0.37132591817E+02  0.22590037610E+02  0.10615834041E+03  0.16972401278E+03  0.12509000000E+03 0.  0.
         25    1    4    4    0    0  0.62465821235E+01 -0.20893230166E+02  0.33690278028E+02  0.13137004905E+03  0.12509000000E+03 0.  0.
         25    1    3    3    0    0 -0.43379173941E+02 -0.16968074439E+01 -0.88694680110E+02  0.15937028038E+03  0.12509000000E+03 0.  0.
<mgrwt>
<rscale>  2 0.45761412E+03</rscale>
<asrwt>0</asrwt>
<pdfrwt beam="1">  1       21 0.37618991E-01 0.45761412E+03</pdfrwt>
<pdfrwt beam="2">  1       21 0.30096353E-01 0.45761412E+03</pdfrwt>
<totfact> 0.66744289E+04</totfact>
</mgrwt>
</event>
<event>
 7    0  0.4737014E-002  0.4478252E+03  0.7546771E-02  0.1028373E+00
         21   -1    0    0  502  501  0.00000000000E+00  0.00000000000E+00  0.10909831539E+04  0.10909831539E+04  0.00000000000E+00 0. -1.
         21   -1    0    0  501  502 -0.00000000000E+00 -0.00000000000E+00 -0.45955659794E+02  0.45955659794E+02  0.00000000000E+00 0. -1.
      99926    2    1    2    0    0  0.00000000000E+00  0.00000000000E+00  0.10450274941E+04  0.11369388137E+04  0.44782519206E+03 0.  0.
      99925    2    3    3    0    0  0.76349481007E+01  0.62055003701E+02  0.44250125678E+03  0.51839658338E+03  0.26271379768E+03 0.  0.
         25    1    3    3    0    0 -0.76349481007E+01 -0.62055003701E+02  0.60252623733E+03  0.61854223032E+03  0.12509000000E+03 0.  0.
         25    1    4    4    0    0  0.29236092518E+02  0.92841351930E+01  0.25744530358E+03  0.28786548370E+03  0.12509000000E+03 0.  0.
         25    1    4    4    0    0 -0.21601144417E+02  0.52770868508E+02  0.18505595320E+03  0.23053109967E+03  0.12509000000E+03 0.  0.
<mgrwt>
<rscale>  2 0.44782519E+03</rscale>
<asrwt>0</asrwt>
<pdfrwt beam="1">  1       21 0.16043868E+00 0.44782519E+03</pdfrwt>
<pdfrwt beam="2">  1       21 0.67581859E-02 0.44782519E+03</pdfrwt>
<totfact> 0.36204219E+04</totfact>
</mgrwt>
</event>
<event>
 7    0  0.4737014E-002  0.4458236E+03  0.7546771E-02  0.1028975E+00
         21   -1    0    0  502  501  0.00000000000E+00  0.00000000000E+00  0.98942760938E+03  0.98942760938E+03  0.00000000000E+00 0.  1.
         21   -1    0    0  501  502 -0.00000000000E+00 -0.00000000000E+00 -0.50220622482E+02  0.50220622482E+02  0.00000000000E+00 0.  1.
      99926    2    1    2    0    0  0.00000000000E+00 -0.14210854715E-13  0.93920698690E+03  0.10396482319E+04  0.44582359939E+03 0.  0.
      99925    2    3    3    0    0  0.15326529889E+02  0.74468328222E+02  0.42934610800E+03  0.50918988443E+03  0.26297494848E+03 0.  0.
         25    1    4    4    0    0  0.26321623731E+00 -0.26064418430E+01  0.17614277163E+03  0.21605704552E+03  0.12509000000E+03 0.  0.
         25    1    4    4    0    0  0.15063313652E+02  0.77074770065E+02  0.25320333637E+03  0.29313283891E+03  0.12509000000E+03 0.  0.
         25    1    3    3    0    0 -0.15326529889E+02 -0.74468328222E+02  0.50986087890E+03  0.53045834743E+03  0.12509000000E+03 0.  0.
<mgrwt>
<rscale>  2 0.44582360E+03</rscale>
<asrwt>0</asrwt>
<pdfrwt beam="1">  1       21 0.14550405E+00 0.44582360E+03</pdfrwt>
<pdfrwt beam="2">  1       21 0.73853863E-02 0.44582360E+03</pdfrwt>
<totfact> 0.40482545E+04</totfact>
</mgrwt>
</event>
<event>
 7    0  0.4737014E-002  0.4544389E+03  0.7546771E-02  0.1026407E+00
         21   -1    0    0  502  501  0.00000000000E+00  0.00000000000E+00  0.13224312366E+03  0.13224312366E+03  0.00000000000E+00 0.  1.
         21   -1    0    0  501  502 -0.00000000000E+00 -0.00000000000E+00 -0.39040730655E+03  0.39040730655E+03  0.00000000000E+00 0.  1.
      99926    2    1    2    0    0  0.14210854715E-13  0.17763568394E-14 -0.25816418289E+03  0.52265043021E+03  0.45443891435E+03 0.  0.
      99925    2    3    3    0    0  0.11157291442E+03  0.11683234405E+02 -0.15114942853E+03  0.32344029254E+03  0.26302558791E+03 0.  0.
         25    1    4    4    0    0  0.94563148986E+02  0.50088619916E+00 -0.62652097372E+02  0.16886454168E+03  0.12509000000E+03 0.  0.
         25    1    4    4    0    0  0.17009765435E+02  0.11182348206E+02 -0.88497331156E+02  0.15457575086E+03  0.12509000000E+03 0.  0.
         25    1    3    3    0    0 -0.11157291442E+03 -0.11683234405E+02 -0.10701475436E+03  0.19921013767E+03  0.12509000000E+03 0.  0.
<mgrwt>
<rscale>  2 0.45443891E+03</rscale>
<asrwt>0</asrwt>
<pdfrwt beam="1">  1       21 0.19447518E-01 0.45443891E+03</pdfrwt>
<pdfrwt beam="2">  1       21 0.57412840E-01 0.45443891E+03</pdfrwt>
<totfact> 0.63990910E+04</totfact>
</mgrwt>
</event>
<event>
 7    0  0.4737014E-002  0.4569533E+03  0.7546771E-02  0.1025669E+00
         21   -1    0    0  502  501  0.00000000000E+00  0.00000000000E+00  0.47533431587E+02  0.47533431587E+02  0.00000000000E+00 0.  1.
         21   -1    0    0  501  502 -0.00000000000E+00 -0.00000000000E+00 -0.10982078956E+04  0.10982078956E+04  0.00000000000E+00 0.  1.
      99926    2    1    2    0    0  0.14210854715E-13  0.00000000000E+00 -0.10506744640E+04  0.11457413272E+04  0.45695334499E+03 0.  0.
      99925    2    3    3    0    0  0.66623059161E+02  0.56570761405E+02 -0.47334245082E+03  0.54858251697E+03  0.26315550369E+03 0.  0.
         25    1    4    4    0    0  0.72174206795E+02  0.18259009450E+02 -0.22860338973E+03  0.27101572915E+03  0.12509000000E+03 0.  0.
         25    1    4    4    0    0 -0.55511476339E+01  0.38311751955E+02 -0.24473906109E+03  0.27756678782E+03  0.12509000000E+03 0.  0.
         25    1    3    3    0    0 -0.66623059161E+02 -0.56570761405E+02 -0.57733201322E+03  0.59715881024E+03  0.12509000000E+03 0.  0.
<mgrwt>
<rscale>  2 0.45695334E+03</rscale>
<asrwt>0</asrwt>
<pdfrwt beam="1">  1       21 0.69902109E-02 0.45695334E+03</pdfrwt>
<pdfrwt beam="2">  1       21 0.16150115E+00 0.45695334E+03</pdfrwt>
<totfact> 0.33413271E+04</totfact>
</mgrwt>
</event>
<event>
 7    0  0.4737014E-002  0.4553365E+03  0.7546771E-02  0.1026143E+00
         21   -1    0    0  502  501  0.00000000000E+00  0.00000000000E+00  0.21918049644E+04  0.21918049644E+04  0.00000000000E+00 0. -1.
         21   -1    0    0  501  502 -0.00000000000E+00 -0.00000000000E+00 -0.23648464554E+02  0.23648464554E+02  0.00000000000E+00 0. -1.
      99926    2    1    2    0    0  0.35527136788E-14 -0.14210854715E-13  0.21681564999E+04  0.22154534290E+04  0.45533645586E+03 0.  0.
      99925    2    3    3    0    0 -0.27421549144E+02  0.86784717407E+02  0.16932400612E+04  0.17159770428E+04  0.26311932277E+03 0.  0.
         25    1    4    4    0    0 -0.46691390119E+02  0.66723391838E+02  0.83792225030E+03  0.85111297874E+03  0.12509000000E+03 0.  0.
         25    1    3    3    0    0  0.27421549144E+02 -0.86784717407E+02  0.47491643865E+03  0.49947638616E+03  0.12509000000E+03 0.  0.
         25    1    4    4    0    0  0.19269840974E+02  0.20061325569E+02  0.85531781092E+03  0.86486406408E+03  0.12509000000E+03 0.  0.
<mgrwt>
<rscale>  2 0.45533646E+03</rscale>
<asrwt>0</asrwt>
<pdfrwt beam="1">  1       21 0.32232412E+00 0.45533646E+03</pdfrwt>
<pdfrwt beam="2">  1       21 0.34777169E-02 0.45533646E+03</pdfrwt>
<totfact> 0.10473071E+04</totfact>
</mgrwt>
</event>
<event>
 7    0  0.4737014E-002  0.4523855E+03  0.7546771E-02  0.1027013E+00
         21   -1    0    0  502  501  0.00000000000E+00  0.00000000000E+00  0.48862095165E+02  0.48862095165E+02  0.00000000000E+00 0.  1.
         21   -1    0    0  501  502 -0.00000000000E+00 -0.00000000000E+00 -0.10470928332E+04  0.10470928332E+04  0.00000000000E+00 0.  1.
      99926    2    1    2    0    0  0.14210854715E-13  0.00000000000E+00 -0.99823073807E+03  0.10959549284E+04  0.45238545363E+03 0.  0.
      99925    2    3    3    0    0  0.70148968495E+02 -0.24890538843E+02 -0.43077186947E+03  0.51012432800E+03  0.26291064983E+03 0.  0.
         25    1    4    4    0    0  0.45199539723E+02  0.29391325063E+00 -0.14854666766E+03  0.19939083567E+03  0.12509000000E+03 0.  0.
         25    1    4    4    0    0  0.24949428772E+02 -0.25184452093E+02 -0.28222520181E+03  0.31073349233E+03  0.12509000000E+03 0.  0.
         25    1    3    3    0    0 -0.70148968495E+02  0.24890538843E+02 -0.56745886860E+03  0.58583060040E+03  0.12509000000E+03 0.  0.
<mgrwt>
<rscale>  2 0.45238545E+03</rscale>
<asrwt>0</asrwt>
<pdfrwt beam="1">  1       21 0.71856020E-02 0.45238545E+03</pdfrwt>
<pdfrwt beam="2">  1       21 0.15398424E+00 0.45238545E+03</pdfrwt>
<totfact> 0.36371052E+04</totfact>
</mgrwt>
</event>
<event>
 7    0  0.4737014E-002  0.4516176E+03  0.7546771E-02  0.1027241E+00
         21   -1    0    0  502  501  0.00000000000E+00  0.00000000000E+00  0.54678399620E+03  0.54678399620E+03  0.00000000000E+00 0.  1.
         21   -1    0    0  501  502 -0.00000000000E+00 -0.00000000000E+00 -0.93253664379E+02  0.93253664379E+02  0.00000000000E+00 0.  1.
      99926    2    1    2    0    0  0.00000000000E+00 -0.17763568394E-14  0.45353033182E+03  0.64003766058E+03  0.45161758721E+03 0.  0.
      99925    2    3    3    0    0 -0.10848538312E+03 -0.13696455075E+02  0.30343292666E+03  0.41613274690E+03  0.26294153501E+03 0.  0.
         25    1    4    4    0    0 -0.13169603657E+02  0.41263206735E+01  0.12052340563E+03  0.17425230095E+03  0.12509000000E+03 0.  0.
         25    1    4    4    0    0 -0.95315779462E+02 -0.17822775748E+02  0.18290952103E+03  0.24188044595E+03  0.12509000000E+03 0.  0.
         25    1    3    3    0    0  0.10848538312E+03  0.13696455075E+02  0.15009740516E+03  0.22390491368E+03  0.12509000000E+03 0.  0.
<mgrwt>
<rscale>  2 0.45161759E+03</rscale>
<asrwt>0</asrwt>
<pdfrwt beam="1">  1       21 0.80409410E-01 0.45161759E+03</pdfrwt>
<pdfrwt beam="2">  1       21 0.13713774E-01 0.45161759E+03</pdfrwt>
<totfact> 0.57806673E+04</totfact>
</mgrwt>
</event>
<event>
 7    0  0.4737014E-002  0.4614782E+03  0.7546771E-02  0.1024353E+00
         21   -1    0    0  502  501  0.00000000000E+00  0.00000000000E+00  0.45217730244E+02  0.45217730244E+02  0.00000000000E+00 0. -1.
         21   -1    0    0  501  502 -0.00000000000E+00 -0.00000000000E+00 -0.11774262161E+04  0.11774262161E+04  0.00000000000E+00 0. -1.
      99926    2    1    2    0    0  0.35527136788E-14 -0.14210854715E-13 -0.11322084858E+04  0.12226439463E+04  0.46147823793E+03 0.  0.
      99925    2    3    3    0    0  0.13567386901E+02  0.11588796567E+03 -0.77058650618E+03  0.82260387478E+03  0.26317195275E+03 0.  0.
         25    1    4    4    0    0  0.38073291800E+02  0.35079269606E+02 -0.32171387981E+03  0.34903790520E+03  0.12509000000E+03 0.  0.
         25    1    4    4    0    0 -0.24505904898E+02  0.80808696065E+02 -0.44887262638E+03  0.47356596958E+03  0.12509000000E+03 0.  0.
         25    1    3    3    0    0 -0.13567386901E+02 -0.11588796567E+03 -0.36162197966E+03  0.40004007155E+03  0.12509000000E+03 0.  0.
<mgrwt>
<rscale>  2 0.46147824E+03</rscale>
<asrwt>0</asrwt>
<pdfrwt beam="1">  1       21 0.66496678E-02 0.46147824E+03</pdfrwt>
<pdfrwt beam="2">  1       21 0.17315087E+00 0.46147824E+03</pdfrwt>
<totfact> 0.29908609E+04</totfact>
</mgrwt>
</event>
<event>
 7    0  0.4737014E-002  0.4576767E+03  0.7546771E-02  0.1025457E+00
         21   -1    0    0  502  501  0.00000000000E+00  0.00000000000E+00  0.31548921412E+03  0.31548921412E+03  0.00000000000E+00 0.  1.
         21   -1    0    0  501  502 -0.00000000000E+00 -0.00000000000E+00 -0.16598660137E+03  0.16598660137E+03  0.00000000000E+00 0.  1.
      99926    2    1    2    0    0 -0.71054273576E-14  0.00000000000E+00  0.14950261274E+03  0.48147581549E+03  0.45767666500E+03 0.  0.
      99925    2    3    3    0    0 -0.57794306483E+02 -0.96809714481E+02  0.67096697282E+02  0.29399102762E+03  0.26309020289E+03 0.  0.
         25    1    4    4    0    0  0.11674684760E+02 -0.46192305598E+02  0.21951652176E+02  0.13564442670E+03  0.12509000000E+03 0.  0.
         25    1    4    4    0    0 -0.69468991244E+02 -0.50617408883E+02  0.45145045107E+02  0.15834660092E+03  0.12509000000E+03 0.  0.
         25    1    3    3    0    0  0.57794306483E+02  0.96809714481E+02  0.82405915460E+02  0.18748478787E+03  0.12509000000E+03 0.  0.
<mgrwt>
<rscale>  2 0.45767667E+03</rscale>
<asrwt>0</asrwt>
<pdfrwt beam="1">  1       21 0.46395473E-01 0.45767667E+03</pdfrwt>
<pdfrwt beam="2">  1       21 0.24409794E-01 0.45767667E+03</pdfrwt>
<totfact> 0.65196621E+04</totfact>
</mgrwt>
</event>
<event>
 7    0  0.4737014E-002  0.4552947E+03  0.7546771E-02  0.1026155E+00
         21   -1    0    0  502  501  0.00000000000E+00  0.00000000000E+00  0.32226260239E+02  0.32226260239E+02  0.00000000000E+00 0.  1.
         21   -1    0    0  501  502 -0.00000000000E+00 -0.00000000000E+00 -0.16081082706E+04  0.16081082706E+04  0.00000000000E+00 0.  1.
      99926    2    1    2    0    0  0.00000000000E+00  0.00000000000E+00 -0.15758820104E+04  0.16403345309E+04  0.45529469850E+03 0.  0.
      99925    2    3    3    0    0 -0.46910069591E+02 -0.10305402552E+03 -0.97052675142E+03  0.10119053905E+04  0.26307728387E+03 0.  0.
         25    1    3    3    0    0  0.46910069591E+02  0.10305402552E+03 -0.60535525898E+03  0.62842914038E+03  0.12509000000E+03 0.  0.
         25    1    4    4    0    0 -0.56223686640E+02 -0.65094682724E+02 -0.44082673207E+03  0.46623399326E+03  0.12509000000E+03 0.  0.
         25    1    4    4    0    0  0.93136170491E+01 -0.37959342799E+02 -0.52970001935E+03  0.54567139724E+03  0.12509000000E+03 0.  0.
<mgrwt>
<rscale>  2 0.45529470E+03</rscale>
<asrwt>0</asrwt>
<pdfrwt beam="1">  1       21 0.47391555E-02 0.45529470E+03</pdfrwt>
<pdfrwt beam="2">  1       21 0.23648653E+00 0.45529470E+03</pdfrwt>
<totfact> 0.20486546E+04</totfact>
</mgrwt>
</event>
<event>
 7    0  0.4737014E-002  0.4544148E+03  0.7546771E-02  0.1026414E+00
         21   -1    0    0  502  501  0.00000000000E+00  0.00000000000E+00  0.45751344566E+03  0.45751344566E+03  0.00000000000E+00 0. -1.
         21   -1    0    0  501  502 -0.00000000000E+00 -0.00000000000E+00 -0.11283429048E+03  0.11283429048E+03  0.00000000000E+00 0. -1.
      99926    2    1    2    0    0  0.00000000000E+00  0.00000000000E+00  0.34467915519E+03  0.57034773614E+03  0.45441481061E+03 0.  0.
      99925    2    3    3    0    0  0.58539880489E+02  0.49411423154E+02  0.32071295439E+03  0.42171969967E+03  0.26291120103E+03 0.  0.
         25    1    4    4    0    0  0.36367326892E+02 -0.90490305708E+01  0.18818106344E+03  0.22905040528E+03  0.12509000000E+03 0.  0.
         25    1    3    3    0    0 -0.58539880489E+02 -0.49411423154E+02  0.23966200797E+02  0.14862803647E+03  0.12509000000E+03 0.  0.
         25    1    4    4    0    0  0.22172553597E+02  0.58460453724E+02  0.13253189095E+03  0.19266929439E+03  0.12509000000E+03 0.  0.
<mgrwt>
<rscale>  2 0.45441481E+03</rscale>
<asrwt>0</asrwt>
<pdfrwt beam="1">  1       21 0.67281388E-01 0.45441481E+03</pdfrwt>
<pdfrwt beam="2">  1       21 0.16593278E-01 0.45441481E+03</pdfrwt>
<totfact> 0.60822574E+04</totfact>
</mgrwt>
</event>
<event>
 6    0  0.4737014E-002  0.4564845E+03  0.7546771E-02  0.1025806E+00
         21   -1    0    0  502  501  0.00000000000E+00  0.00000000000E+00  0.67247435018E+03  0.67247435018E+03  0.00000000000E+00 0. -1.
         21   -1    0    0  501  502 -0.00000000000E+00 -0.00000000000E+00 -0.77466929294E+02  0.77466929294E+02  0.00000000000E+00 0. -1.
      99926    2    1    2    0    0  0.14210854715E-13  0.14210854715E-13  0.59500742089E+03  0.74994127948E+03  0.45648449234E+03 0.  0.
         25    1    3    3    0    0 -0.35881839986E+02 -0.90326172057E+02  0.21825946360E+03  0.26968690244E+03  0.12509000000E+03 0.  0.
         25    1    3    3    0    0  0.67648813704E+02  0.89369933157E+02  0.23044591601E+03  0.28515991173E+03  0.12509000000E+03 0.  0.
         25    1    3    3    0    0 -0.31766973718E+02  0.95623889989E+00  0.14630204128E+03  0.19509446531E+03  0.12509000000E+03 0.  0.
<mgrwt>
<rscale>  2 0.45648449E+03</rscale>
<asrwt>0</asrwt>
<pdfrwt beam="1">  1       21 0.98893284E-01 0.45648449E+03</pdfrwt>
<pdfrwt beam="2">  1       21 0.11392196E-01 0.45648449E+03</pdfrwt>
<totfact> 0.49691613E+04</totfact>
</mgrwt>
</event>
<event>
 7    0  0.4737014E-002  0.4544596E+03  0.7546771E-02  0.1026400E+00
         21   -1    0    0  502  501  0.00000000000E+00  0.00000000000E+00  0.46086901473E+03  0.46086901473E+03  0.00000000000E+00 0.  1.
         21   -1    0    0  501  502 -0.00000000000E+00 -0.00000000000E+00 -0.11203482156E+03  0.11203482156E+03  0.00000000000E+00 0.  1.
      99926    2    1    2    0    0 -0.14210854715E-13  0.35527136788E-14  0.34883419317E+03  0.57290383629E+03  0.45445958160E+03 0.  0.
      99925    2    3    3    0    0 -0.10197501042E+03  0.24914396296E+02  0.16694813173E+03  0.32846636506E+03  0.26267631107E+03 0.  0.
         25    1    3    3    0    0  0.10197501042E+03 -0.24914396296E+02  0.18188606144E+03  0.24443747123E+03  0.12509000000E+03 0.  0.
         25    1    4    4    0    0 -0.78203396165E+02  0.26880724084E+02  0.57662314437E+02  0.16065738422E+03  0.12509000000E+03 0.  0.
         25    1    4    4    0    0 -0.23771614252E+02 -0.19663277877E+01  0.10928581729E+03  0.16780898084E+03  0.12509000000E+03 0.  0.
<mgrwt>
<rscale>  2 0.45445958E+03</rscale>
<asrwt>0</asrwt>
<pdfrwt beam="1">  1       21 0.67774854E-01 0.45445958E+03</pdfrwt>
<pdfrwt beam="2">  1       21 0.16475709E-01 0.45445958E+03</pdfrwt>
<totfact> 0.60636593E+04</totfact>
</mgrwt>
</event>
<event>
 7    0  0.4737014E-002  0.4398236E+03  0.7546771E-02  0.1030801E+00
         21   -1    0    0  502  501  0.00000000000E+00  0.00000000000E+00  0.31478021471E+03  0.31478021471E+03  0.00000000000E+00 0.  1.
         21   -1    0    0  501  502 -0.00000000000E+00 -0.00000000000E+00 -0.15363478839E+03  0.15363478839E+03  0.00000000000E+00 0.  1.
      99926    2    1    2    0    0  0.71054273576E-14 -0.71054273576E-14  0.16114542632E+03  0.46841500310E+03  0.43982356315E+03 0.  0.
      99925    2    3    3    0    0 -0.52923691714E+02  0.50261896923E+02  0.32751807882E+02  0.27487016390E+03  0.26297100725E+03 0.  0.
         25    1    4    4    0    0 -0.38421816168E+02  0.22387392660E+02 -0.22331504420E+02  0.13462405245E+03  0.12509000000E+03 0.  0.
         25    1    3    3    0    0  0.52923691714E+02 -0.50261896923E+02  0.12839361843E+03  0.19354483920E+03  0.12509000000E+03 0.  0.
         25    1    4    4    0    0 -0.14501875546E+02  0.27874504263E+02  0.55083312303E+02  0.14024611145E+03  0.12509000000E+03 0.  0.
<mgrwt>
<rscale>  2 0.43982356E+03</rscale>
<asrwt>0</asrwt>
<pdfrwt beam="1">  1       21 0.46291208E-01 0.43982356E+03</pdfrwt>
<pdfrwt beam="2">  1       21 0.22593351E-01 0.43982356E+03</pdfrwt>
<totfact> 0.76342731E+04</totfact>
</mgrwt>
</event>
<event>
 7    0  0.4737014E-002  0.4444087E+03  0.7546771E-02  0.1029403E+00
         21   -1    0    0  502  501  0.00000000000E+00  0.00000000000E+00  0.64154298228E+02  0.64154298228E+02  0.00000000000E+00 0.  1.
         21   -1    0    0  501  502 -0.00000000000E+00 -0.00000000000E+00 -0.76962536021E+03  0.76962536021E+03  0.00000000000E+00 0.  1.
      99926    2    1    2    0    0  0.00000000000E+00  0.00000000000E+00 -0.70547106198E+03  0.83377965844E+03  0.44440870776E+03 0.  0.
      99925    2    3    3    0    0  0.75456487587E+02 -0.66129692181E+02 -0.49098862994E+03  0.56597928603E+03  0.26305113529E+03 0.  0.
         25    1    3    3    0    0 -0.75456487587E+02  0.66129692181E+02 -0.21448243204E+03  0.26780037241E+03  0.12509000000E+03 0.  0.
         25    1    4    4    0    0  0.76540139483E+02 -0.24473265657E+02 -0.28403655590E+03  0.32059570626E+03  0.12509000000E+03 0.  0.
         25    1    4    4    0    0 -0.10836518959E+01 -0.41656426523E+02 -0.20695207404E+03  0.24538357977E+03  0.12509000000E+03 0.  0.
<mgrwt>
<rscale>  2 0.44440871E+03</rscale>
<asrwt>0</asrwt>
<pdfrwt beam="1">  1       21 0.94344556E-02 0.44440871E+03</pdfrwt>
<pdfrwt beam="2">  1       21 0.11318020E+00 0.44440871E+03</pdfrwt>
<totfact> 0.50218650E+04</totfact>
</mgrwt>
</event>
<event>
 7    0  0.4737014E-002  0.4512741E+03  0.7546771E-02  0.1027343E+00
         21   -1    0    0  502  501  0.00000000000E+00  0.00000000000E+00  0.43886133154E+03  0.43886133154E+03  0.00000000000E+00 0.  1.
         21   -1    0    0  501  502 -0.00000000000E+00 -0.00000000000E+00 -0.11600947976E+03  0.11600947976E+03  0.00000000000E+00 0.  1.
      99926    2    1    2    0    0  0.00000000000E+00  0.00000000000E+00  0.32285185178E+03  0.55487081130E+03  0.45127408416E+03 0.  0.
      99925    2    3    3    0    0  0.32532985506E+02  0.10433268235E+03  0.20253055520E+03  0.34976492094E+03  0.26338787059E+03 0.  0.
         25    1    4    4    0    0  0.21039339604E+02  0.88499330091E+02  0.13971173220E+03  0.20842663326E+03  0.12509000000E+03 0.  0.
         25    1    4    4    0    0  0.11493645901E+02  0.15833352260E+02  0.62818823002E+02  0.14133828768E+03  0.12509000000E+03 0.  0.
         25    1    3    3    0    0 -0.32532985506E+02 -0.10433268235E+03  0.12032129658E+03  0.20510589037E+03  0.12509000000E+03 0.  0.
<mgrwt>
<rscale>  2 0.45127408E+03</rscale>
<asrwt>0</asrwt>
<pdfrwt beam="1">  1       21 0.64538431E-01 0.45127408E+03</pdfrwt>
<pdfrwt beam="2">  1       21 0.17060218E-01 0.45127408E+03</pdfrwt>
<totfact> 0.63393772E+04</totfact>
</mgrwt>
</event>
<event>
 7    0  0.4737014E-002  0.4606764E+03  0.7546771E-02  0.1024585E+00
         21   -1    0    0  502  501  0.00000000000E+00  0.00000000000E+00  0.45876039802E+02  0.45876039802E+02  0.00000000000E+00 0.  1.
         21   -1    0    0  501  502 -0.00000000000E+00 -0.00000000000E+00 -0.11565011918E+04  0.11565011918E+04  0.00000000000E+00 0.  1.
      99926    2    1    2    0    0  0.00000000000E+00  0.00000000000E+00 -0.11106251520E+04  0.12023772316E+04  0.46067643615E+03 0.  0.
      99925    2    3    3    0    0  0.68862935372E+02  0.56026855266E+02 -0.89967846128E+03  0.94155712731E+03  0.26311096122E+03 0.  0.
         25    1    3    3    0    0 -0.68862935372E+02 -0.56026855266E+02 -0.21094669072E+03  0.26082010429E+03  0.12509000000E+03 0.  0.
         25    1    4    4    0    0  0.16416868163E+02  0.49146847474E+02 -0.55023516025E+03  0.56664906763E+03  0.12509000000E+03 0.  0.
         25    1    4    4    0    0  0.52446067210E+02  0.68800077925E+01 -0.34944330103E+03  0.37490805967E+03  0.12509000000E+03 0.  0.
<mgrwt>
<rscale>  2 0.46067644E+03</rscale>
<asrwt>0</asrwt>
<pdfrwt beam="1">  1       21 0.67464778E-02 0.46067644E+03</pdfrwt>
<pdfrwt beam="2">  1       21 0.17007367E+00 0.46067644E+03</pdfrwt>
<totfact> 0.30700542E+04</totfact>
</mgrwt>
</event>
<event>
 7    0  0.4737014E-002  0.4590657E+03  0.7546771E-02  0.1025053E+00
         21   -1    0    0  502  501  0.00000000000E+00  0.00000000000E+00  0.31038970314E+04  0.31038970314E+04  0.00000000000E+00 0. -1.
         21   -1    0    0  501  502 -0.00000000000E+00 -0.00000000000E+00 -0.16973929754E+02  0.16973929754E+02  0.00000000000E+00 0. -1.
      99926    2    1    2    0    0  0.71054273576E-14 -0.14210854715E-13  0.30869231017E+04  0.31208709612E+04  0.45906570412E+03 0.  0.
      99925    2    3    3    0    0 -0.46649934829E+02  0.10342734449E+03  0.21283120063E+04  0.21474973575E+04  0.26298188614E+03 0.  0.
         25    1    3    3    0    0  0.46649934829E+02 -0.10342734449E+03  0.95861109534E+03  0.97337360362E+03  0.12509000000E+03 0.  0.
         25    1    4    4    0    0 -0.30429140302E+01  0.76928260182E+02  0.91924014594E+03  0.93090126788E+03  0.12509000000E+03 0.  0.
         25    1    4    4    0    0 -0.43607020798E+02  0.26499084305E+02  0.12090718604E+04  0.12165960897E+04  0.12509000000E+03 0.  0.
<mgrwt>
<rscale>  2 0.45906570E+03</rscale>
<asrwt>0</asrwt>
<pdfrwt beam="1">  1       21 0.45645505E+00 0.45906570E+03</pdfrwt>
<pdfrwt beam="2">  1       21 0.24961683E-02 0.45906570E+03</pdfrwt>
<totfact> 0.25475412E+03</totfact>
</mgrwt>
</event>
<event>
 7    0  0.4737014E-002  0.4583553E+03  0.7546771E-02  0.1025259E+00
         21   -1    0    0  502  501  0.00000000000E+00  0.00000000000E+00  0.11733215212E+04  0.11733215212E+04  0.00000000000E+00 0.  1.
         21   -1    0    0  501  502 -0.00000000000E+00 -0.00000000000E+00 -0.44763864241E+02  0.44763864241E+02  0.00000000000E+00 0.  1.
      99926    2    1    2    0    0  0.00000000000E+00 -0.71054273576E-14  0.11285576569E+04  0.12180853854E+04  0.45835534375E+03 0.  0.
      99925    2    3    3    0    0 -0.90424335906E+02  0.61730297900E+02  0.60386455193E+03  0.66768775393E+03  0.26299686210E+03 0.  0.
         25    1    4    4    0    0 -0.18918887531E+02  0.55364062369E+02  0.25089945296E+03  0.28639334368E+03  0.12509000000E+03 0.  0.
         25    1    3    3    0    0  0.90424335906E+02 -0.61730297900E+02  0.52469310501E+03  0.55039763148E+03  0.12509000000E+03 0.  0.
         25    1    4    4    0    0 -0.71505448374E+02  0.63662355313E+01  0.35296509897E+03  0.38129441025E+03  0.12509000000E+03 0.  0.
<mgrwt>
<rscale>  2 0.45835534E+03</rscale>
<asrwt>0</asrwt>
<pdfrwt beam="1">  1       21 0.17254726E+00 0.45835534E+03</pdfrwt>
<pdfrwt beam="2">  1       21 0.65829220E-02 0.45835534E+03</pdfrwt>
<totfact> 0.30775758E+04</totfact>
</mgrwt>
</event>
<event>
 7    0  0.4737014E-002  0.4532823E+03  0.7546771E-02  0.1026748E+00
         21   -1    0    0  502  501  0.00000000000E+00  0.00000000000E+00  0.45237942217E+03  0.45237942217E+03  0.00000000000E+00 0. -1.
         21   -1    0    0  501  502 -0.00000000000E+00 -0.00000000000E+00 -0.11354672824E+03  0.11354672824E+03  0.00000000000E+00 0. -1.
      99926    2    1    2    0    0  0.88817841970E-15  0.00000000000E+00  0.33883269393E+03  0.56592615041E+03  0.45328226663E+03 0.  0.
      99925    2    3    3    0    0 -0.55710479428E+01 -0.25246190293E+02  0.78135753846E+02  0.27561802209E+03  0.26304313595E+03 0.  0.
         25    1    3    3    0    0  0.55710479428E+01  0.25246190293E+02  0.26069694008E+03  0.29030812832E+03  0.12509000000E+03 0.  0.
         25    1    4    4    0    0 -0.16581754796E+02 -0.50362930805E+02  0.47663461200E+02  0.14398157182E+03  0.12509000000E+03 0.  0.
         25    1    4    4    0    0  0.11010706853E+02  0.25116740512E+02  0.30472292647E+02  0.13163645027E+03  0.12509000000E+03 0.  0.
<mgrwt>
<rscale>  2 0.45328227E+03</rscale>
<asrwt>0</asrwt>
<pdfrwt beam="1">  1       21 0.66526385E-01 0.45328227E+03</pdfrwt>
<pdfrwt beam="2">  1       21 0.16698048E-01 0.45328227E+03</pdfrwt>
<totfact> 0.61659588E+04</totfact>
</mgrwt>
</event>
<event>
 7    0  0.4737014E-002  0.4533752E+03  0.7546771E-02  0.1026720E+00
         21   -1    0    0  502  501  0.00000000000E+00  0.00000000000E+00  0.11592770236E+04  0.11592770236E+04  0.00000000000E+00 0.  1.
         21   -1    0    0  501  502 -0.00000000000E+00 -0.00000000000E+00 -0.44326992610E+02  0.44326992610E+02  0.00000000000E+00 0.  1.
      99926    2    1    2    0    0  0.00000000000E+00 -0.44408920985E-15  0.11149500310E+04  0.12036040162E+04  0.45337518263E+03 0.  0.
      99925    2    3    3    0    0 -0.11174731595E+03  0.21678500997E+01  0.70003268944E+03  0.75605952611E+03  0.26284611191E+03 0.  0.
         25    1    3    3    0    0  0.11174731595E+03 -0.21678500997E+01  0.41491734153E+03  0.44754449008E+03  0.12509000000E+03 0.  0.
         25    1    4    4    0    0 -0.99067761553E+02 -0.54437992126E+01  0.39208287969E+03  0.42334448027E+03  0.12509000000E+03 0.  0.
         25    1    4    4    0    0 -0.12679554398E+02  0.76116493124E+01  0.30794980975E+03  0.33271504584E+03  0.12509000000E+03 0.  0.
<mgrwt>
<rscale>  2 0.45337518E+03</rscale>
<asrwt>0</asrwt>
<pdfrwt beam="1">  1       21 0.17048190E+00 0.45337518E+03</pdfrwt>
<pdfrwt beam="2">  1       21 0.65186761E-02 0.45337518E+03</pdfrwt>
<totfact> 0.32450713E+04</totfact>
</mgrwt>
</event>
<event>
 7    0  0.4737014E-002  0.4545251E+03  0.7546771E-02  0.1026381E+00
         21   -1    0    0  502  501  0.00000000000E+00  0.00000000000E+00  0.69886014319E+02  0.69886014319E+02  0.00000000000E+00 0. -1.
         21   -1    0    0  501  502 -0.00000000000E+00 -0.00000000000E+00 -0.73903571305E+03  0.73903571305E+03  0.00000000000E+00 0. -1.
      99926    2    1    2    0    0  0.00000000000E+00  0.14210854715E-13 -0.66914969873E+03  0.80892172737E+03  0.45452507268E+03 0.  0.
      99925    2    3    3    0    0  0.72749048924E+02  0.70460034080E+02 -0.50841328880E+03  0.58145581322E+03  0.26334340694E+03 0.  0.
         25    1    4    4    0    0 -0.15937290974E+01  0.16327047794E+02 -0.24882914645E+03  0.27898488254E+03  0.12509000000E+03 0.  0.
         25    1    3    3    0    0 -0.72749048924E+02 -0.70460034080E+02 -0.16073640993E+03  0.22746591415E+03  0.12509000000E+03 0.  0.
         25    1    4    4    0    0  0.74342778022E+02  0.54132986285E+02 -0.25958414235E+03  0.30247093068E+03  0.12509000000E+03 0.  0.
<mgrwt>
<rscale>  2 0.45452507E+03</rscale>
<asrwt>0</asrwt>
<pdfrwt beam="1">  1       21 0.10277355E-01 0.45452507E+03</pdfrwt>
<pdfrwt beam="2">  1       21 0.10868173E+00 0.45452507E+03</pdfrwt>
<totfact> 0.47513128E+04</totfact>
</mgrwt>
</event>
<event>
 7    0  0.4737014E-002  0.4550692E+03  0.7546771E-02  0.1026221E+00
         21   -1    0    0  502  501  0.00000000000E+00  0.00000000000E+00  0.57528581943E+02  0.57528581943E+02  0.00000000000E+00 0. -1.
         21   -1    0    0  501  502 -0.00000000000E+00 -0.00000000000E+00 -0.89993519790E+03  0.89993519790E+03  0.00000000000E+00 0. -1.
      99926    2    1    2    0    0  0.00000000000E+00  0.00000000000E+00 -0.84240661596E+03  0.95746377985E+03  0.45506920694E+03 0.  0.
      99925    2    3    3    0    0  0.54609659735E+02  0.32207630684E+02 -0.33244510280E+03  0.42857078555E+03  0.26293273939E+03 0.  0.
         25    1    3    3    0    0 -0.54609659735E+02 -0.32207630684E+02 -0.50996151316E+03  0.52889299429E+03  0.12509000000E+03 0.  0.
         25    1    4    4    0    0  0.12982001847E+02  0.23487275596E+01 -0.21694687431E+03  0.25077380897E+03  0.12509000000E+03 0.  0.
         25    1    4    4    0    0  0.41627657888E+02  0.29858903125E+02 -0.11549822849E+03  0.17779697658E+03  0.12509000000E+03 0.  0.
<mgrwt>
<rscale>  2 0.45506921E+03</rscale>
<asrwt>0</asrwt>
<pdfrwt beam="1">  1       21 0.84600849E-02 0.45506921E+03</pdfrwt>
<pdfrwt beam="2">  1       21 0.13234342E+00 0.45506921E+03</pdfrwt>
<totfact> 0.40817971E+04</totfact>
</mgrwt>
</event>
<event>
 7    0  0.4737014E-002  0.4519238E+03  0.7546771E-02  0.1027150E+00
         21   -1    0    0  502  501  0.00000000000E+00  0.00000000000E+00  0.11550341291E+03  0.11550341291E+03  0.00000000000E+00 0.  1.
         21   -1    0    0  501  502 -0.00000000000E+00 -0.00000000000E+00 -0.44205435205E+03  0.44205435205E+03  0.00000000000E+00 0.  1.
      99926    2    1    2    0    0 -0.88817841970E-15  0.00000000000E+00 -0.32655093915E+03  0.55755776496E+03  0.45192382700E+03 0.  0.
      99925    2    3    3    0    0 -0.44586867956E+01  0.41960006843E+02 -0.80475349303E+02  0.27830657682E+03  0.26305464602E+03 0.  0.
         25    1    3    3    0    0  0.44586867956E+01 -0.41960006843E+02 -0.24607558984E+03  0.27925118814E+03  0.12509000000E+03 0.  0.
         25    1    4    4    0    0 -0.36529676059E+02  0.35652836765E+02 -0.23993611463E+02  0.13721786871E+03  0.12509000000E+03 0.  0.
         25    1    4    4    0    0  0.32070989263E+02  0.63071700774E+01 -0.56481737840E+02  0.14108870811E+03  0.12509000000E+03 0.  0.
<mgrwt>
<rscale>  2 0.45192383E+03</rscale>
<asrwt>0</asrwt>
<pdfrwt beam="1">  1       21 0.16985796E-01 0.45192383E+03</pdfrwt>
<pdfrwt beam="2">  1       21 0.65007993E-01 0.45192383E+03</pdfrwt>
<totfact> 0.62886164E+04</totfact>
</mgrwt>
</event>
<event>
 7    0  0.4737014E-002  0.4538602E+03  0.7546771E-02  0.1026577E+00
         21   -1    0    0  502  501  0.00000000000E+00  0.00000000000E+00  0.19951171637E+04  0.19951171637E+04  0.00000000000E+00 0.  1.
         21   -1    0    0  501  502 -0.00000000000E+00 -0.00000000000E+00 -0.25811655425E+02  0.25811655425E+02  0.00000000000E+00 0.  1.
      99926    2    1    2    0    0  0.00000000000E+00  0.00000000000E+00  0.19693055083E+04  0.20209288191E+04  0.45386022853E+03 0.  0.
      99925    2    3    3    0    0 -0.24081335076E+02 -0.76394621310E+02  0.89128289068E+03  0.93272097086E+03  0.26299651977E+03 0.  0.
         25    1    3    3    0    0  0.24081335076E+02  0.76394621310E+02  0.10780226176E+04  0.10882078482E+04  0.12509000000E+03 0.  0.
         25    1    4    4    0    0  0.70143993847E+01 -0.26540047745E+01  0.44992354872E+03  0.46704919798E+03  0.12509000000E+03 0.  0.
         25    1    4    4    0    0 -0.31095734461E+02 -0.73740616535E+02  0.44135934195E+03  0.46567177288E+03  0.12509000000E+03 0.  0.
<mgrwt>
<rscale>  2 0.45386023E+03</rscale>
<asrwt>0</asrwt>
<pdfrwt beam="1">  1       21 0.29339948E+00 0.45386023E+03</pdfrwt>
<pdfrwt beam="2">  1       21 0.37958330E-02 0.45386023E+03</pdfrwt>
<totfact> 0.13489919E+04</totfact>
</mgrwt>
</event>
<event>
 7    0  0.4737014E-002  0.4587939E+03  0.7546771E-02  0.1025132E+00
         21   -1    0    0  502  501  0.00000000000E+00  0.00000000000E+00  0.43499406994E+02  0.43499406994E+02  0.00000000000E+00 0.  1.
         21   -1    0    0  501  502 -0.00000000000E+00 -0.00000000000E+00 -0.12097397432E+04  0.12097397432E+04  0.00000000000E+00 0.  1.
      99926    2    1    2    0    0  0.00000000000E+00  0.00000000000E+00 -0.11662403362E+04  0.12532391502E+04  0.45879390339E+03 0.  0.
      99925    2    3    3    0    0  0.20204430452E+02 -0.20515809228E+02 -0.10402238935E+04  0.10733592753E+04  0.26306894148E+03 0.  0.
         25    1    4    4    0    0 -0.10205018722E+02  0.22538372081E+01 -0.64418776859E+03  0.65630374941E+03  0.12509000000E+03 0.  0.
         25    1    4    4    0    0  0.30409449173E+02 -0.22769646436E+02 -0.39603612488E+03  0.41705552593E+03  0.12509000000E+03 0.  0.
         25    1    3    3    0    0 -0.20204430452E+02  0.20515809228E+02 -0.12601644274E+03  0.17987987486E+03  0.12509000000E+03 0.  0.
<mgrwt>
<rscale>  2 0.45879390E+03</rscale>
<asrwt>0</asrwt>
<pdfrwt beam="1">  1       21 0.63969726E-02 0.45879390E+03</pdfrwt>
<pdfrwt beam="2">  1       21 0.17790288E+00 0.45879390E+03</pdfrwt>
<totfact> 0.29619093E+04</totfact>
</mgrwt>
</event>
<event>
 7    0  0.4737014E-002  0.4568705E+03  0.7546771E-02  0.1025693E+00
         21   -1    0    0  502  501  0.00000000000E+00  0.00000000000E+00  0.49576078525E+02  0.49576078525E+02  0.00000000000E+00 0.  1.
         21   -1    0    0  501  502 -0.00000000000E+00 -0.00000000000E+00 -0.10525775885E+04  0.10525775885E+04  0.00000000000E+00 0.  1.
      99926    2    1    2    0    0  0.00000000000E+00  0.00000000000E+00 -0.10030015099E+04  0.11021536670E+04  0.45687052512E+03 0.  0.
      99925    2    3    3    0    0 -0.22528534172E+02 -0.99281286148E+02 -0.75683812292E+03  0.80786090486E+03  0.26357349767E+03 0.  0.
         25    1    4    4    0    0  0.64347247975E+00 -0.80265649059E+01 -0.30970779322E+03  0.33411265328E+03  0.12509000000E+03 0.  0.
         25    1    3    3    0    0  0.22528534172E+02  0.99281286148E+02 -0.24616338703E+03  0.29429276213E+03  0.12509000000E+03 0.  0.
         25    1    4    4    0    0 -0.23172006652E+02 -0.91254721242E+02 -0.44713032970E+03  0.47374825158E+03  0.12509000000E+03 0.  0.
<mgrwt>
<rscale>  2 0.45687053E+03</rscale>
<asrwt>0</asrwt>
<pdfrwt beam="1">  1       21 0.72905995E-02 0.45687053E+03</pdfrwt>
<pdfrwt beam="2">  1       21 0.15479083E+00 0.45687053E+03</pdfrwt>
<totfact> 0.34907472E+04</totfact>
</mgrwt>
</event>
<event>
 7    0  0.4737014E-002  0.4516011E+03  0.7546771E-02  0.1027246E+00
         21   -1    0    0  502  501  0.00000000000E+00  0.00000000000E+00  0.18861918689E+03  0.18861918689E+03  0.00000000000E+00 0. -1.
         21   -1    0    0  501  502 -0.00000000000E+00 -0.00000000000E+00 -0.27031127499E+03  0.27031127499E+03  0.00000000000E+00 0. -1.
      99926    2    1    2    0    0  0.00000000000E+00  0.00000000000E+00 -0.81692088106E+02  0.45893046188E+03  0.45160112000E+03 0.  0.
      99925    2    3    3    0    0 -0.87711831041E+02  0.66542346124E+02 -0.47891933499E+02  0.28889750130E+03  0.26276772982E+03 0.  0.
         25    1    4    4    0    0 -0.41991219998E+02  0.54042884064E+02  0.10426415601E+02  0.14296892710E+03  0.12509000000E+03 0.  0.
         25    1    3    3    0    0  0.87711831041E+02 -0.66542346124E+02 -0.33800154607E+02  0.17003296058E+03  0.12509000000E+03 0.  0.
         25    1    4    4    0    0 -0.45720611043E+02  0.12499462059E+02 -0.58318349100E+02  0.14592857420E+03  0.12509000000E+03 0.  0.
<mgrwt>
<rscale>  2 0.45160112E+03</rscale>
<asrwt>0</asrwt>
<pdfrwt beam="1">  1       21 0.27738116E-01 0.45160112E+03</pdfrwt>
<pdfrwt beam="2">  1       21 0.39751658E-01 0.45160112E+03</pdfrwt>
<totfact> 0.70139070E+04</totfact>
</mgrwt>
</event>
<event>
 7    0  0.4737014E-002  0.4480713E+03  0.7546771E-02  0.1028299E+00
         21   -1    0    0  502  501  0.00000000000E+00  0.00000000000E+00  0.16899964138E+03  0.16899964138E+03  0.00000000000E+00 0. -1.
         21   -1    0    0  501  502 -0.00000000000E+00 -0.00000000000E+00 -0.29699449717E+03  0.29699449717E+03  0.00000000000E+00 0. -1.
      99926    2    1    2    0    0 -0.71054273576E-14  0.00000000000E+00 -0.12799485579E+03  0.46599413856E+03  0.44807126002E+03 0.  0.
      99925    2    3    3    0    0  0.52432427146E+02 -0.46074357518E+02  0.27785951481E+01  0.27203226239E+03  0.26291029906E+03 0.  0.
         25    1    3    3    0    0 -0.52432427146E+02  0.46074357518E+02 -0.13077345094E+03  0.19396187617E+03  0.12509000000E+03 0.  0.
         25    1    4    4    0    0 -0.95042865030E+00  0.19007225316E+01 -0.17748363255E+02  0.12636070813E+03  0.12509000000E+03 0.  0.
         25    1    4    4    0    0  0.53382855796E+02 -0.47975080049E+02  0.20526958404E+02  0.14567155426E+03  0.12509000000E+03 0.  0.
<mgrwt>
<rscale>  2 0.44807126E+03</rscale>
<asrwt>0</asrwt>
<pdfrwt beam="1">  1       21 0.24852888E-01 0.44807126E+03</pdfrwt>
<pdfrwt beam="2">  1       21 0.43675661E-01 0.44807126E+03</pdfrwt>
<totfact> 0.71589813E+04</totfact>
</mgrwt>
</event>
<event>
 7    0  0.4737014E-002  0.4568881E+03  0.7546771E-02  0.1025688E+00
         21   -1    0    0  502  501  0.00000000000E+00  0.00000000000E+00  0.18643482924E+03  0.18643482924E+03  0.00000000000E+00 0.  1.
         21   -1    0    0  501  502 -0.00000000000E+00 -0.00000000000E+00 -0.27991914407E+03  0.27991914407E+03  0.00000000000E+00 0.  1.
      99926    2    1    2    0    0 -0.14210854715E-13  0.71054273576E-14 -0.93484314835E+02  0.46635397331E+03  0.45688807306E+03 0.  0.
      99925    2    3    3    0    0  0.74081179834E+02 -0.56289495021E+02  0.10526798936E+02  0.27894439953E+03  0.26275965459E+03 0.  0.
         25    1    4    4    0    0  0.47328119552E+02 -0.22091115596E+02  0.43726954811E+02  0.14243427595E+03  0.12509000000E+03 0.  0.
         25    1    3    3    0    0 -0.74081179834E+02  0.56289495021E+02 -0.10401111377E+03  0.18740957378E+03  0.12509000000E+03 0.  0.
         25    1    4    4    0    0  0.26753060282E+02 -0.34198379425E+02 -0.33200155875E+02  0.13651012358E+03  0.12509000000E+03 0.  0.
<mgrwt>
<rscale>  2 0.45688807E+03</rscale>
<asrwt>0</asrwt>
<pdfrwt beam="1">  1       21 0.27416887E-01 0.45688807E+03</pdfrwt>
<pdfrwt beam="2">  1       21 0.41164580E-01 0.45688807E+03</pdfrwt>
<totfact> 0.66703123E+04</totfact>
</mgrwt>
</event>
<event>
 7    0  0.4737014E-002  0.4551839E+03  0.7546771E-02  0.1026187E+00
         21   -1    0    0  502  501  0.00000000000E+00  0.00000000000E+00  0.13992083475E+03  0.13992083475E+03  0.00000000000E+00 0. -1.
         21   -1    0    0  501  502 -0.00000000000E+00 -0.00000000000E+00 -0.37019571206E+03  0.37019571206E+03  0.00000000000E+00 0. -1.
      99926    2    1    2    0    0 -0.71054273576E-14  0.00000000000E+00 -0.23027487732E+03  0.51011654681E+03  0.45518388834E+03 0.  0.
      99925    2    3    3    0    0 -0.59379162951E+02 -0.95857214140E+02 -0.13187426322E+03  0.31506609321E+03  0.26298542031E+03 0.  0.
         25    1    4    4    0    0 -0.61273732732E+02 -0.53467545709E+02 -0.40988102346E+02  0.15472808860E+03  0.12509000000E+03 0.  0.
         25    1    4    4    0    0  0.18945697813E+01 -0.42389668431E+02 -0.90886160875E+02  0.16033800461E+03  0.12509000000E+03 0.  0.
         25    1    3    3    0    0  0.59379162951E+02  0.95857214140E+02 -0.98400614097E+02  0.19505045360E+03  0.12509000000E+03 0.  0.
<mgrwt>
<rscale>  2 0.45518389E+03</rscale>
<asrwt>0</asrwt>
<pdfrwt beam="1">  1       21 0.20576593E-01 0.45518389E+03</pdfrwt>
<pdfrwt beam="2">  1       21 0.54440546E-01 0.45518389E+03</pdfrwt>
<totfact> 0.64471487E+04</totfact>
</mgrwt>
</event>
<event>
 7    0  0.4737014E-002  0.4476313E+03  0.7546771E-02  0.1028431E+00
         21   -1    0    0  502  501  0.00000000000E+00  0.00000000000E+00  0.17480518047E+03  0.17480518047E+03  0.00000000000E+00 0. -1.
         21   -1    0    0  501  502 -0.00000000000E+00 -0.00000000000E+00 -0.28656724548E+03  0.28656724548E+03  0.00000000000E+00 0. -1.
      99926    2    1    2    0    0  0.00000000000E+00  0.00000000000E+00 -0.11176206501E+03  0.46137242595E+03  0.44763127264E+03 0.  0.
      99925    2    3    3    0    0 -0.61024721939E+02 -0.27991277180E+02 -0.15557823210E+03  0.31279620684E+03  0.26292461358E+03 0.  0.
         25    1    3    3    0    0  0.61024721939E+02  0.27991277180E+02  0.43816167090E+02  0.14857621911E+03  0.12509000000E+03 0.  0.
         25    1    4    4    0    0 -0.32215094983E+02 -0.14450912238E+02 -0.12460079600E+03  0.18005417983E+03  0.12509000000E+03 0.  0.
         25    1    4    4    0    0 -0.28809626956E+02 -0.13540364942E+02 -0.30977436097E+02  0.13274202701E+03  0.12509000000E+03 0.  0.
<mgrwt>
<rscale>  2 0.44763127E+03</rscale>
<asrwt>0</asrwt>
<pdfrwt beam="1">  1       21 0.25706645E-01 0.44763127E+03</pdfrwt>
<pdfrwt beam="2">  1       21 0.42142241E-01 0.44763127E+03</pdfrwt>
<totfact> 0.72212371E+04</totfact>
</mgrwt>
</event>
<event>
 7    0  0.4737014E-002  0.4497697E+03  0.7546771E-02  0.1027791E+00
         21   -1    0    0  502  501  0.00000000000E+00  0.00000000000E+00  0.43899859536E+03  0.43899859536E+03  0.00000000000E+00 0.  1.
         21   -1    0    0  501  502 -0.00000000000E+00 -0.00000000000E+00 -0.11520125589E+03  0.11520125589E+03  0.00000000000E+00 0.  1.
      99926    2    1    2    0    0  0.00000000000E+00 -0.44408920985E-15  0.32379733947E+03  0.55419985125E+03  0.44976967225E+03 0.  0.
      99925    2    3    3    0    0  0.94995911750E+02  0.36614353315E+01  0.14114136040E+03  0.31326761150E+03  0.26301726833E+03 0.  0.
         25    1    3    3    0    0 -0.94995911750E+02 -0.36614353315E+01  0.18265597908E+03  0.24093223975E+03  0.12509000000E+03 0.  0.
         25    1    4    4    0    0  0.49441529562E+01 -0.50210589808E+01  0.64211800739E+02  0.14078465519E+03  0.12509000000E+03 0.  0.
         25    1    4    4    0    0  0.90051758794E+02  0.86824943123E+01  0.76929559656E+02  0.17248295631E+03  0.12509000000E+03 0.  0.
<mgrwt>
<rscale>  2 0.44976967E+03</rscale>
<asrwt>0</asrwt>
<pdfrwt beam="1">  1       21 0.64558616E-01 0.44976967E+03</pdfrwt>
<pdfrwt beam="2">  1       21 0.16941361E-01 0.44976967E+03</pdfrwt>
<totfact> 0.64205511E+04</totfact>
</mgrwt>
</event>
<event>
 7    0  0.4737014E-002  0.4690446E+03  0.7546771E-02  0.1022190E+00
         21   -1    0    0  502  501  0.00000000000E+00  0.00000000000E+00  0.31759095450E+03  0.31759095450E+03  0.00000000000E+00 0. -1.
         21   -1    0    0  501  502 -0.00000000000E+00 -0.00000000000E+00 -0.17318097049E+03  0.17318097049E+03  0.00000000000E+00 0. -1.
      99926    2    1    2    0    0 -0.71054273576E-14  0.00000000000E+00  0.14440998400E+03  0.49077192499E+03  0.46904460223E+03 0.  0.
      99925    2    3    3    0    0  0.57409261274E+02  0.85219523752E+02  0.16562446947E+03  0.32750602836E+03  0.26319297715E+03 0.  0.
         25    1    4    4    0    0  0.68306677287E+02  0.58319536103E+02  0.95288200602E+02  0.18109202005E+03  0.12509000000E+03 0.  0.
         25    1    3    3    0    0 -0.57409261274E+02 -0.85219523752E+02 -0.21214485464E+02  0.16326589663E+03  0.12509000000E+03 0.  0.
         25    1    4    4    0    0 -0.10897416012E+02  0.26899987649E+02  0.70336268863E+02  0.14641400831E+03  0.12509000000E+03 0.  0.
<mgrwt>
<rscale>  2 0.46904460E+03</rscale>
<asrwt>0</asrwt>
<pdfrwt beam="1">  1       21 0.46704552E-01 0.46904460E+03</pdfrwt>
<pdfrwt beam="2">  1       21 0.25467790E-01 0.46904460E+03</pdfrwt>
<totfact> 0.59059943E+04</totfact>
</mgrwt>
</event>
<event>
 7    0  0.4737014E-002  0.4572325E+03  0.7546771E-02  0.1025587E+00
         21   -1    0    0  502  501  0.00000000000E+00  0.00000000000E+00  0.13255307827E+03  0.13255307827E+03  0.00000000000E+00 0.  1.
         21   -1    0    0  501  502 -0.00000000000E+00 -0.00000000000E+00 -0.39429778764E+03  0.39429778764E+03  0.00000000000E+00 0.  1.
      99926    2    1    2    0    0  0.00000000000E+00  0.00000000000E+00 -0.26174470937E+03  0.52685086591E+03  0.45723248138E+03 0.  0.
      99925    2    3    3    0    0  0.93037367608E+02 -0.67402102239E+02 -0.17689065114E+03  0.33699114281E+03  0.26281882108E+03 0.  0.
         25    1    4    4    0    0  0.19449481317E+02 -0.17072081479E+02 -0.47963450932E+02  0.13644683586E+03  0.12509000000E+03 0.  0.
         25    1    3    3    0    0 -0.93037367608E+02  0.67402102239E+02 -0.84854058235E+02  0.18985972310E+03  0.12509000000E+03 0.  0.
         25    1    4    4    0    0  0.73587886291E+02 -0.50330020760E+02 -0.12892720020E+03  0.20054430695E+03  0.12509000000E+03 0.  0.
<mgrwt>
<rscale>  2 0.45723248E+03</rscale>
<asrwt>0</asrwt>
<pdfrwt beam="1">  1       21 0.19493100E-01 0.45723248E+03</pdfrwt>
<pdfrwt beam="2">  1       21 0.57984968E-01 0.45723248E+03</pdfrwt>
<totfact> 0.62310173E+04</totfact>
</mgrwt>
</event>
<event>
 7    0  0.4737014E-002  0.4523236E+03  0.7546771E-02  0.1027031E+00
         21   -1    0    0  502  501  0.00000000000E+00  0.00000000000E+00  0.87871594835E+03  0.87871594835E+03  0.00000000000E+00 0. -1.
         21   -1    0    0  501  502 -0.00000000000E+00 -0.00000000000E+00 -0.58208991932E+02  0.58208991932E+02  0.00000000000E+00 0. -1.
      99926    2    1    2    0    0  0.00000000000E+00  0.00000000000E+00  0.82050695642E+03  0.93692494028E+03  0.45232364319E+03 0.  0.
      99925    2    3    3    0    0 -0.83772787793E+02  0.67677370837E+02  0.46578226708E+03  0.54567665617E+03  0.26308133012E+03 0.  0.
         25    1    3    3    0    0  0.83772787793E+02 -0.67677370837E+02  0.35472468934E+03  0.39124828412E+03  0.12509000000E+03 0.  0.
         25    1    4    4    0    0 -0.16774731454E+02  0.63709645118E+02  0.21030945690E+03  0.25341248244E+03  0.12509000000E+03 0.  0.
         25    1    4    4    0    0 -0.66998056339E+02  0.39677257191E+01  0.25547281018E+03  0.29226417373E+03  0.12509000000E+03 0.  0.
<mgrwt>
<rscale>  2 0.45232364E+03</rscale>
<asrwt>0</asrwt>
<pdfrwt beam="1">  1       21 0.12922293E+00 0.45232364E+03</pdfrwt>
<pdfrwt beam="2">  1       21 0.85601464E-02 0.45232364E+03</pdfrwt>
<totfact> 0.42558695E+04</totfact>
</mgrwt>
</event>
<event>
 6    0  0.4737014E-002  0.4535047E+03  0.7546771E-02  0.1026682E+00
         21   -1    0    0  502  501  0.00000000000E+00  0.00000000000E+00  0.27639524786E+03  0.27639524786E+03  0.00000000000E+00 0. -1.
         21   -1    0    0  501  502 -0.00000000000E+00 -0.00000000000E+00 -0.18602576623E+03  0.18602576623E+03  0.00000000000E+00 0. -1.
      99926    2    1    2    0    0  0.35527136788E-14  0.00000000000E+00  0.90369481633E+02  0.46242101410E+03  0.45350474206E+03 0.  0.
         25    1    3    3    0    0  0.24865588022E+02  0.27924479661E+02  0.43250932062E+02  0.13753626888E+03  0.12509000000E+03 0.  0.
         25    1    3    3    0    0 -0.56097392649E+02  0.71462145148E+02  0.48692160830E+02  0.16208698368E+03  0.12509000000E+03 0.  0.
         25    1    3    3    0    0  0.31231804627E+02 -0.99386624808E+02 -0.15736112591E+01  0.16279776154E+03  0.12509000000E+03 0.  0.
<mgrwt>
<rscale>  2 0.45350474E+03</rscale>
<asrwt>0</asrwt>
<pdfrwt beam="1">  1       21 0.40646360E-01 0.45350474E+03</pdfrwt>
<pdfrwt beam="2">  1       21 0.27356730E-01 0.45350474E+03</pdfrwt>
<totfact> 0.68816433E+04</totfact>
</mgrwt>
</event>
<event>
 7    0  0.4737014E-002  0.4579726E+03  0.7546771E-02  0.1025371E+00
         21   -1    0    0  502  501  0.00000000000E+00  0.00000000000E+00  0.52073735105E+03  0.52073735105E+03  0.00000000000E+00 0.  1.
         21   -1    0    0  501  502 -0.00000000000E+00 -0.00000000000E+00 -0.10069321763E+03  0.10069321763E+03  0.00000000000E+00 0.  1.
      99926    2    1    2    0    0 -0.14210854715E-13  0.00000000000E+00  0.42004413341E+03  0.62143056868E+03  0.45797257306E+03 0.  0.
      99925    2    3    3    0    0 -0.94289402157E+02  0.46557776719E+02  0.19727737031E+03  0.34515053542E+03  0.26296846452E+03 0.  0.
         25    1    4    4    0    0 -0.61732162182E+02  0.58815122410E+00  0.13627126519E+03  0.19500915770E+03  0.12509000000E+03 0.  0.
         25    1    4    4    0    0 -0.32557239975E+02  0.45969625495E+02  0.61006105118E+02  0.15014137772E+03  0.12509000000E+03 0.  0.
         25    1    3    3    0    0  0.94289402157E+02 -0.46557776719E+02  0.22276676310E+03  0.27628003325E+03  0.12509000000E+03 0.  0.
<mgrwt>
<rscale>  2 0.45797257E+03</rscale>
<asrwt>0</asrwt>
<pdfrwt beam="1">  1       21 0.76579021E-01 0.45797257E+03</pdfrwt>
<pdfrwt beam="2">  1       21 0.14807826E-01 0.45797257E+03</pdfrwt>
<totfact> 0.56050896E+04</totfact>
</mgrwt>
</event>
<event>
 7    0  0.4737014E-002  0.4547621E+03  0.7546771E-02  0.1026311E+00
         21   -1    0    0  502  501  0.00000000000E+00  0.00000000000E+00  0.95434172934E+03  0.95434172934E+03  0.00000000000E+00 0. -1.
         21   -1    0    0  501  502 -0.00000000000E+00 -0.00000000000E+00 -0.54175715202E+02  0.54175715202E+02  0.00000000000E+00 0. -1.
      99926    2    1    2    0    0  0.00000000000E+00  0.00000000000E+00  0.90016601414E+03  0.10085174445E+04  0.45476211686E+03 0.  0.
      99925    2    3    3    0    0  0.11045762980E+03 -0.23825381934E+02  0.56875540629E+03  0.63669889215E+03  0.26293388956E+03 0.  0.
         25    1    4    4    0    0  0.22140727753E+02  0.13495368640E+02  0.27888433346E+03  0.30675122877E+03  0.12509000000E+03 0.  0.
         25    1    4    4    0    0  0.88316902049E+02 -0.37320750575E+02  0.28987107283E+03  0.32994766339E+03  0.12509000000E+03 0.  0.
         25    1    3    3    0    0 -0.11045762980E+03  0.23825381934E+02  0.33141060785E+03  0.37181855239E+03  0.12509000000E+03 0.  0.
<mgrwt>
<rscale>  2 0.45476212E+03</rscale>
<asrwt>0</asrwt>
<pdfrwt beam="1">  1       21 0.14034436E+00 0.45476212E+03</pdfrwt>
<pdfrwt beam="2">  1       21 0.79670175E-02 0.45476212E+03</pdfrwt>
<totfact> 0.38909351E+04</totfact>
</mgrwt>
</event>
<event>
 7    0  0.4737014E-002  0.4576055E+03  0.7546771E-02  0.1025478E+00
         21   -1    0    0  502  501  0.00000000000E+00  0.00000000000E+00  0.33965412072E+03  0.33965412072E+03  0.00000000000E+00 0. -1.
         21   -1    0    0  501  502 -0.00000000000E+00 -0.00000000000E+00 -0.15412941658E+03  0.15412941658E+03  0.00000000000E+00 0. -1.
      99926    2    1    2    0    0  0.00000000000E+00  0.35527136788E-14  0.18552470414E+03  0.49378353730E+03  0.45760546966E+03 0.  0.
      99925    2    3    3    0    0 -0.11193991497E+03 -0.29284029779E+02  0.11796052203E+03  0.31047907536E+03  0.26285827458E+03 0.  0.
         25    1    4    4    0    0 -0.17086955090E+02 -0.81624047664E+01  0.71894662627E+02  0.14551611423E+03  0.12509000000E+03 0.  0.
         25    1    4    4    0    0 -0.94852959882E+02 -0.21121625013E+02  0.46065859399E+02  0.16496296113E+03  0.12509000000E+03 0.  0.
         25    1    3    3    0    0  0.11193991497E+03  0.29284029779E+02  0.67564182117E+02  0.18330446195E+03  0.12509000000E+03 0.  0.
<mgrwt>
<rscale>  2 0.45760547E+03</rscale>
<asrwt>0</asrwt>
<pdfrwt beam="1">  1       21 0.49949135E-01 0.45760547E+03</pdfrwt>
<pdfrwt beam="2">  1       21 0.22666091E-01 0.45760547E+03</pdfrwt>
<totfact> 0.64367906E+04</totfact>
</mgrwt>
</event>
<event>
 7    0  0.4737014E-002  0.5182429E+03  0.7546771E-02  0.1009124E+00
         21   -1    0    0  502  501  0.00000000000E+00  0.00000000000E+00  0.64317216628E+02  0.64317216628E+02  0.00000000000E+00 0.  1.
         21   -1    0    0  501  502 -0.00000000000E+00 -0.00000000000E+00 -0.10439495385E+04  0.10439495385E+04  0.00000000000E+00 0.  1.
      99926    2    1    2    0    0  0.00000000000E+00  0.28421709430E-13 -0.97963232186E+03  0.11082667551E+04  0.51824291067E+03 0.  0.
      99925    2    3    3    0    0 -0.95955839323E+02 -0.13333230419E+03 -0.54662507678E+03  0.62855037137E+03  0.26323291653E+03 0.  0.
         25    1    3    3    0    0  0.95955839323E+02  0.13333230419E+03 -0.43300724508E+03  0.47971638375E+03  0.12509000000E+03 0.  0.
         25    1    4    4    0    0 -0.21536826711E+02 -0.39279021170E+02 -0.18757161744E+03  0.22986364693E+03  0.12509000000E+03 0.  0.
         25    1    4    4    0    0 -0.74419012612E+02 -0.94053283021E+02 -0.35905345934E+03  0.39868672444E+03  0.12509000000E+03 0.  0.
<mgrwt>
<rscale>  2 0.51824291E+03</rscale>
<asrwt>0</asrwt>
<pdfrwt beam="1">  1       21 0.94584148E-02 0.51824291E+03</pdfrwt>
<pdfrwt beam="2">  1       21 0.15352198E+00 0.51824291E+03</pdfrwt>
<totfact> 0.22114287E+04</totfact>
</mgrwt>
</event>
<event>
 7    0  0.4737014E-002  0.4482145E+03  0.7546771E-02  0.1028256E+00
         21   -1    0    0  502  501  0.00000000000E+00  0.00000000000E+00  0.18239422330E+03  0.18239422330E+03  0.00000000000E+00 0.  1.
         21   -1    0    0  501  502 -0.00000000000E+00 -0.00000000000E+00 -0.27535995243E+03  0.27535995243E+03  0.00000000000E+00 0.  1.
      99926    2    1    2    0    0  0.17763568394E-14 -0.14210854715E-13 -0.92965729133E+02  0.45775417573E+03  0.44821452297E+03 0.  0.
      99925    2    3    3    0    0  0.11820840022E+02  0.68842420597E+02 -0.14127575186E+03  0.30655768923E+03  0.26294441928E+03 0.  0.
         25    1    4    4    0    0  0.45867122363E+02  0.28430231795E+02 -0.68219450276E+02  0.15235968131E+03  0.12509000000E+03 0.  0.
         25    1    3    3    0    0 -0.11820840022E+02 -0.68842420597E+02  0.48310022730E+02  0.15119648650E+03  0.12509000000E+03 0.  0.
         25    1    4    4    0    0 -0.34046282340E+02  0.40412188802E+02 -0.73056301588E+02  0.15419800792E+03  0.12509000000E+03 0.  0.
<mgrwt>
<rscale>  2 0.44821452E+03</rscale>
<asrwt>0</asrwt>
<pdfrwt beam="1">  1       21 0.26822680E-01 0.44821452E+03</pdfrwt>
<pdfrwt beam="2">  1       21 0.40494110E-01 0.44821452E+03</pdfrwt>
<totfact> 0.72164621E+04</totfact>
</mgrwt>
</event>
<event>
 7    0  0.4737014E-002  0.4514529E+03  0.7546771E-02  0.1027290E+00
         21   -1    0    0  502  501  0.00000000000E+00  0.00000000000E+00  0.13232050959E+03  0.13232050959E+03  0.00000000000E+00 0.  1.
         21   -1    0    0  501  502 -0.00000000000E+00 -0.00000000000E+00 -0.38506828713E+03  0.38506828713E+03  0.00000000000E+00 0.  1.
      99926    2    1    2    0    0  0.00000000000E+00  0.00000000000E+00 -0.25274777754E+03  0.51738879672E+03  0.45145290776E+03 0.  0.
      99925    2    3    3    0    0 -0.79025836257E+02 -0.70795771749E+02 -0.13081503827E+03  0.31300625075E+03  0.26382421169E+03 0.  0.
         25    1    4    4    0    0 -0.72464589897E+02 -0.27565535231E+02 -0.40485717742E+02  0.15263543810E+03  0.12509000000E+03 0.  0.
         25    1    3    3    0    0  0.79025836257E+02  0.70795771749E+02 -0.12193273927E+03  0.20438254598E+03  0.12509000000E+03 0.  0.
         25    1    4    4    0    0 -0.65612463593E+01 -0.43230236519E+02 -0.90329320528E+02  0.16037081265E+03  0.12509000000E+03 0.  0.
<mgrwt>
<rscale>  2 0.45145291E+03</rscale>
<asrwt>0</asrwt>
<pdfrwt beam="1">  1       21 0.19458898E-01 0.45145291E+03</pdfrwt>
<pdfrwt beam="2">  1       21 0.56627690E-01 0.45145291E+03</pdfrwt>
<totfact> 0.65900680E+04</totfact>
</mgrwt>
</event>
<event>
 7    0  0.4737014E-002  0.4586036E+03  0.7546771E-02  0.1025187E+00
         21   -1    0    0  502  501  0.00000000000E+00  0.00000000000E+00  0.27029274235E+03  0.27029274235E+03  0.00000000000E+00 0. -1.
         21   -1    0    0  501  502 -0.00000000000E+00 -0.00000000000E+00 -0.19452725785E+03  0.19452725785E+03  0.00000000000E+00 0. -1.
      99926    2    1    2    0    0  0.00000000000E+00  0.00000000000E+00  0.75765484499E+02  0.46482000020E+03  0.45860355858E+03 0.  0.
      99925    2    3    3    0    0  0.11168493888E+03  0.24499583207E+02  0.70657572738E+02  0.29526955340E+03  0.26290276041E+03 0.  0.
         25    1    4    4    0    0  0.84505766523E+02  0.21695333283E+02  0.68562247411E+02  0.16721304355E+03  0.12509000000E+03 0.  0.
         25    1    4    4    0    0  0.27179172353E+02  0.28042499241E+01  0.20953253272E+01  0.12805650985E+03  0.12509000000E+03 0.  0.
         25    1    3    3    0    0 -0.11168493888E+03 -0.24499583207E+02  0.51079117616E+01  0.16955044680E+03  0.12509000000E+03 0.  0.
<mgrwt>
<rscale>  2 0.45860356E+03</rscale>
<asrwt>0</asrwt>
<pdfrwt beam="1">  1       21 0.39748933E-01 0.45860356E+03</pdfrwt>
<pdfrwt beam="2">  1       21 0.28606950E-01 0.45860356E+03</pdfrwt>
<totfact> 0.65914918E+04</totfact>
</mgrwt>
</event>
<event>
 7    0  0.4737014E-002  0.4481576E+03  0.7546771E-02  0.1028273E+00
         21   -1    0    0  502  501  0.00000000000E+00  0.00000000000E+00  0.94752315464E+03  0.94752315464E+03  0.00000000000E+00 0. -1.
         21   -1    0    0  501  502 -0.00000000000E+00 -0.00000000000E+00 -0.52992167460E+02  0.52992167460E+02  0.00000000000E+00 0. -1.
      99926    2    1    2    0    0  0.00000000000E+00  0.00000000000E+00  0.89453098718E+03  0.10005153221E+04  0.44815758694E+03 0.  0.
      99925    2    3    3    0    0  0.32181454055E+02  0.56437981569E+02  0.37786548433E+03  0.46496733948E+03  0.26304260261E+03 0.  0.
         25    1    4    4    0    0 -0.15049330271E+02  0.54091630066E+02  0.18484520516E+03  0.23014700684E+03  0.12509000000E+03 0.  0.
         25    1    3    3    0    0 -0.32181454055E+02 -0.56437981569E+02  0.51666550285E+03  0.53554798262E+03  0.12509000000E+03 0.  0.
         25    1    4    4    0    0  0.47230784326E+02  0.23463515033E+01  0.19302027917E+03  0.23482033264E+03  0.12509000000E+03 0.  0.
<mgrwt>
<rscale>  2 0.44815759E+03</rscale>
<asrwt>0</asrwt>
<pdfrwt beam="1">  1       21 0.13934163E+00 0.44815759E+03</pdfrwt>
<pdfrwt beam="2">  1       21 0.77929664E-02 0.44815759E+03</pdfrwt>
<totfact> 0.41310511E+04</totfact>
</mgrwt>
</event>
<event>
 7    0  0.4737014E-002  0.4415500E+03  0.7546771E-02  0.1030272E+00
         21   -1    0    0  502  501  0.00000000000E+00  0.00000000000E+00  0.25308363814E+03  0.25308363814E+03  0.00000000000E+00 0.  1.
         21   -1    0    0  501  502 -0.00000000000E+00 -0.00000000000E+00 -0.19259084803E+03  0.19259084803E+03  0.00000000000E+00 0.  1.
      99926    2    1    2    0    0  0.00000000000E+00  0.00000000000E+00  0.60492790112E+02  0.44567448616E+03  0.44154996315E+03 0.  0.
      99925    2    3    3    0    0  0.36076674347E+02  0.34248835361E+02  0.12463652094E+03  0.29655562263E+03  0.26445503551E+03 0.  0.
         25    1    3    3    0    0 -0.36076674347E+02 -0.34248835361E+02 -0.64143730829E+02  0.14911886353E+03  0.12509000000E+03 0.  0.
         25    1    4    4    0    0  0.61273840498E+02  0.18555190178E+02  0.63987524037E+02  0.15440430675E+03  0.12509000000E+03 0.  0.
         25    1    4    4    0    0 -0.25197166151E+02  0.15693645183E+02  0.60648996904E+02  0.14215131588E+03  0.12509000000E+03 0.  0.
<mgrwt>
<rscale>  2 0.44154996E+03</rscale>
<asrwt>0</asrwt>
<pdfrwt beam="1">  1       21 0.37218182E-01 0.44154996E+03</pdfrwt>
<pdfrwt beam="2">  1       21 0.28322184E-01 0.44154996E+03</pdfrwt>
<totfact> 0.77190602E+04</totfact>
</mgrwt>
</event>
<event>
 7    0  0.4737014E-002  0.4584442E+03  0.7546771E-02  0.1025233E+00
         21   -1    0    0  502  501  0.00000000000E+00  0.00000000000E+00  0.72941328453E+03  0.72941328453E+03  0.00000000000E+00 0. -1.
         21   -1    0    0  501  502 -0.00000000000E+00 -0.00000000000E+00 -0.72034279574E+02  0.72034279574E+02  0.00000000000E+00 0. -1.
      99926    2    1    2    0    0  0.00000000000E+00  0.00000000000E+00  0.65737900496E+03  0.80144756410E+03  0.45844415347E+03 0.  0.
      99925    2    3    3    0    0 -0.20698645531E+02 -0.20894001340E+02  0.60917410263E+03  0.66420247703E+03  0.26307194825E+03 0.  0.
         25    1    3    3    0    0  0.20698645531E+02  0.20894001340E+02  0.48204902330E+02  0.13724508708E+03  0.12509000000E+03 0.  0.
         25    1    4    4    0    0 -0.16315763260E+02  0.11647021706E+01  0.20689249790E+03  0.24232122163E+03  0.12509000000E+03 0.  0.
         25    1    4    4    0    0 -0.43828822711E+01 -0.22058703511E+02  0.40228160473E+03  0.42188125540E+03  0.12509000000E+03 0.  0.
<mgrwt>
<rscale>  2 0.45844415E+03</rscale>
<asrwt>0</asrwt>
<pdfrwt beam="1">  1       21 0.10726666E+00 0.45844415E+03</pdfrwt>
<pdfrwt beam="2">  1       21 0.10593277E-01 0.45844415E+03</pdfrwt>
<totfact> 0.46427227E+04</totfact>
</mgrwt>
</event>
<event>
 7    0  0.4737014E-002  0.4565566E+03  0.7546771E-02  0.1025785E+00
         21   -1    0    0  502  501  0.00000000000E+00  0.00000000000E+00  0.53328035990E+03  0.53328035990E+03  0.00000000000E+00 0.  1.
         21   -1    0    0  501  502 -0.00000000000E+00 -0.00000000000E+00 -0.97717790060E+02  0.97717790060E+02  0.00000000000E+00 0.  1.
      99926    2    1    2    0    0  0.14210854715E-13  0.00000000000E+00  0.43556256984E+03  0.63099814996E+03  0.45655658248E+03 0.  0.
      99925    2    3    3    0    0 -0.94704041428E+02 -0.50204411073E+02  0.21766613128E+03  0.35783939687E+03  0.26302309954E+03 0.  0.
         25    1    4    4    0    0 -0.49410233824E+01 -0.17141026276E+02  0.10351976144E+03  0.16334649553E+03  0.12509000000E+03 0.  0.
         25    1    4    4    0    0 -0.89763018046E+02 -0.33063384797E+02  0.11414636984E+03  0.19449290134E+03  0.12509000000E+03 0.  0.
         25    1    3    3    0    0  0.94704041428E+02  0.50204411073E+02  0.21789643856E+03  0.27315875310E+03  0.12509000000E+03 0.  0.
<mgrwt>
<rscale>  2 0.45655658E+03</rscale>
<asrwt>0</asrwt>
<pdfrwt beam="1">  1       21 0.78423581E-01 0.45655658E+03</pdfrwt>
<pdfrwt beam="2">  1       21 0.14370264E-01 0.45655658E+03</pdfrwt>
<totfact> 0.56116966E+04</totfact>
</mgrwt>
</event>
<event>
 7    0  0.4737014E-002  0.4871324E+03  0.7546771E-02  0.1017193E+00
         21   -1    0    0  502  501  0.00000000000E+00  0.00000000000E+00  0.66655909124E+02  0.66655909124E+02  0.00000000000E+00 0. -1.
         21   -1    0    0  501  502 -0.00000000000E+00 -0.00000000000E+00 -0.89001101594E+03  0.89001101594E+03  0.00000000000E+00 0. -1.
      99926    2    1    2    0    0  0.00000000000E+00  0.00000000000E+00 -0.82335510682E+03  0.95666692507E+03  0.48713239842E+03 0.  0.
      99925    2    3    3    0    0  0.75751991268E+02  0.10438817880E+03 -0.61690910846E+03  0.68298332236E+03  0.26316176482E+03 0.  0.
         25    1    3    3    0    0 -0.75751991268E+02 -0.10438817880E+03 -0.20644599835E+03  0.27368360271E+03  0.12509000000E+03 0.  0.
         25    1    4    4    0    0  0.41512676187E+02  0.51970379741E+02 -0.40502890593E+03  0.42909223414E+03  0.12509000000E+03 0.  0.
         25    1    4    4    0    0  0.34239315081E+02  0.52417799057E+02 -0.21188020253E+03  0.25389108822E+03  0.12509000000E+03 0.  0.
<mgrwt>
<rscale>  2 0.48713240E+03</rscale>
<asrwt>0</asrwt>
<pdfrwt beam="1">  1       21 0.98023405E-02 0.48713240E+03</pdfrwt>
<pdfrwt beam="2">  1       21 0.13088396E+00 0.48713240E+03</pdfrwt>
<totfact> 0.32029333E+04</totfact>
</mgrwt>
</event>
<event>
 7    0  0.4737014E-002  0.4559023E+03  0.7546771E-02  0.1025976E+00
         21   -1    0    0  502  501  0.00000000000E+00  0.00000000000E+00  0.84558721988E+03  0.84558721988E+03  0.00000000000E+00 0.  1.
         21   -1    0    0  501  502 -0.00000000000E+00 -0.00000000000E+00 -0.61450450469E+02  0.61450450469E+02  0.00000000000E+00 0.  1.
      99926    2    1    2    0    0  0.00000000000E+00  0.00000000000E+00  0.78413676941E+03  0.90703767034E+03  0.45590225081E+03 0.  0.
      99925    2    3    3    0    0  0.76347601412E+02 -0.47393696130E+02  0.63263265482E+03  0.69099109317E+03  0.26300094337E+03 0.  0.
         25    1    4    4    0    0  0.12315549606E+02 -0.53542546737E+02  0.33525382070E+03  0.36202363109E+03  0.12509000000E+03 0.  0.
         25    1    3    3    0    0 -0.76347601412E+02  0.47393696130E+02  0.15150411459E+03  0.21604657718E+03  0.12509000000E+03 0.  0.
         25    1    4    4    0    0  0.64032051806E+02  0.61488506068E+01  0.29737883412E+03  0.32896746207E+03  0.12509000000E+03 0.  0.
<mgrwt>
<rscale>  2 0.45590225E+03</rscale>
<asrwt>0</asrwt>
<pdfrwt beam="1">  1       21 0.12435105E+00 0.45590225E+03</pdfrwt>
<pdfrwt beam="2">  1       21 0.90368314E-02 0.45590225E+03</pdfrwt>
<totfact> 0.42628928E+04</totfact>
</mgrwt>
</event>
<event>
 7    0  0.4737014E-002  0.4605617E+03  0.7546771E-02  0.1024618E+00
         21   -1    0    0  502  501  0.00000000000E+00  0.00000000000E+00  0.17717569788E+04  0.17717569788E+04  0.00000000000E+00 0.  1.
         21   -1    0    0  501  502 -0.00000000000E+00 -0.00000000000E+00 -0.29930332717E+02  0.29930332717E+02  0.00000000000E+00 0.  1.
      99926    2    1    2    0    0  0.00000000000E+00  0.00000000000E+00  0.17418266461E+04  0.18016873115E+04  0.46056172602E+03 0.  0.
      99925    2    3    3    0    0  0.73025364234E+02  0.93574403181E+02  0.11077571744E+04  0.11445872615E+04  0.26242173868E+03 0.  0.
         25    1    3    3    0    0 -0.73025364234E+02 -0.93574403181E+02  0.63406947167E+03  0.65710005004E+03  0.12509000000E+03 0.  0.
         25    1    4    4    0    0  0.12903548532E+02  0.59917830734E+02  0.66257425476E+03  0.67705893331E+03  0.12509000000E+03 0.  0.
         25    1    4    4    0    0  0.60121815702E+02  0.33656572447E+02  0.44518291965E+03  0.46752832817E+03  0.12509000000E+03 0.  0.
<mgrwt>
<rscale>  2 0.46056173E+03</rscale>
<asrwt>0</asrwt>
<pdfrwt beam="1">  1       21 0.26055243E+00 0.46056173E+03</pdfrwt>
<pdfrwt beam="2">  1       21 0.44015207E-02 0.46056173E+03</pdfrwt>
<totfact> 0.16502907E+04</totfact>
</mgrwt>
</event>
<event>
 7    0  0.4737014E-002  0.4701820E+03  0.7546771E-02  0.1021869E+00
         21   -1    0    0  502  501  0.00000000000E+00  0.00000000000E+00  0.20891702394E+03  0.20891702394E+03  0.00000000000E+00 0. -1.
         21   -1    0    0  501  502 -0.00000000000E+00 -0.00000000000E+00 -0.26454412387E+03  0.26454412387E+03  0.00000000000E+00 0. -1.
      99926    2    1    2    0    0 -0.14210854715E-13  0.00000000000E+00 -0.55627099933E+02  0.47346114782E+03  0.47018196929E+03 0.  0.
      99925    2    3    3    0    0 -0.74650076527E+02  0.17257372569E+02  0.67248463742E+02  0.28210712230E+03  0.26304300360E+03 0.  0.
         25    1    3    3    0    0  0.74650076527E+02 -0.17257372569E+02 -0.12287556368E+03  0.19135402552E+03  0.12509000000E+03 0.  0.
         25    1    4    4    0    0 -0.68428727985E+02 -0.17888295837E+02  0.40555885683E+02  0.14931433255E+03  0.12509000000E+03 0.  0.
         25    1    4    4    0    0 -0.62213485421E+01  0.35145668406E+02  0.26692578059E+02  0.13279278975E+03  0.12509000000E+03 0.  0.
<mgrwt>
<rscale>  2 0.47018197E+03</rscale>
<asrwt>0</asrwt>
<pdfrwt beam="1">  1       21 0.30723092E-01 0.47018197E+03</pdfrwt>
<pdfrwt beam="2">  1       21 0.38903547E-01 0.47018197E+03</pdfrwt>
<totfact> 0.59653930E+04</totfact>
</mgrwt>
</event>
<event>
 7    0  0.4737014E-002  0.4555995E+03  0.7546771E-02  0.1026065E+00
         21   -1    0    0  502  501  0.00000000000E+00  0.00000000000E+00  0.89844814312E+02  0.89844814312E+02  0.00000000000E+00 0.  1.
         21   -1    0    0  501  502 -0.00000000000E+00 -0.00000000000E+00 -0.57758179576E+03  0.57758179576E+03  0.00000000000E+00 0.  1.
      99926    2    1    2    0    0  0.00000000000E+00  0.00000000000E+00 -0.48773698145E+03  0.66742661007E+03  0.45559951356E+03 0.  0.
      99925    2    3    3    0    0  0.92493010033E+02 -0.48938670673E+02 -0.37197882324E+03  0.46743308596E+03  0.26301234672E+03 0.  0.
         25    1    4    4    0    0  0.49489619834E+02 -0.58857177930E+02 -0.23220793063E+03  0.27473882327E+03  0.12509000000E+03 0.  0.
         25    1    4    4    0    0  0.43003390198E+02  0.99185072576E+01 -0.13977089260E+03  0.19269426269E+03  0.12509000000E+03 0.  0.
         25    1    3    3    0    0 -0.92493010033E+02  0.48938670673E+02 -0.11575815821E+03  0.19999352411E+03  0.12509000000E+03 0.  0.
<mgrwt>
<rscale>  2 0.45559951E+03</rscale>
<asrwt>0</asrwt>
<pdfrwt beam="1">  1       21 0.13212472E-01 0.45559951E+03</pdfrwt>
<pdfrwt beam="2">  1       21 0.84938503E-01 0.45559951E+03</pdfrwt>
<totfact> 0.54449537E+04</totfact>
</mgrwt>
</event>
<event>
 7    0  0.4737014E-002  0.4567986E+03  0.7546771E-02  0.1025714E+00
         21   -1    0    0  502  501  0.00000000000E+00  0.00000000000E+00  0.50047708604E+03  0.50047708604E+03  0.00000000000E+00 0. -1.
         21   -1    0    0  501  502 -0.00000000000E+00 -0.00000000000E+00 -0.10423301036E+03  0.10423301036E+03  0.00000000000E+00 0. -1.
      99926    2    1    2    0    0  0.14210854715E-13  0.71054273576E-14  0.39624407568E+03  0.60471009639E+03  0.45679856958E+03 0.  0.
      99925    2    3    3    0    0 -0.84620296643E+02 -0.53721043133E+02  0.17480304921E+03  0.33134188064E+03  0.26303001877E+03 0.  0.
         25    1    3    3    0    0  0.84620296643E+02  0.53721043133E+02  0.22144102647E+03  0.27336821575E+03  0.12509000000E+03 0.  0.
         25    1    4    4    0    0 -0.59456483718E+02 -0.62505913464E+02  0.11256599709E+03  0.18910492980E+03  0.12509000000E+03 0.  0.
         25    1    4    4    0    0 -0.25163812926E+02  0.87848703310E+01  0.62237052122E+02  0.14223695084E+03  0.12509000000E+03 0.  0.
<mgrwt>
<rscale>  2 0.45679857E+03</rscale>
<asrwt>0</asrwt>
<pdfrwt beam="1">  1       21 0.73599570E-01 0.45679857E+03</pdfrwt>
<pdfrwt beam="2">  1       21 0.15328384E-01 0.45679857E+03</pdfrwt>
<totfact> 0.57566935E+04</totfact>
</mgrwt>
</event>
<event>
 7    0  0.4737014E-002  0.4516962E+03  0.7546771E-02  0.1027217E+00
         21   -1    0    0  502  501  0.00000000000E+00  0.00000000000E+00  0.48586957140E+03  0.48586957140E+03  0.00000000000E+00 0. -1.
         21   -1    0    0  501  502 -0.00000000000E+00 -0.00000000000E+00 -0.10498159656E+03  0.10498159656E+03  0.00000000000E+00 0. -1.
      99926    2    1    2    0    0  0.00000000000E+00 -0.14210854715E-13  0.38088797484E+03  0.59085116796E+03  0.45169619580E+03 0.  0.
      99925    2    3    3    0    0  0.13064301389E+02  0.10749426495E+03  0.21476808162E+03  0.35639643887E+03  0.26299695776E+03 0.  0.
         25    1    3    3    0    0 -0.13064301389E+02 -0.10749426495E+03  0.16611989322E+03  0.23445472909E+03  0.12509000000E+03 0.  0.
         25    1    4    4    0    0 -0.43332692980E+01  0.24543010891E+02  0.13425853187E+03  0.18518638742E+03  0.12509000000E+03 0.  0.
         25    1    4    4    0    0  0.17397570687E+02  0.82951254060E+02  0.80509549746E+02  0.17121005145E+03  0.12509000000E+03 0.  0.
<mgrwt>
<rscale>  2 0.45169620E+03</rscale>
<asrwt>0</asrwt>
<pdfrwt beam="1">  1       21 0.71451407E-01 0.45169620E+03</pdfrwt>
<pdfrwt beam="2">  1       21 0.15438470E-01 0.45169620E+03</pdfrwt>
<totfact> 0.60817462E+04</totfact>
</mgrwt>
</event>
<event>
 7    0  0.4737014E-002  0.4548301E+03  0.7546771E-02  0.1026291E+00
         21   -1    0    0  502  501  0.00000000000E+00  0.00000000000E+00  0.56097536088E+03  0.56097536088E+03  0.00000000000E+00 0.  1.
         21   -1    0    0  501  502 -0.00000000000E+00 -0.00000000000E+00 -0.92192290758E+02  0.92192290758E+02  0.00000000000E+00 0.  1.
      99926    2    1    2    0    0 -0.14210854715E-13 -0.35527136788E-14  0.46878307013E+03  0.65316765164E+03  0.45483009390E+03 0.  0.
      99925    2    3    3    0    0 -0.10179477175E+03  0.24110558640E+02  0.35644703907E+03  0.45515152461E+03  0.26299225102E+03 0.  0.
         25    1    3    3    0    0  0.10179477175E+03 -0.24110558640E+02  0.11233603105E+03  0.19801612703E+03  0.12509000000E+03 0.  0.
         25    1    4    4    0    0 -0.17089556496E+02  0.36072330102E+02  0.15725385724E+03  0.20486471062E+03  0.12509000000E+03 0.  0.
         25    1    4    4    0    0 -0.84705215252E+02 -0.11961771462E+02  0.19919318183E+03  0.25028681399E+03  0.12509000000E+03 0.  0.
<mgrwt>
<rscale>  2 0.45483009E+03</rscale>
<asrwt>0</asrwt>
<pdfrwt beam="1">  1       21 0.82496375E-01 0.45483009E+03</pdfrwt>
<pdfrwt beam="2">  1       21 0.13557690E-01 0.45483009E+03</pdfrwt>
<totfact> 0.55593845E+04</totfact>
</mgrwt>
</event>
<event>
 7    0  0.4737014E-002  0.4537049E+03  0.7546771E-02  0.1026623E+00
         21   -1    0    0  502  501  0.00000000000E+00  0.00000000000E+00  0.61276382729E+02  0.61276382729E+02  0.00000000000E+00 0.  1.
         21   -1    0    0  501  502 -0.00000000000E+00 -0.00000000000E+00 -0.83983458744E+03  0.83983458744E+03  0.00000000000E+00 0.  1.
      99926    2    1    2    0    0 -0.14210854715E-13 -0.14210854715E-13 -0.77855820471E+03  0.90111097017E+03  0.45370486270E+03 0.  0.
      99925    2    3    3    0    0 -0.58222700772E+02 -0.95413277781E+02 -0.50194812509E+03  0.57760792426E+03  0.26303120999E+03 0.  0.
         25    1    3    3    0    0  0.58222700772E+02  0.95413277781E+02 -0.27661007962E+03  0.32350304590E+03  0.12509000000E+03 0.  0.
         25    1    4    4    0    0  0.11892582720E+02 -0.38700095278E+02 -0.22307498790E+03  0.25893838886E+03  0.12509000000E+03 0.  0.
         25    1    4    4    0    0 -0.70115283492E+02 -0.56713182503E+02 -0.27887313719E+03  0.31866953540E+03  0.12509000000E+03 0.  0.
<mgrwt>
<rscale>  2 0.45370486E+03</rscale>
<asrwt>0</asrwt>
<pdfrwt beam="1">  1       21 0.90112337E-02 0.45370486E+03</pdfrwt>
<pdfrwt beam="2">  1       21 0.12350507E+00 0.45370486E+03</pdfrwt>
<totfact> 0.43626389E+04</totfact>
</mgrwt>
</event>
<event>
 7    0  0.4737014E-002  0.4734304E+03  0.7546771E-02  0.1020956E+00
         21   -1    0    0  502  501  0.00000000000E+00  0.00000000000E+00  0.85374574502E+03  0.85374574502E+03  0.00000000000E+00 0. -1.
         21   -1    0    0  501  502 -0.00000000000E+00 -0.00000000000E+00 -0.65633214531E+02  0.65633214531E+02  0.00000000000E+00 0. -1.
      99926    2    1    2    0    0  0.14210854715E-13  0.35527136788E-14  0.78811253048E+03  0.91937895955E+03  0.47343036505E+03 0.  0.
      99925    2    3    3    0    0  0.12716994525E+03  0.24954181180E+02  0.48553428505E+03  0.56724828942E+03  0.26312007479E+03 0.  0.
         25    1    4    4    0    0  0.31180680116E+02 -0.79671041720E+01  0.17597769443E+03  0.21829192976E+03  0.12509000000E+03 0.  0.
         25    1    4    4    0    0  0.95989265137E+02  0.32921285352E+02  0.30955659062E+03  0.34895635966E+03  0.12509000000E+03 0.  0.
         25    1    3    3    0    0 -0.12716994525E+03 -0.24954181180E+02  0.30257824543E+03  0.35213067013E+03  0.12509000000E+03 0.  0.
<mgrwt>
<rscale>  2 0.47343037E+03</rscale>
<asrwt>0</asrwt>
<pdfrwt beam="1">  1       21 0.12555084E+00 0.47343037E+03</pdfrwt>
<pdfrwt beam="2">  1       21 0.96519438E-02 0.47343037E+03</pdfrwt>
<totfact> 0.36802802E+04</totfact>
</mgrwt>
</event>
<event>
 7    0  0.4737014E-002  0.4474254E+03  0.7546771E-02  0.1028493E+00
         21   -1    0    0  502  501  0.00000000000E+00  0.00000000000E+00  0.13200384105E+03  0.13200384105E+03  0.00000000000E+00 0. -1.
         21   -1    0    0  501  502 -0.00000000000E+00 -0.00000000000E+00 -0.37913570548E+03  0.37913570548E+03  0.00000000000E+00 0. -1.
      99926    2    1    2    0    0  0.00000000000E+00  0.00000000000E+00 -0.24713186443E+03  0.51113954654E+03  0.44742538777E+03 0.  0.
      99925    2    3    3    0    0 -0.49222267135E+02 -0.85144146781E+02 -0.11194047335E+03  0.30234161160E+03  0.26307303780E+03 0.  0.
         25    1    4    4    0    0 -0.49768094994E+02 -0.11059836391E+02 -0.61897452734E+02  0.14858662798E+03  0.12509000000E+03 0.  0.
         25    1    4    4    0    0  0.54582785880E+00 -0.74084310390E+02 -0.50043020618E+02  0.15375498362E+03  0.12509000000E+03 0.  0.
         25    1    3    3    0    0  0.49222267135E+02  0.85144146781E+02 -0.13519139108E+03  0.20879793494E+03  0.12509000000E+03 0.  0.
<mgrwt>
<rscale>  2 0.44742539E+03</rscale>
<asrwt>0</asrwt>
<pdfrwt beam="1">  1       21 0.19412330E-01 0.44742539E+03</pdfrwt>
<pdfrwt beam="2">  1       21 0.55755251E-01 0.44742539E+03</pdfrwt>
<totfact> 0.68521684E+04</totfact>
</mgrwt>
</event>
<event>
 7    0  0.4737014E-002  0.4616410E+03  0.7546771E-02  0.1024306E+00
         21   -1    0    0  502  501  0.00000000000E+00  0.00000000000E+00  0.31011154063E+03  0.31011154063E+03  0.00000000000E+00 0.  1.
         21   -1    0    0  501  502 -0.00000000000E+00 -0.00000000000E+00 -0.17180301004E+03  0.17180301004E+03  0.00000000000E+00 0.  1.
      99926    2    1    2    0    0  0.00000000000E+00  0.44408920985E-15  0.13830853060E+03  0.48191455067E+03  0.46164096927E+03 0.  0.
      99925    2    3    3    0    0  0.52106954363E+02 -0.38833813884E+01 -0.25401300793E+02  0.26936189287E+03  0.26302164912E+03 0.  0.
         25    1    3    3    0    0 -0.52106954363E+02  0.38833813884E+01  0.16370983139E+03  0.21255265780E+03  0.12509000000E+03 0.  0.
         25    1    4    4    0    0  0.14626737838E+02 -0.39196672599E+02 -0.10048129172E+01  0.13190465629E+03  0.12509000000E+03 0.  0.
         25    1    4    4    0    0  0.37480216525E+02  0.35313291211E+02 -0.24396487876E+02  0.13745723658E+03  0.12509000000E+03 0.  0.
<mgrwt>
<rscale>  2 0.46164097E+03</rscale>
<asrwt>0</asrwt>
<pdfrwt beam="1">  1       21 0.45604639E-01 0.46164097E+03</pdfrwt>
<pdfrwt beam="2">  1       21 0.25265148E-01 0.46164097E+03</pdfrwt>
<totfact> 0.63165407E+04</totfact>
</mgrwt>
</event>
<event>
 7    0  0.4737014E-002  0.4679238E+03  0.7546771E-02  0.1022508E+00
         21   -1    0    0  502  501  0.00000000000E+00  0.00000000000E+00  0.12957556511E+03  0.12957556511E+03  0.00000000000E+00 0.  1.
         21   -1    0    0  501  502 -0.00000000000E+00 -0.00000000000E+00 -0.42244208651E+03  0.42244208651E+03  0.00000000000E+00 0.  1.
      99926    2    1    2    0    0  0.35527136788E-14 -0.35527136788E-14 -0.29286652140E+03  0.55201765161E+03  0.46792380612E+03 0.  0.
      99925    2    3    3    0    0  0.23297202318E+02 -0.16738784433E+02 -0.38660751435E+02  0.26725278699E+03  0.26288106039E+03 0.  0.
         25    1    3    3    0    0 -0.23297202318E+02  0.16738784433E+02 -0.25420576997E+03  0.28476486462E+03  0.12509000000E+03 0.  0.
         25    1    4    4    0    0 -0.21014338456E+02 -0.32080966384E+02 -0.20519875795E+02  0.13243626477E+03  0.12509000000E+03 0.  0.
         25    1    4    4    0    0  0.44311540774E+02  0.15342181951E+02 -0.18140875640E+02  0.13481652221E+03  0.12509000000E+03 0.  0.
<mgrwt>
<rscale>  2 0.46792381E+03</rscale>
<asrwt>0</asrwt>
<pdfrwt beam="1">  1       21 0.19055230E-01 0.46792381E+03</pdfrwt>
<pdfrwt beam="2">  1       21 0.62123835E-01 0.46792381E+03</pdfrwt>
<totfact> 0.55803197E+04</totfact>
</mgrwt>
</event>
<event>
 7    0  0.4737014E-002  0.4431361E+03  0.7546771E-02  0.1029789E+00
         21   -1    0    0  502  501  0.00000000000E+00  0.00000000000E+00  0.10272375678E+04  0.10272375678E+04  0.00000000000E+00 0.  1.
         21   -1    0    0  501  502 -0.00000000000E+00 -0.00000000000E+00 -0.47790687991E+02  0.47790687991E+02  0.00000000000E+00 0.  1.
      99926    2    1    2    0    0 -0.17763568394E-14 -0.14210854715E-13  0.97944687980E+03  0.10750282558E+04  0.44313605177E+03 0.  0.
      99925    2    3    3    0    0 -0.84994361763E+01  0.10096107519E+03  0.62337242745E+03  0.68425734741E+03  0.26334303684E+03 0.  0.
         25    1    4    4    0    0  0.20470298774E+02  0.29649619579E+02  0.22886158779E+03  0.26329312095E+03  0.12509000000E+03 0.  0.
         25    1    3    3    0    0  0.84994361763E+01 -0.10096107519E+03  0.35607445235E+03  0.39077090838E+03  0.12509000000E+03 0.  0.
         25    1    4    4    0    0 -0.28969734950E+02  0.71311455615E+02  0.39451083966E+03  0.42096422646E+03  0.12509000000E+03 0.  0.
<mgrwt>
<rscale>  2 0.44313605E+03</rscale>
<asrwt>0</asrwt>
<pdfrwt beam="1">  1       21 0.15106433E+00 0.44313605E+03</pdfrwt>
<pdfrwt beam="2">  1       21 0.70280430E-02 0.44313605E+03</pdfrwt>
<totfact> 0.39943901E+04</totfact>
</mgrwt>
</event>
<event>
 7    0  0.4737014E-002  0.4627293E+03  0.7546771E-02  0.1023993E+00
         21   -1    0    0  502  501  0.00000000000E+00  0.00000000000E+00  0.57280706077E+03  0.57280706077E+03  0.00000000000E+00 0.  1.
         21   -1    0    0  501  502 -0.00000000000E+00 -0.00000000000E+00 -0.93451369633E+02  0.93451369633E+02  0.00000000000E+00 0.  1.
      99926    2    1    2    0    0  0.00000000000E+00 -0.71054273576E-14  0.47935569114E+03  0.66625843041E+03  0.46272931338E+03 0.  0.
      99925    2    3    3    0    0  0.39297727563E+02 -0.47733902224E+02  0.14878025622E+03  0.30744028275E+03  0.26184179575E+03 0.  0.
         25    1    4    4    0    0  0.52477696599E+01 -0.59554191158E+02  0.70502814043E+02  0.15553904866E+03  0.12509000000E+03 0.  0.
         25    1    3    3    0    0 -0.39297727563E+02  0.47733902224E+02  0.33057543492E+03  0.35881814766E+03  0.12509000000E+03 0.  0.
         25    1    4    4    0    0  0.34049957904E+02  0.11820288935E+02  0.78277442173E+02  0.15190123409E+03  0.12509000000E+03 0.  0.
<mgrwt>
<rscale>  2 0.46272931E+03</rscale>
<asrwt>0</asrwt>
<pdfrwt beam="1">  1       21 0.84236331E-01 0.46272931E+03</pdfrwt>
<pdfrwt beam="2">  1       21 0.13742849E-01 0.46272931E+03</pdfrwt>
<totfact> 0.51558690E+04</totfact>
</mgrwt>
</event>
<event>
 7    0  0.4737014E-002  0.4553290E+03  0.7546771E-02  0.1026145E+00
         21   -1    0    0  502  501  0.00000000000E+00  0.00000000000E+00  0.61712533754E+03  0.61712533754E+03  0.00000000000E+00 0. -1.
         21   -1    0    0  501  502 -0.00000000000E+00 -0.00000000000E+00 -0.83988018293E+02  0.83988018293E+02  0.00000000000E+00 0. -1.
      99926    2    1    2    0    0  0.00000000000E+00  0.00000000000E+00  0.53313731925E+03  0.70111335583E+03  0.45532904207E+03 0.  0.
      99925    2    3    3    0    0 -0.85252136752E+02  0.69477029309E+02  0.29234939889E+03  0.40833132921E+03  0.26300440864E+03 0.  0.
         25    1    3    3    0    0  0.85252136752E+02 -0.69477029309E+02  0.24078792036E+03  0.29278202662E+03  0.12509000000E+03 0.  0.
         25    1    4    4    0    0 -0.39688638170E+02  0.62898549783E+02  0.19479172033E+03  0.24315167689E+03  0.12509000000E+03 0.  0.
         25    1    4    4    0    0 -0.45563498582E+02  0.65784795254E+01  0.97557678562E+02  0.16517965233E+03  0.12509000000E+03 0.  0.
<mgrwt>
<rscale>  2 0.45532904E+03</rscale>
<asrwt>0</asrwt>
<pdfrwt beam="1">  1       21 0.90753724E-01 0.45532904E+03</pdfrwt>
<pdfrwt beam="2">  1       21 0.12351180E-01 0.45532904E+03</pdfrwt>
<totfact> 0.52705938E+04</totfact>
</mgrwt>
</event>
<event>
 7    0  0.4737014E-002  0.4557324E+03  0.7546771E-02  0.1026026E+00
         21   -1    0    0  502  501  0.00000000000E+00  0.00000000000E+00  0.18704408630E+02  0.18704408630E+02  0.00000000000E+00 0.  1.
         21   -1    0    0  501  502 -0.00000000000E+00 -0.00000000000E+00 -0.27759770662E+04  0.27759770662E+04  0.00000000000E+00 0.  1.
      99926    2    1    2    0    0 -0.14210854715E-13  0.00000000000E+00 -0.27572726575E+04  0.27946814748E+04  0.45573241882E+03 0.  0.
      99925    2    3    3    0    0  0.10810468445E+03 -0.36744979672E+02 -0.17640519462E+04  0.17871241783E+04  0.26248189118E+03 0.  0.
         25    1    4    4    0    0  0.13754183603E+02 -0.86636781332E+01 -0.85162581620E+03  0.86091711320E+03  0.12509000000E+03 0.  0.
         25    1    3    3    0    0 -0.10810468445E+03  0.36744979672E+02 -0.99322071130E+03  0.10075572965E+04  0.12509000000E+03 0.  0.
         25    1    4    4    0    0  0.94350500843E+02 -0.28081301538E+02 -0.91242613003E+03  0.92620706506E+03  0.12509000000E+03 0.  0.
<mgrwt>
<rscale>  2 0.45573242E+03</rscale>
<asrwt>0</asrwt>
<pdfrwt beam="1">  1       21 0.27506500E-02 0.45573242E+03</pdfrwt>
<pdfrwt beam="2">  1       21 0.40823168E+00 0.45573242E+03</pdfrwt>
<totfact> 0.45365366E+03</totfact>
</mgrwt>
</event>
<event>
 7    0  0.4737014E-002  0.4563322E+03  0.7546771E-02  0.1025850E+00
         21   -1    0    0  502  501  0.00000000000E+00  0.00000000000E+00  0.51230058332E+02  0.51230058332E+02  0.00000000000E+00 0. -1.
         21   -1    0    0  501  502 -0.00000000000E+00 -0.00000000000E+00 -0.10161959832E+04  0.10161959832E+04  0.00000000000E+00 0. -1.
      99926    2    1    2    0    0  0.14210854715E-13 -0.35527136788E-14 -0.96496592484E+03  0.10674260415E+04  0.45633224517E+03 0.  0.
      99925    2    3    3    0    0 -0.10564127885E+03 -0.25398391137E+01 -0.50414025703E+03  0.57837150999E+03  0.26303930169E+03 0.  0.
         25    1    4    4    0    0 -0.53039435605E+02 -0.39119534409E+02 -0.28290485401E+03  0.31626916420E+03  0.12509000000E+03 0.  0.
         25    1    4    4    0    0 -0.52601843243E+02  0.36579695295E+02 -0.22123540302E+03  0.26210234579E+03  0.12509000000E+03 0.  0.
         25    1    3    3    0    0  0.10564127885E+03  0.25398391137E+01 -0.46082566781E+03  0.48905453151E+03  0.12509000000E+03 0.  0.
<mgrwt>
<rscale>  2 0.45633225E+03</rscale>
<asrwt>0</asrwt>
<pdfrwt beam="1">  1       21 0.75338318E-02 0.45633225E+03</pdfrwt>
<pdfrwt beam="2">  1       21 0.14944059E+00 0.45633225E+03</pdfrwt>
<totfact> 0.36265893E+04</totfact>
</mgrwt>
</event>
<event>
 7    0  0.4737014E-002  0.4541218E+03  0.7546771E-02  0.1026500E+00
         21   -1    0    0  502  501  0.00000000000E+00  0.00000000000E+00  0.23183991788E+03  0.23183991788E+03  0.00000000000E+00 0. -1.
         21   -1    0    0  501  502 -0.00000000000E+00 -0.00000000000E+00 -0.22238043875E+03  0.22238043875E+03  0.00000000000E+00 0. -1.
      99926    2    1    2    0    0  0.00000000000E+00  0.00000000000E+00  0.94594791375E+01  0.45422035663E+03  0.45412184558E+03 0.  0.
      99925    2    3    3    0    0  0.88732707865E+02 -0.43868034296E+02  0.59034164349E+02  0.28717827992E+03  0.26303694421E+03 0.  0.
         25    1    4    4    0    0  0.40512938745E+02  0.11009151538E+02  0.33628644451E+01  0.13198983514E+03  0.12509000000E+03 0.  0.
         25    1    4    4    0    0  0.48219769119E+02 -0.54877185833E+02  0.55671299904E+02  0.15518844478E+03  0.12509000000E+03 0.  0.
         25    1    3    3    0    0 -0.88732707865E+02  0.43868034296E+02 -0.49574685212E+02  0.16704207671E+03  0.12509000000E+03 0.  0.
<mgrwt>
<rscale>  2 0.45412185E+03</rscale>
<asrwt>0</asrwt>
<pdfrwt beam="1">  1       21 0.34094105E-01 0.45412185E+03</pdfrwt>
<pdfrwt beam="2">  1       21 0.32703006E-01 0.45412185E+03</pdfrwt>
<totfact> 0.69085748E+04</totfact>
</mgrwt>
</event>
<event>
 7    0  0.4737014E-002  0.4562458E+03  0.7546771E-02  0.1025876E+00
         21   -1    0    0  502  501  0.00000000000E+00  0.00000000000E+00  0.17282016751E+03  0.17282016751E+03  0.00000000000E+00 0.  1.
         21   -1    0    0  501  502 -0.00000000000E+00 -0.00000000000E+00 -0.30112262210E+03  0.30112262210E+03  0.00000000000E+00 0.  1.
      99926    2    1    2    0    0 -0.35527136788E-14  0.00000000000E+00 -0.12830245459E+03  0.47394278961E+03  0.45624581967E+03 0.  0.
      99925    2    3    3    0    0 -0.26905497884E+02 -0.52914865046E+02  0.20707359792E+02  0.27053354292E+03  0.26312680277E+03 0.  0.
         25    1    4    4    0    0 -0.44728923897E+02 -0.43825306528E+02  0.31510868664E+02  0.14339378323E+03  0.12509000000E+03 0.  0.
         25    1    4    4    0    0  0.17823426013E+02 -0.90895585177E+01 -0.10803508872E+02  0.12713975969E+03  0.12509000000E+03 0.  0.
         25    1    3    3    0    0  0.26905497884E+02  0.52914865046E+02 -0.14900981438E+03  0.20340924669E+03  0.12509000000E+03 0.  0.
<mgrwt>
<rscale>  2 0.45624582E+03</rscale>
<asrwt>0</asrwt>
<pdfrwt beam="1">  1       21 0.25414731E-01 0.45624582E+03</pdfrwt>
<pdfrwt beam="2">  1       21 0.44282738E-01 0.45624582E+03</pdfrwt>
<totfact> 0.66484096E+04</totfact>
</mgrwt>
</event>
<event>
 7    0  0.4737014E-002  0.4622097E+03  0.7546771E-02  0.1024142E+00
         21   -1    0    0  502  501  0.00000000000E+00  0.00000000000E+00  0.84165539173E+02  0.84165539173E+02  0.00000000000E+00 0. -1.
         21   -1    0    0  501  502 -0.00000000000E+00 -0.00000000000E+00 -0.63457628062E+03  0.63457628062E+03  0.00000000000E+00 0. -1.
      99926    2    1    2    0    0 -0.71054273576E-14  0.00000000000E+00 -0.55041074145E+03  0.71874181980E+03  0.46220971346E+03 0.  0.
      99925    2    3    3    0    0 -0.41734230034E+02  0.10098652116E+03 -0.26850048761E+03  0.39154016526E+03  0.26319415980E+03 0.  0.
         25    1    4    4    0    0 -0.27157780458E+01  0.22319878748E+02 -0.85809486969E+02  0.15335034591E+03  0.12509000000E+03 0.  0.
         25    1    4    4    0    0 -0.39018451988E+02  0.78666642412E+02 -0.18269100065E+03  0.23818981935E+03  0.12509000000E+03 0.  0.
         25    1    3    3    0    0  0.41734230034E+02 -0.10098652116E+03 -0.28191025384E+03  0.32720165454E+03  0.12509000000E+03 0.  0.
<mgrwt>
<rscale>  2 0.46220971E+03</rscale>
<asrwt>0</asrwt>
<pdfrwt beam="1">  1       21 0.12377285E-01 0.46220971E+03</pdfrwt>
<pdfrwt beam="2">  1       21 0.93320042E-01 0.46220971E+03</pdfrwt>
<totfact> 0.49055450E+04</totfact>
</mgrwt>
</event>
<event>
 7    0  0.4737014E-002  0.4558082E+03  0.7546771E-02  0.1026004E+00
         21   -1    0    0  502  501  0.00000000000E+00  0.00000000000E+00  0.30181311168E+03  0.30181311168E+03  0.00000000000E+00 0. -1.
         21   -1    0    0  501  502 -0.00000000000E+00 -0.00000000000E+00 -0.17209414893E+03  0.17209414893E+03  0.00000000000E+00 0. -1.
      99926    2    1    2    0    0  0.00000000000E+00  0.00000000000E+00  0.12971896274E+03  0.47390726061E+03  0.45580816399E+03 0.  0.
      99925    2    3    3    0    0 -0.21803683322E+02  0.84726431862E+02  0.54022686253E+01  0.27704152616E+03  0.26280953911E+03 0.  0.
         25    1    4    4    0    0 -0.12639971336E+02  0.61680746403E+01  0.23135522387E+02  0.12798661850E+03  0.12509000000E+03 0.  0.
         25    1    4    4    0    0 -0.91637119859E+01  0.78558357222E+02 -0.17733253762E+02  0.14905490765E+03  0.12509000000E+03 0.  0.
         25    1    3    3    0    0  0.21803683322E+02 -0.84726431862E+02  0.12431669412E+03  0.19686573445E+03  0.12509000000E+03 0.  0.
<mgrwt>
<rscale>  2 0.45580816E+03</rscale>
<asrwt>0</asrwt>
<pdfrwt beam="1">  1       21 0.44384281E-01 0.45580816E+03</pdfrwt>
<pdfrwt beam="2">  1       21 0.25307963E-01 0.45580816E+03</pdfrwt>
<totfact> 0.66717501E+04</totfact>
</mgrwt>
</event>
<event>
 7    0  0.4737014E-002  0.4497811E+03  0.7546771E-02  0.1027787E+00
         21   -1    0    0  502  501  0.00000000000E+00  0.00000000000E+00  0.41878519502E+02  0.41878519502E+02  0.00000000000E+00 0.  1.
         21   -1    0    0  501  502 -0.00000000000E+00 -0.00000000000E+00 -0.12076778179E+04  0.12076778179E+04  0.00000000000E+00 0.  1.
      99926    2    1    2    0    0  0.00000000000E+00  0.14210854715E-13 -0.11657992984E+04  0.12495563374E+04  0.44978109809E+03 0.  0.
      99925    2    3    3    0    0  0.62276037419E+02 -0.75048064359E+02 -0.86262981261E+03  0.90740174951E+03  0.26407806539E+03 0.  0.
         25    1    3    3    0    0 -0.62276037419E+02  0.75048064359E+02 -0.30316948581E+03  0.34215458790E+03  0.12509000000E+03 0.  0.
         25    1    4    4    0    0  0.42896019873E+02 -0.79163753810E+02 -0.50592330282E+03  0.52887887543E+03  0.12509000000E+03 0.  0.
         25    1    4    4    0    0  0.19380017547E+02  0.41156894519E+01 -0.35670650979E+03  0.37852287408E+03  0.12509000000E+03 0.  0.
<mgrwt>
<rscale>  2 0.44978110E+03</rscale>
<asrwt>0</asrwt>
<pdfrwt beam="1">  1       21 0.61586062E-02 0.44978110E+03</pdfrwt>
<pdfrwt beam="2">  1       21 0.17759967E+00 0.44978110E+03</pdfrwt>
<totfact> 0.31891641E+04</totfact>
</mgrwt>
</event>
<event>
 7    0  0.4737014E-002  0.4605918E+03  0.7546771E-02  0.1024610E+00
         21   -1    0    0  502  501  0.00000000000E+00  0.00000000000E+00  0.11108538088E+03  0.11108538088E+03  0.00000000000E+00 0. -1.
         21   -1    0    0  501  502 -0.00000000000E+00 -0.00000000000E+00 -0.47743641375E+03  0.47743641375E+03  0.00000000000E+00 0. -1.
      99926    2    1    2    0    0  0.00000000000E+00  0.17763568394E-14 -0.36635103287E+03  0.58852179463E+03  0.46059181872E+03 0.  0.
      99925    2    3    3    0    0 -0.18032076517E+02 -0.15030765671E+02 -0.81397621362E+02  0.27643681497E+03  0.26313620087E+03 0.  0.
         25    1    4    4    0    0 -0.12204192733E+02  0.14758994098E+02 -0.75974921226E+02  0.14760239491E+03  0.12509000000E+03 0.  0.
         25    1    3    3    0    0  0.18032076517E+02  0.15030765671E+02 -0.28495341151E+03  0.31208497966E+03  0.12509000000E+03 0.  0.
         25    1    4    4    0    0 -0.58278837842E+01 -0.29789759769E+02 -0.54227001355E+01  0.12883442006E+03  0.12509000000E+03 0.  0.
<mgrwt>
<rscale>  2 0.46059182E+03</rscale>
<asrwt>0</asrwt>
<pdfrwt beam="1">  1       21 0.16336085E-01 0.46059182E+03</pdfrwt>
<pdfrwt beam="2">  1       21 0.70211238E-01 0.46059182E+03</pdfrwt>
<totfact> 0.56836388E+04</totfact>
</mgrwt>
</event>
<event>
 7    0  0.4737014E-002  0.4568066E+03  0.7546771E-02  0.1025711E+00
         21   -1    0    0  502  501  0.00000000000E+00  0.00000000000E+00  0.29423253175E+02  0.29423253175E+02  0.00000000000E+00 0.  1.
         21   -1    0    0  501  502 -0.00000000000E+00 -0.00000000000E+00 -0.17730217943E+04  0.17730217943E+04  0.00000000000E+00 0.  1.
      99926    2    1    2    0    0  0.00000000000E+00  0.00000000000E+00 -0.17435985411E+04  0.18024450475E+04  0.45680660739E+03 0.  0.
      99925    2    3    3    0    0 -0.93619941076E+02  0.63057231264E+02 -0.11785299169E+04  0.12127917884E+04  0.26304039451E+03 0.  0.
         25    1    4    4    0    0 -0.58698710776E+02 -0.27402652393E+01 -0.65320517930E+03  0.66766575624E+03  0.12509000000E+03 0.  0.
         25    1    4    4    0    0 -0.34921230299E+02  0.65797496503E+02 -0.52532473758E+03  0.54512603211E+03  0.12509000000E+03 0.  0.
         25    1    3    3    0    0  0.93619941076E+02 -0.63057231264E+02 -0.56506862425E+03  0.58965325912E+03  0.12509000000E+03 0.  0.
<mgrwt>
<rscale>  2 0.45680661E+03</rscale>
<asrwt>0</asrwt>
<pdfrwt beam="1">  1       21 0.43269487E-02 0.45680661E+03</pdfrwt>
<pdfrwt beam="2">  1       21 0.26073852E+00 0.45680661E+03</pdfrwt>
<totfact> 0.16973204E+04</totfact>
</mgrwt>
</event>
<event>
 7    0  0.4737014E-002  0.4506177E+03  0.7546771E-02  0.1027538E+00
         21   -1    0    0  502  501  0.00000000000E+00  0.00000000000E+00  0.38459030018E+03  0.38459030018E+03  0.00000000000E+00 0. -1.
         21   -1    0    0  501  502 -0.00000000000E+00 -0.00000000000E+00 -0.13199522694E+03  0.13199522694E+03  0.00000000000E+00 0. -1.
      99926    2    1    2    0    0  0.00000000000E+00  0.00000000000E+00  0.25259507324E+03  0.51658552712E+03  0.45061772691E+03 0.  0.
      99925    2    3    3    0    0  0.10147228757E+03 -0.23548067952E+02  0.12237131622E+03  0.30812240894E+03  0.26289454769E+03 0.  0.
         25    1    4    4    0    0  0.29570039334E+02 -0.46437906837E+02  0.61175065803E+02  0.14973564437E+03  0.12509000000E+03 0.  0.
         25    1    3    3    0    0 -0.10147228757E+03  0.23548067952E+02  0.13022375702E+03  0.20846311818E+03  0.12509000000E+03 0.  0.
         25    1    4    4    0    0  0.71902248239E+02  0.22889838885E+02  0.61196250416E+02  0.15838676457E+03  0.12509000000E+03 0.  0.
<mgrwt>
<rscale>  2 0.45061773E+03</rscale>
<asrwt>0</asrwt>
<pdfrwt beam="1">  1       21 0.56557397E-01 0.45061773E+03</pdfrwt>
<pdfrwt beam="2">  1       21 0.19411063E-01 0.45061773E+03</pdfrwt>
<totfact> 0.66399266E+04</totfact>
</mgrwt>
</event>
<event>
 7    0  0.4737014E-002  0.4516478E+03  0.7546771E-02  0.1027232E+00
         21   -1    0    0  502  501  0.00000000000E+00  0.00000000000E+00  0.86685949925E+02  0.86685949925E+02  0.00000000000E+00 0.  1.
         21   -1    0    0  501  502 -0.00000000000E+00 -0.00000000000E+00 -0.58828957744E+03  0.58828957744E+03  0.00000000000E+00 0.  1.
      99926    2    1    2    0    0  0.00000000000E+00 -0.35527136788E-14 -0.50160362752E+03  0.67497552737E+03  0.45164783118E+03 0.  0.
      99925    2    3    3    0    0 -0.92009613180E+02  0.30705397823E+02 -0.39490624259E+03  0.48408175999E+03  0.26263209923E+03 0.  0.
         25    1    3    3    0    0  0.92009613180E+02 -0.30705397823E+02 -0.10669738493E+03  0.19089376738E+03  0.12509000000E+03 0.  0.
         25    1    4    4    0    0 -0.95082884790E+01 -0.32650737637E+01 -0.19617990670E+03  0.23288437507E+03  0.12509000000E+03 0.  0.
         25    1    4    4    0    0 -0.82501324700E+02  0.33970471587E+02 -0.19872633589E+03  0.25119738492E+03  0.12509000000E+03 0.  0.
<mgrwt>
<rscale>  2 0.45164783E+03</rscale>
<asrwt>0</asrwt>
<pdfrwt beam="1">  1       21 0.12747934E-01 0.45164783E+03</pdfrwt>
<pdfrwt beam="2">  1       21 0.86513172E-01 0.45164783E+03</pdfrwt>
<totfact> 0.55740476E+04</totfact>
</mgrwt>
</event>
<event>
 7    0  0.4737014E-002  0.4517888E+03  0.7546771E-02  0.1027190E+00
         21   -1    0    0  502  501  0.00000000000E+00  0.00000000000E+00  0.89025648368E+03  0.89025648368E+03  0.00000000000E+00 0. -1.
         21   -1    0    0  501  502 -0.00000000000E+00 -0.00000000000E+00 -0.57318637079E+02  0.57318637079E+02  0.00000000000E+00 0. -1.
      99926    2    1    2    0    0 -0.35527136788E-14  0.71054273576E-14  0.83293784660E+03  0.94757512076E+03  0.45178883694E+03 0.  0.
      99925    2    3    3    0    0  0.27424475759E+02 -0.60529222644E+02  0.70977420816E+03  0.75987142181E+03  0.26307653345E+03 0.  0.
         25    1    3    3    0    0 -0.27424475759E+02  0.60529222644E+02  0.12316363844E+03  0.18770369895E+03  0.12509000000E+03 0.  0.
         25    1    4    4    0    0  0.25268643431E+02 -0.33741981656E+02  0.46889923363E+03  0.48712526630E+03  0.12509000000E+03 0.  0.
         25    1    4    4    0    0  0.21558323272E+01 -0.26787240988E+02  0.24087497453E+03  0.27274615551E+03  0.12509000000E+03 0.  0.
<mgrwt>
<rscale>  2 0.45178884E+03</rscale>
<asrwt>0</asrwt>
<pdfrwt beam="1">  1       21 0.13092006E+00 0.45178884E+03</pdfrwt>
<pdfrwt beam="2">  1       21 0.84292119E-02 0.45178884E+03</pdfrwt>
<totfact> 0.42291184E+04</totfact>
</mgrwt>
</event>
<event>
 7    0  0.4737014E-002  0.4566591E+03  0.7546771E-02  0.1025755E+00
         21   -1    0    0  502  501  0.00000000000E+00  0.00000000000E+00  0.13008013519E+03  0.13008013519E+03  0.00000000000E+00 0.  1.
         21   -1    0    0  501  502 -0.00000000000E+00 -0.00000000000E+00 -0.40078672429E+03  0.40078672429E+03  0.00000000000E+00 0.  1.
      99926    2    1    2    0    0  0.00000000000E+00 -0.14210854715E-13 -0.27070658910E+03  0.53086685948E+03  0.45665913449E+03 0.  0.
      99925    2    3    3    0    0 -0.87384661939E+02 -0.59499933901E+02 -0.21960681421E+03  0.35930049806E+03  0.26399502606E+03 0.  0.
         25    1    3    3    0    0  0.87384661939E+02  0.59499933901E+02 -0.51099774887E+02  0.17156636142E+03  0.12509000000E+03 0.  0.
         25    1    4    4    0    0 -0.43616898744E+02 -0.89003596174E+01 -0.59816138164E+02  0.14562667593E+03  0.12509000000E+03 0.  0.
         25    1    4    4    0    0 -0.43767763196E+02 -0.50599574284E+02 -0.15979067605E+03  0.21367382213E+03  0.12509000000E+03 0.  0.
<mgrwt>
<rscale>  2 0.45665913E+03</rscale>
<asrwt>0</asrwt>
<pdfrwt beam="1">  1       21 0.19129431E-01 0.45665913E+03</pdfrwt>
<pdfrwt beam="2">  1       21 0.58939225E-01 0.45665913E+03</pdfrwt>
<totfact> 0.62324260E+04</totfact>
</mgrwt>
</event>
<event>
 7    0  0.4737014E-002  0.4649226E+03  0.7546771E-02  0.1023363E+00
         21   -1    0    0  502  501  0.00000000000E+00  0.00000000000E+00  0.21518279206E+03  0.21518279206E+03  0.00000000000E+00 0. -1.
         21   -1    0    0  501  502 -0.00000000000E+00 -0.00000000000E+00 -0.25112720436E+03  0.25112720436E+03  0.00000000000E+00 0. -1.
      99926    2    1    2    0    0 -0.14210854715E-13  0.00000000000E+00 -0.35944412299E+02  0.46630999643E+03  0.46492258710E+03 0.  0.
      99925    2    3    3    0    0 -0.79488363044E+02 -0.89858255062E+02 -0.46249960107E+02  0.29268218103E+03  0.26292754596E+03 0.  0.
         25    1    3    3    0    0  0.79488363044E+02  0.89858255062E+02  0.10305547808E+02  0.17362781539E+03  0.12509000000E+03 0.  0.
         25    1    4    4    0    0 -0.79011128851E+02 -0.59400720733E+02 -0.36573142689E+02  0.16357355218E+03  0.12509000000E+03 0.  0.
         25    1    4    4    0    0 -0.47723419326E+00 -0.30457534329E+02 -0.96768174177E+01  0.12910862886E+03  0.12509000000E+03 0.  0.
<mgrwt>
<rscale>  2 0.46492259E+03</rscale>
<asrwt>0</asrwt>
<pdfrwt beam="1">  1       21 0.31644528E-01 0.46492259E+03</pdfrwt>
<pdfrwt beam="2">  1       21 0.36930471E-01 0.46492259E+03</pdfrwt>
<totfact> 0.62618786E+04</totfact>
</mgrwt>
</event>
<event>
 7    0  0.4737014E-002  0.4539697E+03  0.7546771E-02  0.1026545E+00
         21   -1    0    0  502  501  0.00000000000E+00  0.00000000000E+00  0.16609560381E+04  0.16609560381E+04  0.00000000000E+00 0.  1.
         21   -1    0    0  501  502 -0.00000000000E+00 -0.00000000000E+00 -0.31019552948E+02  0.31019552948E+02  0.00000000000E+00 0.  1.
      99926    2    1    2    0    0 -0.14210854715E-13  0.14210854715E-13  0.16299364852E+04  0.16919755911E+04  0.45396966316E+03 0.  0.
      99925    2    3    3    0    0 -0.68829268467E+02  0.84995140070E+02  0.11204700435E+04  0.11560976149E+04  0.26295804761E+03 0.  0.
         25    1    4    4    0    0 -0.75381510368E+02  0.44806892851E+02  0.56848468145E+03  0.58865301400E+03  0.12509000000E+03 0.  0.
         25    1    4    4    0    0  0.65522419009E+01  0.40188247220E+02  0.55198536203E+03  0.56744460089E+03  0.12509000000E+03 0.  0.
         25    1    3    3    0    0  0.68829268467E+02 -0.84995140070E+02  0.50946644169E+03  0.53587797616E+03  0.12509000000E+03 0.  0.
<mgrwt>
<rscale>  2 0.45396966E+03</rscale>
<asrwt>0</asrwt>
<pdfrwt beam="1">  1       21 0.24425818E+00 0.45396966E+03</pdfrwt>
<pdfrwt beam="2">  1       21 0.45617001E-02 0.45396966E+03</pdfrwt>
<totfact> 0.19585270E+04</totfact>
</mgrwt>
</event>
<event>
 7    0  0.4737014E-002  0.4221381E+03  0.7546771E-02  0.1036373E+00
         21   -1    0    0  502  501  0.00000000000E+00  0.00000000000E+00  0.82081518025E+03  0.82081518025E+03  0.00000000000E+00 0.  1.
         21   -1    0    0  501  502 -0.00000000000E+00 -0.00000000000E+00 -0.54275496139E+02  0.54275496139E+02  0.00000000000E+00 0.  1.
      99926    2    1    2    0    0  0.00000000000E+00  0.00000000000E+00  0.76653968411E+03  0.87509067639E+03  0.42213813448E+03 0.  0.
      99925    2    3    3    0    0  0.48121897643E+02  0.47831581831E+02  0.58011848171E+03  0.64056146700E+03  0.26301703923E+03 0.  0.
         25    1    3    3    0    0 -0.48121897643E+02 -0.47831581831E+02  0.18642120240E+03  0.23452920939E+03  0.12509000000E+03 0.  0.
         25    1    4    4    0    0  0.35607918146E+02  0.58921686913E+02  0.35206595682E+03  0.37991793202E+03  0.12509000000E+03 0.  0.
         25    1    4    4    0    0  0.12513979497E+02 -0.11090105082E+02  0.22805252490E+03  0.26064353498E+03  0.12509000000E+03 0.  0.
<mgrwt>
<rscale>  2 0.42213813E+03</rscale>
<asrwt>0</asrwt>
<pdfrwt beam="1">  1       21 0.12070811E+00 0.42213813E+03</pdfrwt>
<pdfrwt beam="2">  1       21 0.79816911E-02 0.42213813E+03</pdfrwt>
<totfact> 0.57833815E+04</totfact>
</mgrwt>
</event>
<event>
 7    0  0.4737014E-002  0.4663899E+03  0.7546771E-02  0.1022944E+00
         21   -1    0    0  502  501  0.00000000000E+00  0.00000000000E+00  0.20007943088E+03  0.20007943088E+03  0.00000000000E+00 0. -1.
         21   -1    0    0  501  502 -0.00000000000E+00 -0.00000000000E+00 -0.27179143078E+03  0.27179143078E+03  0.00000000000E+00 0. -1.
      99926    2    1    2    0    0  0.00000000000E+00 -0.35527136788E-14 -0.71711999899E+02  0.47187086167E+03  0.46638985748E+03 0.  0.
      99925    2    3    3    0    0  0.10947689409E+03  0.16480310745E+02 -0.10015551083E+03  0.30242077345E+03  0.26300267467E+03 0.  0.
         25    1    4    4    0    0  0.72659710967E+02 -0.28108140782E+02 -0.46398609016E+02  0.15449867376E+03  0.12509000000E+03 0.  0.
         25    1    3    3    0    0 -0.10947689409E+03 -0.16480310745E+02  0.28443510930E+02  0.16945008822E+03  0.12509000000E+03 0.  0.
         25    1    4    4    0    0  0.36817183128E+02  0.44588451528E+02 -0.53756901813E+02  0.14792209969E+03  0.12509000000E+03 0.  0.
<mgrwt>
<rscale>  2 0.46638986E+03</rscale>
<asrwt>0</asrwt>
<pdfrwt beam="1">  1       21 0.29423446E-01 0.46638986E+03</pdfrwt>
<pdfrwt beam="2">  1       21 0.39969328E-01 0.46638986E+03</pdfrwt>
<totfact> 0.61539576E+04</totfact>
</mgrwt>
</event>
<event>
 7    0  0.4737014E-002  0.4593718E+03  0.7546771E-02  0.1024964E+00
         21   -1    0    0  502  501  0.00000000000E+00  0.00000000000E+00  0.25250448938E+02  0.25250448938E+02  0.00000000000E+00 0. -1.
         21   -1    0    0  501  502 -0.00000000000E+00 -0.00000000000E+00 -0.20892942083E+04  0.20892942083E+04  0.00000000000E+00 0. -1.
      99926    2    1    2    0    0  0.14210854715E-13  0.00000000000E+00 -0.20640437594E+04  0.21145446573E+04  0.45937181770E+03 0.  0.
      99925    2    3    3    0    0  0.11043175726E+03  0.33437472122E+02 -0.13880170413E+04  0.14174271139E+04  0.26304957482E+03 0.  0.
         25    1    4    4    0    0  0.89506599690E+02  0.42135688888E+02 -0.72520926472E+03  0.74253810232E+03  0.12509000000E+03 0.  0.
         25    1    4    4    0    0  0.20925157571E+02 -0.86982167660E+01 -0.66280777656E+03  0.67488901159E+03  0.12509000000E+03 0.  0.
         25    1    3    3    0    0 -0.11043175726E+03 -0.33437472122E+02 -0.67602671812E+03  0.69711754336E+03  0.12509000000E+03 0.  0.
<mgrwt>
<rscale>  2 0.45937182E+03</rscale>
<asrwt>0</asrwt>
<pdfrwt beam="1">  1       21 0.37133026E-02 0.45937182E+03</pdfrwt>
<pdfrwt beam="2">  1       21 0.30724904E+00 0.45937182E+03</pdfrwt>
<totfact> 0.11531852E+04</totfact>
</mgrwt>
</event>
<event>
 7    0  0.4737014E-002  0.4590995E+03  0.7546771E-02  0.1025043E+00
         21   -1    0    0  502  501  0.00000000000E+00  0.00000000000E+00  0.31790508677E+03  0.31790508677E+03  0.00000000000E+00 0.  1.
         21   -1    0    0  501  502 -0.00000000000E+00 -0.00000000000E+00 -0.16575098689E+03  0.16575098689E+03  0.00000000000E+00 0.  1.
      99926    2    1    2    0    0  0.00000000000E+00  0.00000000000E+00  0.15215409989E+03  0.48365607366E+03  0.45909947449E+03 0.  0.
      99925    2    3    3    0    0  0.26183353801E+02  0.80078784024E+02  0.98808614658E+01  0.27632213496E+03  0.26297929800E+03 0.  0.
         25    1    4    4    0    0  0.19830112465E+02  0.81998894586E+02  0.55533498682E+01  0.15098145538E+03  0.12509000000E+03 0.  0.
         25    1    4    4    0    0  0.63532413361E+01 -0.19201105623E+01  0.43275115976E+01  0.12534067958E+03  0.12509000000E+03 0.  0.
         25    1    3    3    0    0 -0.26183353801E+02 -0.80078784024E+02  0.14227323842E+03  0.20733393870E+03  0.12509000000E+03 0.  0.
<mgrwt>
<rscale>  2 0.45909947E+03</rscale>
<asrwt>0</asrwt>
<pdfrwt beam="1">  1       21 0.46750748E-01 0.45909947E+03</pdfrwt>
<pdfrwt beam="2">  1       21 0.24375145E-01 0.45909947E+03</pdfrwt>
<totfact> 0.64316406E+04</totfact>
</mgrwt>
</event>
<event>
 7    0  0.4737014E-002  0.4550230E+03  0.7546771E-02  0.1026235E+00
         21   -1    0    0  502  501  0.00000000000E+00  0.00000000000E+00  0.97947895726E+02  0.97947895726E+02  0.00000000000E+00 0.  1.
         21   -1    0    0  501  502 -0.00000000000E+00 -0.00000000000E+00 -0.52845929942E+03  0.52845929942E+03  0.00000000000E+00 0.  1.
      99926    2    1    2    0    0 -0.14210854715E-13 -0.53290705182E-14 -0.43051140370E+03  0.62640719515E+03  0.45502297241E+03 0.  0.
      99925    2    3    3    0    0 -0.10929146531E+03 -0.47987684956E+01 -0.23073600061E+03  0.36655074950E+03  0.26296900466E+03 0.  0.
         25    1    4    4    0    0 -0.61213303799E+02 -0.40899138315E+02 -0.10352657859E+03  0.17828367466E+03  0.12509000000E+03 0.  0.
         25    1    3    3    0    0  0.10929146531E+03  0.47987684956E+01 -0.19977540308E+03  0.25985644565E+03  0.12509000000E+03 0.  0.
         25    1    4    4    0    0 -0.48078161511E+02  0.36100369819E+02 -0.12720942203E+03  0.18826707484E+03  0.12509000000E+03 0.  0.
<mgrwt>
<rscale>  2 0.45502297E+03</rscale>
<asrwt>0</asrwt>
<pdfrwt beam="1">  1       21 0.14404102E-01 0.45502297E+03</pdfrwt>
<pdfrwt beam="2">  1       21 0.77714603E-01 0.45502297E+03</pdfrwt>
<totfact> 0.57071226E+04</totfact>
</mgrwt>
</event>
<event>
 7    0  0.4737014E-002  0.4593293E+03  0.7546771E-02  0.1024976E+00
         21   -1    0    0  502  501  0.00000000000E+00  0.00000000000E+00  0.34048923847E+02  0.34048923847E+02  0.00000000000E+00 0.  1.
         21   -1    0    0  501  502 -0.00000000000E+00 -0.00000000000E+00 -0.15491192101E+04  0.15491192101E+04  0.00000000000E+00 0.  1.
      99926    2    1    2    0    0  0.14210854715E-13  0.14210854715E-13 -0.15150702863E+04  0.15831681340E+04  0.45932925888E+03 0.  0.
      99925    2    3    3    0    0 -0.80111946864E+02 -0.81792930014E+02 -0.86289741054E+03  0.90930985853E+03  0.26295336141E+03 0.  0.
         25    1    4    4    0    0 -0.19346171240E+02 -0.23218292060E+02 -0.29789194716E+03  0.32450036011E+03  0.12509000000E+03 0.  0.
         25    1    3    3    0    0  0.80111946864E+02  0.81792930014E+02 -0.65217287575E+03  0.67385827545E+03  0.12509000000E+03 0.  0.
         25    1    4    4    0    0 -0.60765775624E+02 -0.58574637954E+02 -0.56500546338E+03  0.58480949843E+03  0.12509000000E+03 0.  0.
<mgrwt>
<rscale>  2 0.45932926E+03</rscale>
<asrwt>0</asrwt>
<pdfrwt beam="1">  1       21 0.50071971E-02 0.45932926E+03</pdfrwt>
<pdfrwt beam="2">  1       21 0.22781154E+00 0.45932926E+03</pdfrwt>
<totfact> 0.21094234E+04</totfact>
</mgrwt>
</event>
<event>
 7    0  0.4737014E-002  0.4605811E+03  0.7546771E-02  0.1024613E+00
         21   -1    0    0  502  501  0.00000000000E+00  0.00000000000E+00  0.10005865607E+03  0.10005865607E+03  0.00000000000E+00 0. -1.
         21   -1    0    0  501  502 -0.00000000000E+00 -0.00000000000E+00 -0.53002657629E+03  0.53002657629E+03  0.00000000000E+00 0. -1.
      99926    2    1    2    0    0 -0.14210854715E-13  0.00000000000E+00 -0.42996792022E+03  0.63008523236E+03  0.46058114119E+03 0.  0.
      99925    2    3    3    0    0 -0.64716722043E+02  0.84642889532E+02 -0.33980698423E+03  0.44265744536E+03  0.26291472865E+03 0.  0.
         25    1    4    4    0    0 -0.17673370243E+02  0.71971607197E+02 -0.21370737001E+03  0.25847748133E+03  0.12509000000E+03 0.  0.
         25    1    3    3    0    0  0.64716722043E+02 -0.84642889532E+02 -0.90160935991E+02  0.18742778700E+03  0.12509000000E+03 0.  0.
         25    1    4    4    0    0 -0.47043351800E+02  0.12671282334E+02 -0.12609961422E+03  0.18417996403E+03  0.12509000000E+03 0.  0.
<mgrwt>
<rscale>  2 0.46058114E+03</rscale>
<asrwt>0</asrwt>
<pdfrwt beam="1">  1       21 0.14714508E-01 0.46058114E+03</pdfrwt>
<pdfrwt beam="2">  1       21 0.77945085E-01 0.46058114E+03</pdfrwt>
<totfact> 0.54425719E+04</totfact>
</mgrwt>
</event>
<event>
 7    0  0.4737014E-002  0.4539088E+03  0.7546771E-02  0.1026563E+00
         21   -1    0    0  502  501  0.00000000000E+00  0.00000000000E+00  0.51226701259E+02  0.51226701259E+02  0.00000000000E+00 0. -1.
         21   -1    0    0  501  502 -0.00000000000E+00 -0.00000000000E+00 -0.10054971147E+04  0.10054971147E+04  0.00000000000E+00 0. -1.
      99926    2    1    2    0    0  0.00000000000E+00  0.00000000000E+00 -0.95427041340E+03  0.10567238159E+04  0.45390880278E+03 0.  0.
      99925    2    3    3    0    0  0.82269859588E+02 -0.76181667502E+02 -0.60479790636E+03  0.66897322915E+03  0.26300702942E+03 0.  0.
         25    1    4    4    0    0  0.40083436195E+02 -0.14249660233E+02 -0.36664155546E+03  0.38972204578E+03  0.12509000000E+03 0.  0.
         25    1    4    4    0    0  0.42186423393E+02 -0.61932007269E+02 -0.23815635090E+03  0.27925118338E+03  0.12509000000E+03 0.  0.
         25    1    3    3    0    0 -0.82269859588E+02  0.76181667502E+02 -0.34947250704E+03  0.38775058677E+03  0.12509000000E+03 0.  0.
<mgrwt>
<rscale>  2 0.45390880E+03</rscale>
<asrwt>0</asrwt>
<pdfrwt beam="1">  1       21 0.75333385E-02 0.45390880E+03</pdfrwt>
<pdfrwt beam="2">  1       21 0.14786722E+00 0.45390880E+03</pdfrwt>
<totfact> 0.37348699E+04</totfact>
</mgrwt>
</event>
<event>
 7    0  0.4737014E-002  0.4677229E+03  0.7546771E-02  0.1022565E+00
         21   -1    0    0  502  501  0.00000000000E+00  0.00000000000E+00  0.28418231184E+03  0.28418231184E+03  0.00000000000E+00 0. -1.
         21   -1    0    0  501  502 -0.00000000000E+00 -0.00000000000E+00 -0.19245102313E+03  0.19245102313E+03  0.00000000000E+00 0. -1.
      99926    2    1    2    0    0  0.35527136788E-14  0.14210854715E-13  0.91731288712E+02  0.47663333497E+03  0.46772289518E+03 0.  0.
      99925    2    3    3    0    0  0.31385590646E+02  0.68624143366E+02 -0.44109411523E+02  0.27714766558E+03  0.26300353610E+03 0.  0.
         25    1    4    4    0    0 -0.21459691152E+02  0.15763777157E+02 -0.21185230681E+02  0.12963540070E+03  0.12509000000E+03 0.  0.
         25    1    3    3    0    0 -0.31385590646E+02 -0.68624143366E+02  0.13584070024E+03  0.19948566939E+03  0.12509000000E+03 0.  0.
         25    1    4    4    0    0  0.52845281798E+02  0.52860366209E+02 -0.22924180842E+02  0.14751226488E+03  0.12509000000E+03 0.  0.
<mgrwt>
<rscale>  2 0.46772290E+03</rscale>
<asrwt>0</asrwt>
<pdfrwt beam="1">  1       21 0.41791517E-01 0.46772290E+03</pdfrwt>
<pdfrwt beam="2">  1       21 0.28301621E-01 0.46772290E+03</pdfrwt>
<totfact> 0.60591451E+04</totfact>
</mgrwt>
</event>
<event>
 7    0  0.4737014E-002  0.4502397E+03  0.7546771E-02  0.1027651E+00
         21   -1    0    0  502  501  0.00000000000E+00  0.00000000000E+00  0.24843706738E+03  0.24843706738E+03  0.00000000000E+00 0. -1.
         21   -1    0    0  501  502 -0.00000000000E+00 -0.00000000000E+00 -0.20399107598E+03  0.20399107598E+03  0.00000000000E+00 0. -1.
      99926    2    1    2    0    0  0.00000000000E+00  0.00000000000E+00  0.44445991399E+02  0.45242814336E+03  0.45023969034E+03 0.  0.
      99925    2    3    3    0    0  0.28708357516E+02  0.88117671672E+02  0.85103086524E+02  0.29152630578E+03  0.26297558399E+03 0.  0.
         25    1    4    4    0    0  0.28861589290E+02  0.81637008857E+02  0.61332702053E+02  0.16403292655E+03  0.12509000000E+03 0.  0.
         25    1    3    3    0    0 -0.28708357516E+02 -0.88117671672E+02 -0.40657095126E+02  0.16090183758E+03  0.12509000000E+03 0.  0.
         25    1    4    4    0    0 -0.15323177364E+00  0.64806628148E+01  0.23770384472E+02  0.12749337923E+03  0.12509000000E+03 0.  0.
<mgrwt>
<rscale>  2 0.45023969E+03</rscale>
<asrwt>0</asrwt>
<pdfrwt beam="1">  1       21 0.36534863E-01 0.45023969E+03</pdfrwt>
<pdfrwt beam="2">  1       21 0.29998688E-01 0.45023969E+03</pdfrwt>
<totfact> 0.71408440E+04</totfact>
</mgrwt>
</event>
<event>
 7    0  0.4737014E-002  0.4576033E+03  0.7546771E-02  0.1025479E+00
         21   -1    0    0  502  501  0.00000000000E+00  0.00000000000E+00  0.34415017790E+03  0.34415017790E+03  0.00000000000E+00 0. -1.
         21   -1    0    0  501  502 -0.00000000000E+00 -0.00000000000E+00 -0.15211440816E+03  0.15211440816E+03  0.00000000000E+00 0. -1.
      99926    2    1    2    0    0  0.00000000000E+00  0.00000000000E+00  0.19203576974E+03  0.49626458606E+03  0.45760332442E+03 0.  0.
      99925    2    3    3    0    0  0.61551538948E+02 -0.75006532029E+02  0.18872105843E+03  0.33791981284E+03  0.26298211009E+03 0.  0.
         25    1    4    4    0    0  0.25118446107E+02 -0.62495291941E+02  0.59611670515E+02  0.15407029958E+03  0.12509000000E+03 0.  0.
         25    1    4    4    0    0  0.36433092841E+02 -0.12511240088E+02  0.12910938791E+03  0.18384951327E+03  0.12509000000E+03 0.  0.
         25    1    3    3    0    0 -0.61551538948E+02  0.75006532029E+02  0.33147113178E+01  0.15834477322E+03  0.12509000000E+03 0.  0.
<mgrwt>
<rscale>  2 0.45760332E+03</rscale>
<asrwt>0</asrwt>
<pdfrwt beam="1">  1       21 0.50610320E-01 0.45760332E+03</pdfrwt>
<pdfrwt beam="2">  1       21 0.22369766E-01 0.45760332E+03</pdfrwt>
<totfact> 0.64196861E+04</totfact>
</mgrwt>
</event>
<event>
 7    0  0.4737014E-002  0.4519360E+03  0.7546771E-02  0.1027146E+00
         21   -1    0    0  502  501  0.00000000000E+00  0.00000000000E+00  0.55463739640E+02  0.55463739640E+02  0.00000000000E+00 0.  1.
         21   -1    0    0  501  502 -0.00000000000E+00 -0.00000000000E+00 -0.92062920380E+03  0.92062920380E+03  0.00000000000E+00 0.  1.
      99926    2    1    2    0    0  0.00000000000E+00  0.14210854715E-13 -0.86516546416E+03  0.97609294344E+03  0.45193600637E+03 0.  0.
      99925    2    3    3    0    0  0.26401525904E+02  0.10484018871E+03 -0.49929696812E+03  0.57460101297E+03  0.26302158845E+03 0.  0.
         25    1    3    3    0    0 -0.26401525904E+02 -0.10484018871E+03 -0.36586849603E+03  0.40149193047E+03  0.12509000000E+03 0.  0.
         25    1    4    4    0    0 -0.29796609273E+01  0.37220756514E+02 -0.30732016502E+03  0.33389737199E+03  0.12509000000E+03 0.  0.
         25    1    4    4    0    0  0.29381186831E+02  0.67619432200E+02 -0.19197680310E+03  0.24070364098E+03  0.12509000000E+03 0.  0.
<mgrwt>
<rscale>  2 0.45193601E+03</rscale>
<asrwt>0</asrwt>
<pdfrwt beam="1">  1       21 0.81564328E-02 0.45193601E+03</pdfrwt>
<pdfrwt beam="2">  1       21 0.13538664E+00 0.45193601E+03</pdfrwt>
<totfact> 0.41076939E+04</totfact>
</mgrwt>
</event>
<event>
 7    0  0.4737014E-002  0.4671830E+03  0.7546771E-02  0.1022718E+00
         21   -1    0    0  502  501  0.00000000000E+00  0.00000000000E+00  0.14650072370E+03  0.14650072370E+03  0.00000000000E+00 0.  1.
         21   -1    0    0  501  502 -0.00000000000E+00 -0.00000000000E+00 -0.37245542184E+03  0.37245542184E+03  0.00000000000E+00 0.  1.
      99926    2    1    2    0    0 -0.71054273576E-14  0.00000000000E+00 -0.22595469814E+03  0.51895614553E+03  0.46718299988E+03 0.  0.
      99925    2    3    3    0    0 -0.63027529276E+02 -0.50817108857E+02 -0.24536553641E+03  0.36869258794E+03  0.26301165362E+03 0.  0.
         25    1    3    3    0    0  0.63027529276E+02  0.50817108857E+02  0.19410838269E+02  0.15026355760E+03  0.12509000000E+03 0.  0.
         25    1    4    4    0    0 -0.37657961054E+02  0.12852198925E+02 -0.99830982824E+02  0.16491523362E+03  0.12509000000E+03 0.  0.
         25    1    4    4    0    0 -0.25369568223E+02 -0.63669307782E+02 -0.14553455359E+03  0.20377735432E+03  0.12509000000E+03 0.  0.
<mgrwt>
<rscale>  2 0.46718300E+03</rscale>
<asrwt>0</asrwt>
<pdfrwt beam="1">  1       21 0.21544224E-01 0.46718300E+03</pdfrwt>
<pdfrwt beam="2">  1       21 0.54772856E-01 0.46718300E+03</pdfrwt>
<totfact> 0.58131566E+04</totfact>
</mgrwt>
</event>
<event>
 7    0  0.4737014E-002  0.4766536E+03  0.7546771E-02  0.1020059E+00
         21   -1    0    0  502  501  0.00000000000E+00  0.00000000000E+00  0.73658866176E+03  0.73658866176E+03  0.00000000000E+00 0. -1.
         21   -1    0    0  501  502 -0.00000000000E+00 -0.00000000000E+00 -0.77111766629E+02  0.77111766629E+02  0.00000000000E+00 0. -1.
      99926    2    1    2    0    0  0.00000000000E+00  0.00000000000E+00  0.65947689513E+03  0.81370042839E+03  0.47665355548E+03 0.  0.
      99925    2    3    3    0    0 -0.73279523104E+02 -0.10728309780E+03  0.45161093997E+03  0.53849992876E+03  0.26296421923E+03 0.  0.
         25    1    4    4    0    0 -0.46975175733E+02 -0.18513131812E+02  0.17306736495E+03  0.21942931457E+03  0.12509000000E+03 0.  0.
         25    1    3    3    0    0  0.73279523104E+02  0.10728309780E+03  0.20786595516E+03  0.27520049963E+03  0.12509000000E+03 0.  0.
         25    1    4    4    0    0 -0.26304347371E+02 -0.88769965988E+02  0.27854357502E+03  0.31907061419E+03  0.12509000000E+03 0.  0.
<mgrwt>
<rscale>  2 0.47665356E+03</rscale>
<asrwt>0</asrwt>
<pdfrwt beam="1">  1       21 0.10832186E+00 0.47665356E+03</pdfrwt>
<pdfrwt beam="2">  1       21 0.11339966E-01 0.47665356E+03</pdfrwt>
<totfact> 0.39887393E+04</totfact>
</mgrwt>
</event>
<event>
 7    0  0.4737014E-002  0.4542353E+03  0.7546771E-02  0.1026467E+00
         21   -1    0    0  502  501  0.00000000000E+00  0.00000000000E+00  0.41069895952E+02  0.41069895952E+02  0.00000000000E+00 0.  1.
         21   -1    0    0  501  502 -0.00000000000E+00 -0.00000000000E+00 -0.12559669229E+04  0.12559669229E+04  0.00000000000E+00 0.  1.
      99926    2    1    2    0    0  0.00000000000E+00  0.00000000000E+00 -0.12148970270E+04  0.12970368189E+04  0.45423531719E+03 0.  0.
      99925    2    3    3    0    0 -0.27467997419E+02 -0.98287008044E+02 -0.89993990992E+03  0.94311547095E+03  0.26298312353E+03 0.  0.
         25    1    4    4    0    0 -0.12620633078E+00 -0.80165724899E+01 -0.38894224983E+03  0.40864148488E+03  0.12509000000E+03 0.  0.
         25    1    4    4    0    0 -0.27341791088E+02 -0.90270435554E+02 -0.51099766008E+03  0.53447398607E+03  0.12509000000E+03 0.  0.
         25    1    3    3    0    0  0.27467997419E+02  0.98287008044E+02 -0.31495711706E+03  0.35392134793E+03  0.12509000000E+03 0.  0.
<mgrwt>
<rscale>  2 0.45423532E+03</rscale>
<asrwt>0</asrwt>
<pdfrwt beam="1">  1       21 0.60396894E-02 0.45423532E+03</pdfrwt>
<pdfrwt beam="2">  1       21 0.18470105E+00 0.45423532E+03</pdfrwt>
<totfact> 0.29375177E+04</totfact>
</mgrwt>
</event>
<event>
 7    0  0.4737014E-002  0.4583274E+03  0.7546771E-02  0.1025267E+00
         21   -1    0    0  502  501  0.00000000000E+00  0.00000000000E+00  0.29712122482E+03  0.29712122482E+03  0.00000000000E+00 0. -1.
         21   -1    0    0  501  502 -0.00000000000E+00 -0.00000000000E+00 -0.17674944837E+03  0.17674944837E+03  0.00000000000E+00 0. -1.
      99926    2    1    2    0    0  0.00000000000E+00  0.00000000000E+00  0.12037177645E+03  0.47387067319E+03  0.45832744882E+03 0.  0.
      99925    2    3    3    0    0  0.79734003356E+02 -0.82752521976E+02  0.93708717737E+02  0.30192906105E+03  0.26301015749E+03 0.  0.
         25    1    4    4    0    0  0.71279433952E+02 -0.31127364833E+02  0.23238821035E+02  0.14912149895E+03  0.12509000000E+03 0.  0.
         25    1    4    4    0    0  0.84545694036E+01 -0.51625157142E+02  0.70469896701E+02  0.15280756210E+03  0.12509000000E+03 0.  0.
         25    1    3    3    0    0 -0.79734003356E+02  0.82752521976E+02  0.26663058710E+02  0.17194161214E+03  0.12509000000E+03 0.  0.
<mgrwt>
<rscale>  2 0.45832745E+03</rscale>
<asrwt>0</asrwt>
<pdfrwt beam="1">  1       21 0.43694298E-01 0.45832745E+03</pdfrwt>
<pdfrwt beam="2">  1       21 0.25992566E-01 0.45832745E+03</pdfrwt>
<totfact> 0.65405212E+04</totfact>
</mgrwt>
</event>
<event>
 7    0  0.4737014E-002  0.4487306E+03  0.7546771E-02  0.1028101E+00
         21   -1    0    0  502  501  0.00000000000E+00  0.00000000000E+00  0.26687122854E+03  0.26687122854E+03  0.00000000000E+00 0.  1.
         21   -1    0    0  501  502 -0.00000000000E+00 -0.00000000000E+00 -0.18862953322E+03  0.18862953322E+03  0.00000000000E+00 0.  1.
      99926    2    1    2    0    0 -0.71054273576E-14  0.00000000000E+00  0.78241695313E+02  0.45550076176E+03  0.44873063310E+03 0.  0.
      99925    2    3    3    0    0  0.60365471559E+02  0.32619387580E+02  0.13304074075E+03  0.30266602067E+03  0.26305677480E+03 0.  0.
         25    1    3    3    0    0 -0.60365471559E+02 -0.32619387580E+02 -0.54799045440E+02  0.15283474109E+03  0.12509000000E+03 0.  0.
         25    1    4    4    0    0  0.63849849219E+02  0.29371870825E+02  0.94029176242E+02  0.17154738158E+03  0.12509000000E+03 0.  0.
         25    1    4    4    0    0 -0.34843776597E+01  0.32475167546E+01  0.39011564512E+02  0.13111863910E+03  0.12509000000E+03 0.  0.
<mgrwt>
<rscale>  2 0.44873063E+03</rscale>
<asrwt>0</asrwt>
<pdfrwt beam="1">  1       21 0.39245769E-01 0.44873063E+03</pdfrwt>
<pdfrwt beam="2">  1       21 0.27739637E-01 0.44873063E+03</pdfrwt>
<totfact> 0.72044551E+04</totfact>
</mgrwt>
</event>
<event>
 7    0  0.4737014E-002  0.4726720E+03  0.7546771E-02  0.1021169E+00
         21   -1    0    0  502  501  0.00000000000E+00  0.00000000000E+00  0.30643034093E+03  0.30643034093E+03  0.00000000000E+00 0. -1.
         21   -1    0    0  501  502 -0.00000000000E+00 -0.00000000000E+00 -0.18227538940E+03  0.18227538940E+03  0.00000000000E+00 0. -1.
      99926    2    1    2    0    0  0.00000000000E+00  0.00000000000E+00  0.12415495153E+03  0.48870573034E+03  0.47267202041E+03 0.  0.
      99925    2    3    3    0    0 -0.99960275618E+02  0.40136412320E+02  0.34582925328E+01  0.28421079180E+03  0.26298445979E+03 0.  0.
         25    1    4    4    0    0 -0.75772946741E+01  0.26215619234E+02  0.36102308017E+01  0.12808284800E+03  0.12509000000E+03 0.  0.
         25    1    4    4    0    0 -0.92382980944E+02  0.13920793086E+02 -0.15193826895E+00  0.15612794379E+03  0.12509000000E+03 0.  0.
         25    1    3    3    0    0  0.99960275618E+02 -0.40136412320E+02  0.12069665899E+03  0.20449493854E+03  0.12509000000E+03 0.  0.
<mgrwt>
<rscale>  2 0.47267202E+03</rscale>
<asrwt>0</asrwt>
<pdfrwt beam="1">  1       21 0.45063286E-01 0.47267202E+03</pdfrwt>
<pdfrwt beam="2">  1       21 0.26805204E-01 0.47267202E+03</pdfrwt>
<totfact> 0.57564109E+04</totfact>
</mgrwt>
</event>
<event>
 7    0  0.4737014E-002  0.4522938E+03  0.7546771E-02  0.1027040E+00
         21   -1    0    0  502  501  0.00000000000E+00  0.00000000000E+00  0.38792480522E+03  0.38792480522E+03  0.00000000000E+00 0. -1.
         21   -1    0    0  501  502 -0.00000000000E+00 -0.00000000000E+00 -0.13183589812E+03  0.13183589812E+03  0.00000000000E+00 0. -1.
      99926    2    1    2    0    0  0.00000000000E+00  0.00000000000E+00  0.25608890710E+03  0.51976070334E+03  0.45229377665E+03 0.  0.
      99925    2    3    3    0    0  0.77167231759E+02  0.64182398205E+02  0.21425430804E+03  0.35401450074E+03  0.26333855837E+03 0.  0.
         25    1    4    4    0    0  0.39617847422E+02  0.51483618666E+02  0.64815239099E+02  0.15514077525E+03  0.12509000000E+03 0.  0.
         25    1    3    3    0    0 -0.77167231759E+02 -0.64182398205E+02  0.41834599063E+02  0.16574620260E+03  0.12509000000E+03 0.  0.
         25    1    4    4    0    0  0.37549384337E+02  0.12698779539E+02  0.14943906894E+03  0.19887372549E+03  0.12509000000E+03 0.  0.
<mgrwt>
<rscale>  2 0.45229378E+03</rscale>
<asrwt>0</asrwt>
<pdfrwt beam="1">  1       21 0.57047765E-01 0.45229378E+03</pdfrwt>
<pdfrwt beam="2">  1       21 0.19387632E-01 0.45229378E+03</pdfrwt>
<totfact> 0.65294180E+04</totfact>
</mgrwt>
</event>
<event>
 7    0  0.4737014E-002  0.4512002E+03  0.7546771E-02  0.1027365E+00
         21   -1    0    0  502  501  0.00000000000E+00  0.00000000000E+00  0.29558956320E+03  0.29558956320E+03  0.00000000000E+00 0. -1.
         21   -1    0    0  501  502 -0.00000000000E+00 -0.00000000000E+00 -0.17218265927E+03  0.17218265927E+03  0.00000000000E+00 0. -1.
      99926    2    1    2    0    0 -0.71054273576E-14 -0.14210854715E-13  0.12340690394E+03  0.46777222247E+03  0.45120016420E+03 0.  0.
      99925    2    3    3    0    0  0.45148400510E+02  0.83638988566E+02  0.13455021615E+03  0.31027447651E+03  0.26293084952E+03 0.  0.
         25    1    3    3    0    0 -0.45148400510E+02 -0.83638988566E+02 -0.11143312217E+02  0.15749774597E+03  0.12509000000E+03 0.  0.
         25    1    4    4    0    0  0.37560894010E+02  0.79757195324E+02  0.87999670821E+02  0.17653181336E+03  0.12509000000E+03 0.  0.
         25    1    4    4    0    0  0.75875065002E+01  0.38817932427E+01  0.46550545333E+02  0.13374266314E+03  0.12509000000E+03 0.  0.
<mgrwt>
<rscale>  2 0.45120016E+03</rscale>
<asrwt>0</asrwt>
<pdfrwt beam="1">  1       21 0.43469053E-01 0.45120016E+03</pdfrwt>
<pdfrwt beam="2">  1       21 0.25320979E-01 0.45120016E+03</pdfrwt>
<totfact> 0.69678647E+04</totfact>
</mgrwt>
</event>
<event>
 7    0  0.4737014E-002  0.4520231E+03  0.7546771E-02  0.1027120E+00
         21   -1    0    0  502  501  0.00000000000E+00  0.00000000000E+00  0.41022390140E+03  0.41022390140E+03  0.00000000000E+00 0.  1.
         21   -1    0    0  501  502 -0.00000000000E+00 -0.00000000000E+00 -0.12452036825E+03  0.12452036825E+03  0.00000000000E+00 0.  1.
      99926    2    1    2    0    0  0.17763568394E-14  0.00000000000E+00  0.28570353315E+03  0.53474426966E+03  0.45202314661E+03 0.  0.
      99925    2    3    3    0    0  0.13892097754E+02  0.10182591392E+03  0.13259134680E+03  0.31191618158E+03  0.26296336619E+03 0.  0.
         25    1    4    4    0    0 -0.27558141195E+02  0.47143399933E+02  0.41566874823E+02  0.14267888591E+03  0.12509000000E+03 0.  0.
         25    1    3    3    0    0 -0.13892097754E+02 -0.10182591392E+03  0.15311218635E+03  0.22282808808E+03  0.12509000000E+03 0.  0.
         25    1    4    4    0    0  0.41450238949E+02  0.54682513992E+02  0.91024471977E+02  0.16923729567E+03  0.12509000000E+03 0.  0.
<mgrwt>
<rscale>  2 0.45202315E+03</rscale>
<asrwt>0</asrwt>
<pdfrwt beam="1">  1       21 0.60327044E-01 0.45202315E+03</pdfrwt>
<pdfrwt beam="2">  1       21 0.18311819E-01 0.45202315E+03</pdfrwt>
<totfact> 0.64389788E+04</totfact>
</mgrwt>
</event>
<event>
 7    0  0.4737014E-002  0.4532590E+03  0.7546771E-02  0.1026755E+00
         21   -1    0    0  502  501  0.00000000000E+00  0.00000000000E+00  0.13224954870E+03  0.13224954870E+03  0.00000000000E+00 0. -1.
         21   -1    0    0  501  502 -0.00000000000E+00 -0.00000000000E+00 -0.38836371303E+03  0.38836371303E+03  0.00000000000E+00 0. -1.
      99926    2    1    2    0    0  0.00000000000E+00  0.00000000000E+00 -0.25611416433E+03  0.52061326174E+03  0.45325898019E+03 0.  0.
      99925    2    3    3    0    0  0.85704567166E+02  0.56490815968E+02 -0.11144533045E+03  0.30355782016E+03  0.26304144803E+03 0.  0.
         25    1    3    3    0    0 -0.85704567166E+02 -0.56490815968E+02 -0.14466883388E+03  0.21705544157E+03  0.12509000000E+03 0.  0.
         25    1    4    4    0    0  0.74755375158E+02  0.35089996010E+02 -0.31485313439E+02  0.15316170212E+03  0.12509000000E+03 0.  0.
         25    1    4    4    0    0  0.10949192007E+02  0.21400819958E+02 -0.79960017011E+02  0.15039611804E+03  0.12509000000E+03 0.  0.
<mgrwt>
<rscale>  2 0.45325898E+03</rscale>
<asrwt>0</asrwt>
<pdfrwt beam="1">  1       21 0.19448463E-01 0.45325898E+03</pdfrwt>
<pdfrwt beam="2">  1       21 0.57112311E-01 0.45325898E+03</pdfrwt>
<totfact> 0.64735005E+04</totfact>
</mgrwt>
</event>
<event>
 7    0  0.4737014E-002  0.4518971E+03  0.7546771E-02  0.1027158E+00
         21   -1    0    0  502  501  0.00000000000E+00  0.00000000000E+00  0.28390272914E+03  0.28390272914E+03  0.00000000000E+00 0. -1.
         21   -1    0    0  501  502 -0.00000000000E+00 -0.00000000000E+00 -0.17982479574E+03  0.17982479574E+03  0.00000000000E+00 0. -1.
      99926    2    1    2    0    0  0.00000000000E+00  0.00000000000E+00  0.10407793340E+03  0.46372752488E+03  0.45189711341E+03 0.  0.
      99925    2    3    3    0    0  0.16764850609E+02 -0.58798050749E+02 -0.28510763212E+02  0.27146327559E+03  0.26294709617E+03 0.  0.
         25    1    4    4    0    0 -0.12565228210E+02 -0.39341717727E+01  0.11045569659E+02  0.12626509960E+03  0.12509000000E+03 0.  0.
         25    1    3    3    0    0 -0.16764850609E+02  0.58798050749E+02  0.13258869661E+03  0.19226424929E+03  0.12509000000E+03 0.  0.
         25    1    4    4    0    0  0.29330078819E+02 -0.54863878977E+02 -0.39556332871E+02  0.14519817599E+03  0.12509000000E+03 0.  0.
<mgrwt>
<rscale>  2 0.45189711E+03</rscale>
<asrwt>0</asrwt>
<pdfrwt beam="1">  1       21 0.41750402E-01 0.45189711E+03</pdfrwt>
<pdfrwt beam="2">  1       21 0.26444823E-01 0.45189711E+03</pdfrwt>
<totfact> 0.69602773E+04</totfact>
</mgrwt>
</event>
<event>
 7    0  0.4737014E-002  0.4548286E+03  0.7546771E-02  0.1026292E+00
         21   -1    0    0  502  501  0.00000000000E+00  0.00000000000E+00  0.20111516751E+03  0.20111516751E+03  0.00000000000E+00 0.  1.
         21   -1    0    0  501  502 -0.00000000000E+00 -0.00000000000E+00 -0.25715246123E+03  0.25715246123E+03  0.00000000000E+00 0.  1.
      99926    2    1    2    0    0  0.00000000000E+00  0.17763568394E-14 -0.56037293725E+02  0.45826762874E+03  0.45482858448E+03 0.  0.
      99925    2    3    3    0    0 -0.97251707526E+02  0.13214838764E+02  0.21171309056E+02  0.28151581680E+03  0.26300266957E+03 0.  0.
         25    1    3    3    0    0  0.97251707526E+02 -0.13214838764E+02 -0.77208602781E+02  0.17675181194E+03  0.12509000000E+03 0.  0.
         25    1    4    4    0    0 -0.38351364493E+02 -0.32870468394E+02  0.13407661290E+02  0.13556757847E+03  0.12509000000E+03 0.  0.
         25    1    4    4    0    0 -0.58900343033E+02  0.46085307158E+02  0.77636477655E+01  0.14594823833E+03  0.12509000000E+03 0.  0.
<mgrwt>
<rscale>  2 0.45482858E+03</rscale>
<asrwt>0</asrwt>
<pdfrwt beam="1">  1       21 0.29575760E-01 0.45482858E+03</pdfrwt>
<pdfrwt beam="2">  1       21 0.37816538E-01 0.45482858E+03</pdfrwt>
<totfact> 0.68400421E+04</totfact>
</mgrwt>
</event>
<event>
 7    0  0.4737014E-002  0.4590982E+03  0.7546771E-02  0.1025043E+00
         21   -1    0    0  502  501  0.00000000000E+00  0.00000000000E+00  0.35234310067E+03  0.35234310067E+03  0.00000000000E+00 0.  1.
         21   -1    0    0  501  502 -0.00000000000E+00 -0.00000000000E+00 -0.14954966789E+03  0.14954966789E+03  0.00000000000E+00 0.  1.
      99926    2    1    2    0    0  0.00000000000E+00  0.00000000000E+00  0.20279343277E+03  0.50189276856E+03  0.45909821907E+03 0.  0.
      99925    2    3    3    0    0  0.54944903385E+02  0.10418082210E+02  0.15038319539E+02  0.26945574592E+03  0.26315920868E+03 0.  0.
         25    1    3    3    0    0 -0.54944903385E+02 -0.10418082210E+02  0.18775511324E+03  0.23243702263E+03  0.12509000000E+03 0.  0.
         25    1    4    4    0    0  0.45253854515E+02  0.24152797475E+01  0.44571837849E+02  0.14031358364E+03  0.12509000000E+03 0.  0.
         25    1    4    4    0    0  0.96910488701E+01  0.80028024622E+01 -0.29533518310E+02  0.12914216228E+03  0.12509000000E+03 0.  0.
<mgrwt>
<rscale>  2 0.45909822E+03</rscale>
<asrwt>0</asrwt>
<pdfrwt beam="1">  1       21 0.51815162E-01 0.45909822E+03</pdfrwt>
<pdfrwt beam="2">  1       21 0.21992598E-01 0.45909822E+03</pdfrwt>
<totfact> 0.63061274E+04</totfact>
</mgrwt>
</event>
<event>
 7    0  0.4737014E-002  0.4434330E+03  0.7546771E-02  0.1029699E+00
         21   -1    0    0  502  501  0.00000000000E+00  0.00000000000E+00  0.90296494438E+03  0.90296494438E+03  0.00000000000E+00 0.  1.
         21   -1    0    0  501  502 -0.00000000000E+00 -0.00000000000E+00 -0.54440887650E+02  0.54440887650E+02  0.00000000000E+00 0.  1.
      99926    2    1    2    0    0 -0.35527136788E-14  0.00000000000E+00  0.84852405673E+03  0.95740583203E+03  0.44343303030E+03 0.  0.
      99925    2    3    3    0    0  0.21710102507E+02  0.34745175604E+02  0.33827081075E+03  0.43044811180E+03  0.26302068315E+03 0.  0.
         25    1    3    3    0    0 -0.21710102507E+02 -0.34745175604E+02  0.51025324599E+03  0.52695772024E+03  0.12509000000E+03 0.  0.
         25    1    4    4    0    0  0.34490465266E+02  0.50486225060E+02  0.18613552218E+03  0.23244868645E+03  0.12509000000E+03 0.  0.
         25    1    4    4    0    0 -0.12780362758E+02 -0.15741049456E+02  0.15213528856E+03  0.19799942534E+03  0.12509000000E+03 0.  0.
<mgrwt>
<rscale>  2 0.44343303E+03</rscale>
<asrwt>0</asrwt>
<pdfrwt beam="1">  1       21 0.13278895E+00 0.44343303E+03</pdfrwt>
<pdfrwt beam="2">  1       21 0.80060135E-02 0.44343303E+03</pdfrwt>
<totfact> 0.44755102E+04</totfact>
</mgrwt>
</event>
<event>
 7    0  0.4737014E-002  0.4686573E+03  0.7546771E-02  0.1022300E+00
         21   -1    0    0  502  501  0.00000000000E+00  0.00000000000E+00  0.35237591314E+02  0.35237591314E+02  0.00000000000E+00 0.  1.
         21   -1    0    0  501  502 -0.00000000000E+00 -0.00000000000E+00 -0.15582769863E+04  0.15582769863E+04  0.00000000000E+00 0.  1.
      99926    2    1    2    0    0  0.00000000000E+00  0.17763568394E-14 -0.15230393949E+04  0.15935145776E+04  0.46865734859E+03 0.  0.
      99925    2    3    3    0    0 -0.56274720453E+02  0.82554456454E+01 -0.56682693972E+03  0.62747898601E+03  0.26306292354E+03 0.  0.
         25    1    4    4    0    0 -0.18372893187E+02 -0.30202906721E+02 -0.32285823749E+03  0.34804414719E+03  0.12509000000E+03 0.  0.
         25    1    3    3    0    0  0.56274720453E+02 -0.82554456454E+01 -0.95621245522E+03  0.96603559156E+03  0.12509000000E+03 0.  0.
         25    1    4    4    0    0 -0.37901827266E+02  0.38458352367E+02 -0.24396870223E+03  0.27943483882E+03  0.12509000000E+03 0.  0.
<mgrwt>
<rscale>  2 0.46865735E+03</rscale>
<asrwt>0</asrwt>
<pdfrwt beam="1">  1       21 0.51820004E-02 0.46865735E+03</pdfrwt>
<pdfrwt beam="2">  1       21 0.22915831E+00 0.46865735E+03</pdfrwt>
<totfact> 0.19432812E+04</totfact>
</mgrwt>
</event>
<event>
 7    0  0.4737014E-002  0.4570456E+03  0.7546771E-02  0.1025642E+00
         21   -1    0    0  502  501  0.00000000000E+00  0.00000000000E+00  0.11805253770E+03  0.11805253770E+03  0.00000000000E+00 0.  1.
         21   -1    0    0  501  502 -0.00000000000E+00 -0.00000000000E+00 -0.44236813614E+03  0.44236813614E+03  0.00000000000E+00 0.  1.
      99926    2    1    2    0    0  0.00000000000E+00 -0.35527136788E-14 -0.32431559845E+03  0.56042067384E+03  0.45704564790E+03 0.  0.
      99925    2    3    3    0    0  0.59956774493E+02  0.24152528930E+02 -0.32039864587E+03  0.41956255345E+03  0.26305756883E+03 0.  0.
         25    1    3    3    0    0 -0.59956774493E+02 -0.24152528930E+02 -0.39169525751E+01  0.14085812039E+03  0.12509000000E+03 0.  0.
         25    1    4    4    0    0  0.83398793003E+01 -0.23107417550E+02 -0.14617063234E+03  0.19395068495E+03  0.12509000000E+03 0.  0.
         25    1    4    4    0    0  0.51616895193E+02  0.47259946480E+02 -0.17422801353E+03  0.22561186850E+03  0.12509000000E+03 0.  0.
<mgrwt>
<rscale>  2 0.45704565E+03</rscale>
<asrwt>0</asrwt>
<pdfrwt beam="1">  1       21 0.17360668E-01 0.45704565E+03</pdfrwt>
<pdfrwt beam="2">  1       21 0.65054136E-01 0.45704565E+03</pdfrwt>
<totfact> 0.60203054E+04</totfact>
</mgrwt>
</event>
<event>
 7    0  0.4737014E-002  0.4503309E+03  0.7546771E-02  0.1027623E+00
         21   -1    0    0  502  501  0.00000000000E+00  0.00000000000E+00  0.60330706651E+03  0.60330706651E+03  0.00000000000E+00 0.  1.
         21   -1    0    0  501  502 -0.00000000000E+00 -0.00000000000E+00 -0.84035952613E+02  0.84035952613E+02  0.00000000000E+00 0.  1.
      99926    2    1    2    0    0  0.00000000000E+00 -0.14210854715E-13  0.51927111390E+03  0.68734301912E+03  0.45033091856E+03 0.  0.
      99925    2    3    3    0    0  0.64002133784E+02 -0.74088854948E+02  0.40035688835E+03  0.48891536809E+03  0.26299651623E+03 0.  0.
         25    1    3    3    0    0 -0.64002133784E+02  0.74088854948E+02  0.11891422555E+03  0.19842765103E+03  0.12509000000E+03 0.  0.
         25    1    4    4    0    0  0.27241755496E+02 -0.91689538255E-02  0.15125787454E+03  0.19816297847E+03  0.12509000000E+03 0.  0.
         25    1    4    4    0    0  0.36760378288E+02 -0.74079685994E+02  0.24909901381E+03  0.29075238962E+03  0.12509000000E+03 0.  0.
<mgrwt>
<rscale>  2 0.45033092E+03</rscale>
<asrwt>0</asrwt>
<pdfrwt beam="1">  1       21 0.88721625E-01 0.45033092E+03</pdfrwt>
<pdfrwt beam="2">  1       21 0.12358229E-01 0.45033092E+03</pdfrwt>
<totfact> 0.55611824E+04</totfact>
</mgrwt>
</event>
<event>
 7    0  0.4737014E-002  0.4537576E+03  0.7546771E-02  0.1026607E+00
         21   -1    0    0  502  501  0.00000000000E+00  0.00000000000E+00  0.40589708462E+03  0.40589708462E+03  0.00000000000E+00 0. -1.
         21   -1    0    0  501  502 -0.00000000000E+00 -0.00000000000E+00 -0.12681539495E+03  0.12681539495E+03  0.00000000000E+00 0. -1.
      99926    2    1    2    0    0 -0.71054273576E-14  0.00000000000E+00  0.27908168966E+03  0.53271247957E+03  0.45375764058E+03 0.  0.
      99925    2    3    3    0    0 -0.34273351945E+02  0.10558102153E+03  0.19109159745E+03  0.34373687482E+03  0.26328126735E+03 0.  0.
         25    1    4    4    0    0  0.10153168222E+02  0.29637336674E+02  0.59656203121E+02  0.14208388093E+03  0.12509000000E+03 0.  0.
         25    1    3    3    0    0  0.34273351945E+02 -0.10558102153E+03  0.87990092214E+02  0.18897560474E+03  0.12509000000E+03 0.  0.
         25    1    4    4    0    0 -0.44426520167E+02  0.75943684856E+02  0.13143539433E+03  0.20165299389E+03  0.12509000000E+03 0.  0.
<mgrwt>
<rscale>  2 0.45375764E+03</rscale>
<asrwt>0</asrwt>
<pdfrwt beam="1">  1       21 0.59690748E-01 0.45375764E+03</pdfrwt>
<pdfrwt beam="2">  1       21 0.18649323E-01 0.45375764E+03</pdfrwt>
<totfact> 0.63647126E+04</totfact>
</mgrwt>
</event>
<event>
 7    0  0.4737014E-002  0.4483181E+03  0.7546771E-02  0.1028225E+00
         21   -1    0    0  502  501  0.00000000000E+00  0.00000000000E+00  0.55407230196E+03  0.55407230196E+03  0.00000000000E+00 0. -1.
         21   -1    0    0  501  502 -0.00000000000E+00 -0.00000000000E+00 -0.90687221725E+02  0.90687221725E+02  0.00000000000E+00 0. -1.
      99926    2    1    2    0    0  0.00000000000E+00  0.00000000000E+00  0.46338508024E+03  0.64475952369E+03  0.44831809109E+03 0.  0.
      99925    2    3    3    0    0 -0.73232952870E+02  0.11189022545E+02  0.18274943664E+03  0.32870235770E+03  0.26298217384E+03 0.  0.
         25    1    4    4    0    0 -0.23506556577E+02 -0.81839557377E+01  0.13197965618E+03  0.18353657150E+03  0.12509000000E+03 0.  0.
         25    1    3    3    0    0  0.73232952870E+02 -0.11189022545E+02  0.28063564360E+03  0.31605716598E+03  0.12509000000E+03 0.  0.
         25    1    4    4    0    0 -0.49726396293E+02  0.19372978283E+02  0.50769780462E+02  0.14516578620E+03  0.12509000000E+03 0.  0.
<mgrwt>
<rscale>  2 0.44831809E+03</rscale>
<asrwt>0</asrwt>
<pdfrwt beam="1">  1       21 0.81481219E-01 0.44831809E+03</pdfrwt>
<pdfrwt beam="2">  1       21 0.13336356E-01 0.44831809E+03</pdfrwt>
<totfact> 0.59056807E+04</totfact>
</mgrwt>
</event>
<event>
 7    0  0.4737014E-002  0.4525401E+03  0.7546771E-02  0.1026967E+00
         21   -1    0    0  502  501  0.00000000000E+00  0.00000000000E+00  0.92400320751E+02  0.92400320751E+02  0.00000000000E+00 0. -1.
         21   -1    0    0  501  502 -0.00000000000E+00 -0.00000000000E+00 -0.55409043274E+03  0.55409043274E+03  0.00000000000E+00 0. -1.
      99926    2    1    2    0    0 -0.35527136788E-14  0.00000000000E+00 -0.46169011199E+03  0.64649075349E+03  0.45254009197E+03 0.  0.
      99925    2    3    3    0    0 -0.18515319087E+02  0.93479873020E+02 -0.37157603300E+03  0.46524683212E+03  0.26325759780E+03 0.  0.
         25    1    4    4    0    0  0.13520847313E+02  0.14732811385E+02 -0.14160186173E+03  0.18999595888E+03  0.12509000000E+03 0.  0.
         25    1    3    3    0    0  0.18515319087E+02 -0.93479873020E+02 -0.90114078992E+02  0.18124392137E+03  0.12509000000E+03 0.  0.
         25    1    4    4    0    0 -0.32036166400E+02  0.78747061635E+02 -0.22997417127E+03  0.27525087325E+03  0.12509000000E+03 0.  0.
<mgrwt>
<rscale>  2 0.45254009E+03</rscale>
<asrwt>0</asrwt>
<pdfrwt beam="1">  1       21 0.13588283E-01 0.45254009E+03</pdfrwt>
<pdfrwt beam="2">  1       21 0.81483885E-01 0.45254009E+03</pdfrwt>
<totfact> 0.57002380E+04</totfact>
</mgrwt>
</event>
<event>
 7    0  0.4737014E-002  0.4622882E+03  0.7546771E-02  0.1024120E+00
         21   -1    0    0  502  501  0.00000000000E+00  0.00000000000E+00  0.18391627068E+03  0.18391627068E+03  0.00000000000E+00 0.  1.
         21   -1    0    0  501  502 -0.00000000000E+00 -0.00000000000E+00 -0.29049957229E+03  0.29049957229E+03  0.00000000000E+00 0.  1.
      99926    2    1    2    0    0  0.00000000000E+00  0.00000000000E+00 -0.10658330161E+03  0.47441584297E+03  0.46228821300E+03 0.  0.
      99925    2    3    3    0    0  0.10866937893E+03 -0.28553143118E+02 -0.10982386081E+03  0.30624234558E+03  0.26286646406E+03 0.  0.
         25    1    4    4    0    0  0.72989630733E+02  0.15377875478E+02 -0.34626745664E+02  0.14970131885E+03  0.12509000000E+03 0.  0.
         25    1    4    4    0    0  0.35679748196E+02 -0.43931018596E+02 -0.75197115146E+02  0.15654102674E+03  0.12509000000E+03 0.  0.
         25    1    3    3    0    0 -0.10866937893E+03  0.28553143118E+02  0.32405592009E+01  0.16817349738E+03  0.12509000000E+03 0.  0.
<mgrwt>
<rscale>  2 0.46228821E+03</rscale>
<asrwt>0</asrwt>
<pdfrwt beam="1">  1       21 0.27046511E-01 0.46228821E+03</pdfrwt>
<pdfrwt beam="2">  1       21 0.42720525E-01 0.46228821E+03</pdfrwt>
<totfact> 0.63365294E+04</totfact>
</mgrwt>
</event>
<event>
 7    0  0.4737014E-002  0.4546442E+03  0.7546771E-02  0.1026346E+00
         21   -1    0    0  502  501  0.00000000000E+00  0.00000000000E+00  0.21106323400E+04  0.21106323400E+04  0.00000000000E+00 0. -1.
         21   -1    0    0  501  502 -0.00000000000E+00 -0.00000000000E+00 -0.24483348256E+02  0.24483348256E+02  0.00000000000E+00 0. -1.
      99926    2    1    2    0    0  0.35527136788E-14  0.00000000000E+00  0.20861489917E+04  0.21351156883E+04  0.45464424167E+03 0.  0.
      99925    2    3    3    0    0  0.14307333460E+02  0.10448771236E+03  0.11246141091E+04  0.11597597427E+04  0.26298932422E+03 0.  0.
         25    1    3    3    0    0 -0.14307333460E+02 -0.10448771236E+03  0.96153488265E+03  0.97535594553E+03  0.12509000000E+03 0.  0.
         25    1    4    4    0    0  0.46323309257E+02  0.44723607414E+02  0.58899196848E+03  0.60556180285E+03  0.12509000000E+03 0.  0.
         25    1    4    4    0    0 -0.32015975797E+02  0.59764104946E+02  0.53562214062E+03  0.55419793988E+03  0.12509000000E+03 0.  0.
<mgrwt>
<rscale>  2 0.45464424E+03</rscale>
<asrwt>0</asrwt>
<pdfrwt beam="1">  1       21 0.31038698E+00 0.45464424E+03</pdfrwt>
<pdfrwt beam="2">  1       21 0.36004939E-02 0.45464424E+03</pdfrwt>
<totfact> 0.11658778E+04</totfact>
</mgrwt>
</event>
<event>
 7    0  0.4737014E-002  0.4541958E+03  0.7546771E-02  0.1026478E+00
         21   -1    0    0  502  501  0.00000000000E+00  0.00000000000E+00  0.34814013355E+03  0.34814013355E+03  0.00000000000E+00 0.  1.
         21   -1    0    0  501  502 -0.00000000000E+00 -0.00000000000E+00 -0.14813995852E+03  0.14813995852E+03  0.00000000000E+00 0.  1.
      99926    2    1    2    0    0  0.00000000000E+00  0.00000000000E+00  0.20000017503E+03  0.49628009207E+03  0.45419583857E+03 0.  0.
      99925    2    3    3    0    0 -0.70927297440E+02 -0.66597011764E+02  0.18735376921E+03  0.33730436066E+03  0.26307214482E+03 0.  0.
         25    1    4    4    0    0 -0.68421895150E+02 -0.60062268114E+02  0.11336469605E+03  0.19180222678E+03  0.12509000000E+03 0.  0.
         25    1    3    3    0    0  0.70927297440E+02  0.66597011764E+02  0.12646405820E+02  0.15897573141E+03  0.12509000000E+03 0.  0.
         25    1    4    4    0    0 -0.25054022903E+01 -0.65347436497E+01  0.73989073162E+02  0.14550213388E+03  0.12509000000E+03 0.  0.
<mgrwt>
<rscale>  2 0.45419584E+03</rscale>
<asrwt>0</asrwt>
<pdfrwt beam="1">  1       21 0.51197078E-01 0.45419584E+03</pdfrwt>
<pdfrwt beam="2">  1       21 0.21785288E-01 0.45419584E+03</pdfrwt>
<totfact> 0.65952812E+04</totfact>
</mgrwt>
</event>
<event>
 7    0  0.4737014E-002  0.4541663E+03  0.7546771E-02  0.1026487E+00
         21   -1    0    0  502  501  0.00000000000E+00  0.00000000000E+00  0.11223824927E+03  0.11223824927E+03  0.00000000000E+00 0. -1.
         21   -1    0    0  501  502 -0.00000000000E+00 -0.00000000000E+00 -0.45944008301E+03  0.45944008301E+03  0.00000000000E+00 0. -1.
      99926    2    1    2    0    0  0.00000000000E+00  0.00000000000E+00 -0.34720183374E+03  0.57167833228E+03  0.45416627159E+03 0.  0.
      99925    2    3    3    0    0  0.86653497171E+02  0.65214623381E+02 -0.18154835973E+03  0.33747680106E+03  0.26300001646E+03 0.  0.
         25    1    3    3    0    0 -0.86653497171E+02 -0.65214623381E+02 -0.16565347401E+03  0.23420153122E+03  0.12509000000E+03 0.  0.
         25    1    4    4    0    0  0.83878650185E+02  0.48636103347E+02 -0.10155086314E+03  0.18804569767E+03  0.12509000000E+03 0.  0.
         25    1    4    4    0    0  0.27748469860E+01  0.16578520034E+02 -0.79997496589E+02  0.14943110340E+03  0.12509000000E+03 0.  0.
<mgrwt>
<rscale>  2 0.45416627E+03</rscale>
<asrwt>0</asrwt>
<pdfrwt beam="1">  1       21 0.16505625E-01 0.45416627E+03</pdfrwt>
<pdfrwt beam="2">  1       21 0.67564718E-01 0.45416627E+03</pdfrwt>
<totfact> 0.60856526E+04</totfact>
</mgrwt>
</event>
<event>
 7    0  0.4737014E-002  0.4502541E+03  0.7546771E-02  0.1027646E+00
         21   -1    0    0  502  501  0.00000000000E+00  0.00000000000E+00  0.10715381195E+03  0.10715381195E+03  0.00000000000E+00 0. -1.
         21   -1    0    0  501  502 -0.00000000000E+00 -0.00000000000E+00 -0.47298535048E+03  0.47298535048E+03  0.00000000000E+00 0. -1.
      99926    2    1    2    0    0  0.00000000000E+00 -0.71054273576E-14 -0.36583153853E+03  0.58013916242E+03  0.45025407627E+03 0.  0.
      99925    2    3    3    0    0  0.66571168858E+02 -0.60372149588E+02 -0.30980252513E+03  0.41623896288E+03  0.26306035937E+03 0.  0.
         25    1    4    4    0    0  0.64947158678E+02 -0.47391685324E+02 -0.13463190870E+03  0.20059253276E+03  0.12509000000E+03 0.  0.
         25    1    4    4    0    0  0.16240101796E+01 -0.12980464263E+02 -0.17517061644E+03  0.21564643012E+03  0.12509000000E+03 0.  0.
         25    1    3    3    0    0 -0.66571168858E+02  0.60372149588E+02 -0.56029013396E+02  0.16390019955E+03  0.12509000000E+03 0.  0.
<mgrwt>
<rscale>  2 0.45025408E+03</rscale>
<asrwt>0</asrwt>
<pdfrwt beam="1">  1       21 0.15757913E-01 0.45025408E+03</pdfrwt>
<pdfrwt beam="2">  1       21 0.69556670E-01 0.45025408E+03</pdfrwt>
<totfact> 0.62219483E+04</totfact>
</mgrwt>
</event>
<event>
 7    0  0.4737014E-002  0.4520643E+03  0.7546771E-02  0.1027108E+00
         21   -1    0    0  502  501  0.00000000000E+00  0.00000000000E+00  0.13170439634E+04  0.13170439634E+04  0.00000000000E+00 0.  1.
         21   -1    0    0  501  502 -0.00000000000E+00 -0.00000000000E+00 -0.38791820434E+02  0.38791820434E+02  0.00000000000E+00 0.  1.
      99926    2    1    2    0    0  0.00000000000E+00  0.71054273576E-14  0.12782521430E+04  0.13558357838E+04  0.45206430044E+03 0.  0.
      99925    2    3    3    0    0 -0.84256540718E+02 -0.58383653617E+02  0.93178133525E+03  0.97347817065E+03  0.26255566332E+03 0.  0.
         25    1    4    4    0    0 -0.33793187410E+02 -0.22743686430E+02  0.58655479494E+03  0.60112668411E+03  0.12509000000E+03 0.  0.
         25    1    3    3    0    0  0.84256540718E+02  0.58383653617E+02  0.34647080772E+03  0.38235761319E+03  0.12509000000E+03 0.  0.
         25    1    4    4    0    0 -0.50463353308E+02 -0.35639967188E+02  0.34522654031E+03  0.37235148654E+03  0.12509000000E+03 0.  0.
<mgrwt>
<rscale>  2 0.45206430E+03</rscale>
<asrwt>0</asrwt>
<pdfrwt beam="1">  1       21 0.19368291E+00 0.45206430E+03</pdfrwt>
<pdfrwt beam="2">  1       21 0.57046803E-02 0.45206430E+03</pdfrwt>
<totfact> 0.28170409E+04</totfact>
</mgrwt>
</event>
<event>
 7    0  0.4737014E-002  0.4582130E+03  0.7546771E-02  0.1025301E+00
         21   -1    0    0  502  501  0.00000000000E+00  0.00000000000E+00  0.81313418998E+03  0.81313418998E+03  0.00000000000E+00 0. -1.
         21   -1    0    0  501  502 -0.00000000000E+00 -0.00000000000E+00 -0.64552433655E+02  0.64552433655E+02  0.00000000000E+00 0. -1.
      99926    2    1    2    0    0  0.14210854715E-13  0.00000000000E+00  0.74858175632E+03  0.87768662363E+03  0.45821301095E+03 0.  0.
      99925    2    3    3    0    0  0.10179026750E+03  0.55652743132E+02  0.46055763911E+03  0.54292717780E+03  0.26305530802E+03 0.  0.
         25    1    4    4    0    0  0.71667540496E+02  0.60248656329E+02  0.28770079961E+03  0.32739180678E+03  0.12509000000E+03 0.  0.
         25    1    3    3    0    0 -0.10179026750E+03 -0.55652743132E+02  0.28802411721E+03  0.33475944583E+03  0.12509000000E+03 0.  0.
         25    1    4    4    0    0  0.30122727003E+02 -0.45959131967E+01  0.17285683950E+03  0.21553537102E+03  0.12509000000E+03 0.  0.
<mgrwt>
<rscale>  2 0.45821301E+03</rscale>
<asrwt>0</asrwt>
<pdfrwt beam="1">  1       21 0.11957855E+00 0.45821301E+03</pdfrwt>
<pdfrwt beam="2">  1       21 0.94930055E-02 0.45821301E+03</pdfrwt>
<totfact> 0.43117207E+04</totfact>
</mgrwt>
</event>
<event>
 7    0  0.4737014E-002  0.4541347E+03  0.7546771E-02  0.1026496E+00
         21   -1    0    0  502  501  0.00000000000E+00  0.00000000000E+00  0.13044380390E+04  0.13044380390E+04  0.00000000000E+00 0.  1.
         21   -1    0    0  501  502 -0.00000000000E+00 -0.00000000000E+00 -0.39526273247E+02  0.39526273247E+02  0.00000000000E+00 0.  1.
      99926    2    1    2    0    0 -0.14210854715E-13  0.00000000000E+00  0.12649117657E+04  0.13439643122E+04  0.45413466885E+03 0.  0.
      99925    2    3    3    0    0 -0.66315811406E+02  0.88798668223E+02  0.85198450721E+03  0.89849891598E+03  0.26294431193E+03 0.  0.
         25    1    3    3    0    0  0.66315811406E+02 -0.88798668223E+02  0.41292725853E+03  0.44546539625E+03  0.12509000000E+03 0.  0.
         25    1    4    4    0    0 -0.26414197749E+02  0.30366968629E+02  0.52735754912E+03  0.54348261733E+03  0.12509000000E+03 0.  0.
         25    1    4    4    0    0 -0.39901613656E+02  0.58431699594E+02  0.32462695809E+03  0.35501629865E+03  0.12509000000E+03 0.  0.
<mgrwt>
<rscale>  2 0.45413467E+03</rscale>
<asrwt>0</asrwt>
<pdfrwt beam="1">  1       21 0.19182910E+00 0.45413467E+03</pdfrwt>
<pdfrwt beam="2">  1       21 0.58126881E-02 0.45413467E+03</pdfrwt>
<totfact> 0.28052435E+04</totfact>
</mgrwt>
</event>
<event>
 7    0  0.4737014E-002  0.4561917E+03  0.7546771E-02  0.1025892E+00
         21   -1    0    0  502  501  0.00000000000E+00  0.00000000000E+00  0.75724465947E+03  0.75724465947E+03  0.00000000000E+00 0. -1.
         21   -1    0    0  501  502 -0.00000000000E+00 -0.00000000000E+00 -0.68706605242E+02  0.68706605242E+02  0.00000000000E+00 0. -1.
      99926    2    1    2    0    0  0.00000000000E+00  0.35527136788E-14  0.68853805422E+03  0.82595126471E+03  0.45619166976E+03 0.  0.
      99925    2    3    3    0    0  0.70179191490E+02 -0.10705304635E+02  0.59435419998E+03  0.65402736013E+03  0.26354345049E+03 0.  0.
         25    1    4    4    0    0  0.75239293415E+02 -0.20219847335E+02  0.32448392236E+03  0.35638057954E+03  0.12509000000E+03 0.  0.
         25    1    4    4    0    0 -0.50601019250E+01  0.95145426999E+01  0.26987027762E+03  0.29764678059E+03  0.12509000000E+03 0.  0.
         25    1    3    3    0    0 -0.70179191490E+02  0.10705304635E+02  0.94183854240E+02  0.17192390458E+03  0.12509000000E+03 0.  0.
<mgrwt>
<rscale>  2 0.45619167E+03</rscale>
<asrwt>0</asrwt>
<pdfrwt beam="1">  1       21 0.11135950E+00 0.45619167E+03</pdfrwt>
<pdfrwt beam="2">  1       21 0.10103913E-01 0.45619167E+03</pdfrwt>
<totfact> 0.46102480E+04</totfact>
</mgrwt>
</event>
<event>
 7    0  0.4737014E-002  0.4547581E+03  0.7546771E-02  0.1026313E+00
         21   -1    0    0  502  501  0.00000000000E+00  0.00000000000E+00  0.55706171540E+02  0.55706171540E+02  0.00000000000E+00 0.  1.
         21   -1    0    0  501  502 -0.00000000000E+00 -0.00000000000E+00 -0.92810600133E+03  0.92810600133E+03  0.00000000000E+00 0.  1.
      99926    2    1    2    0    0  0.00000000000E+00  0.00000000000E+00 -0.87239982979E+03  0.98381217287E+03  0.45475809885E+03 0.  0.
      99925    2    3    3    0    0  0.62037236100E+02 -0.55867503831E+02 -0.71367421531E+03  0.76515461997E+03  0.26298461975E+03 0.  0.
         25    1    3    3    0    0 -0.62037236100E+02  0.55867503831E+02 -0.15872561449E+03  0.21865755290E+03  0.12509000000E+03 0.  0.
         25    1    4    4    0    0 -0.10211974722E+02 -0.30483262708E+02 -0.32423777693E+03  0.34901455245E+03  0.12509000000E+03 0.  0.
         25    1    4    4    0    0  0.72249210822E+02 -0.25384241122E+02 -0.38943643837E+03  0.41614006752E+03  0.12509000000E+03 0.  0.
<mgrwt>
<rscale>  2 0.45475810E+03</rscale>
<asrwt>0</asrwt>
<pdfrwt beam="1">  1       21 0.81920841E-02 0.45475810E+03</pdfrwt>
<pdfrwt beam="2">  1       21 0.13648618E+00 0.45475810E+03</pdfrwt>
<totfact> 0.39876232E+04</totfact>
</mgrwt>
</event>
<event>
 7    0  0.4737014E-002  0.4473776E+03  0.7546771E-02  0.1028507E+00
         21   -1    0    0  502  501  0.00000000000E+00  0.00000000000E+00  0.16262790427E+03  0.16262790427E+03  0.00000000000E+00 0. -1.
         21   -1    0    0  501  502 -0.00000000000E+00 -0.00000000000E+00 -0.30767580430E+03  0.30767580430E+03  0.00000000000E+00 0. -1.
      99926    2    1    2    0    0  0.00000000000E+00  0.00000000000E+00 -0.14504790003E+03  0.47030370858E+03  0.44737756425E+03 0.  0.
      99925    2    3    3    0    0  0.16713345749E+02 -0.94069399666E+02 -0.13976425744E+03  0.31281144572E+03  0.26303719326E+03 0.  0.
         25    1    4    4    0    0  0.30002291534E+02 -0.69571070690E+02 -0.43661661388E+02  0.15262411392E+03  0.12509000000E+03 0.  0.
         25    1    3    3    0    0 -0.16713345749E+02  0.94069399666E+02 -0.52836425888E+01  0.15749226285E+03  0.12509000000E+03 0.  0.
         25    1    4    4    0    0 -0.13288945784E+02 -0.24498328976E+02 -0.96102596052E+02  0.16018733180E+03  0.12509000000E+03 0.  0.
<mgrwt>
<rscale>  2 0.44737756E+03</rscale>
<asrwt>0</asrwt>
<pdfrwt beam="1">  1       21 0.23915869E-01 0.44737756E+03</pdfrwt>
<pdfrwt beam="2">  1       21 0.45246441E-01 0.44737756E+03</pdfrwt>
<totfact> 0.71649955E+04</totfact>
</mgrwt>
</event>
<event>
 7    0  0.4737014E-002  0.4600556E+03  0.7546771E-02  0.1024765E+00
         21   -1    0    0  502  501  0.00000000000E+00  0.00000000000E+00  0.10142637928E+04  0.10142637928E+04  0.00000000000E+00 0. -1.
         21   -1    0    0  501  502 -0.00000000000E+00 -0.00000000000E+00 -0.52168662558E+02  0.52168662558E+02  0.00000000000E+00 0. -1.
      99926    2    1    2    0    0  0.00000000000E+00  0.00000000000E+00  0.96209513028E+03  0.10664324554E+04  0.46005558600E+03 0.  0.
      99925    2    3    3    0    0  0.10945833961E+03  0.40976503137E+02  0.56870276838E+03  0.63740418078E+03  0.26306092259E+03 0.  0.
         25    1    4    4    0    0  0.97462648491E+02  0.22625703834E+02  0.33875890762E+03  0.37472122427E+03  0.12509000000E+03 0.  0.
         25    1    3    3    0    0 -0.10945833961E+03 -0.40976503137E+02  0.39339236190E+03  0.42902827461E+03  0.12509000000E+03 0.  0.
         25    1    4    4    0    0  0.11995691116E+02  0.18350799303E+02  0.22994386076E+03  0.26268295651E+03  0.12509000000E+03 0.  0.
<mgrwt>
<rscale>  2 0.46005559E+03</rscale>
<asrwt>0</asrwt>
<pdfrwt beam="1">  1       21 0.14915643E+00 0.46005559E+03</pdfrwt>
<pdfrwt beam="2">  1       21 0.76718628E-02 0.46005559E+03</pdfrwt>
<totfact> 0.35268028E+04</totfact>
</mgrwt>
</event>
<event>
 7    0  0.4737014E-002  0.4564623E+03  0.7546771E-02  0.1025812E+00
         21   -1    0    0  502  501  0.00000000000E+00  0.00000000000E+00  0.50906990235E+03  0.50906990235E+03  0.00000000000E+00 0. -1.
         21   -1    0    0  501  502 -0.00000000000E+00 -0.00000000000E+00 -0.10232280379E+03  0.10232280379E+03  0.00000000000E+00 0. -1.
      99926    2    1    2    0    0  0.00000000000E+00 -0.35527136788E-14  0.40674709856E+03  0.61139270614E+03  0.45646230834E+03 0.  0.
      99925    2    3    3    0    0 -0.85212407932E+02  0.25010364051E+02  0.15853759781E+03  0.31960145003E+03  0.26291489910E+03 0.  0.
         25    1    4    4    0    0 -0.31547612297E+02  0.48988007474E+02  0.94670543352E+02  0.16734723361E+03  0.12509000000E+03 0.  0.
         25    1    4    4    0    0 -0.53664795635E+02 -0.23977643424E+02  0.63867054455E+02  0.15225421643E+03  0.12509000000E+03 0.  0.
         25    1    3    3    0    0  0.85212407932E+02 -0.25010364051E+02  0.24820950076E+03  0.29179125611E+03  0.12509000000E+03 0.  0.
<mgrwt>
<rscale>  2 0.45646231E+03</rscale>
<asrwt>0</asrwt>
<pdfrwt beam="1">  1       21 0.74863220E-01 0.45646231E+03</pdfrwt>
<pdfrwt beam="2">  1       21 0.15047471E-01 0.45646231E+03</pdfrwt>
<totfact> 0.57317535E+04</totfact>
</mgrwt>
</event>
<event>
 7    0  0.4737014E-002  0.4579331E+03  0.7546771E-02  0.1025382E+00
         21   -1    0    0  502  501  0.00000000000E+00  0.00000000000E+00  0.13337322234E+04  0.13337322234E+04  0.00000000000E+00 0.  1.
         21   -1    0    0  501  502 -0.00000000000E+00 -0.00000000000E+00 -0.39307501233E+02  0.39307501233E+02  0.00000000000E+00 0.  1.
      99926    2    1    2    0    0  0.00000000000E+00  0.00000000000E+00  0.12944247222E+04  0.13730397246E+04  0.45793309998E+03 0.  0.
      99925    2    3    3    0    0 -0.63565702180E+02  0.49895086932E+02  0.56409254614E+03  0.62767893037E+03  0.26315455690E+03 0.  0.
         25    1    3    3    0    0  0.63565702180E+02 -0.49895086932E+02  0.73033217602E+03  0.74536079427E+03  0.12509000000E+03 0.  0.
         25    1    4    4    0    0 -0.41199606215E+01  0.54359595288E+02  0.26622213650E+03  0.29915493267E+03  0.12509000000E+03 0.  0.
         25    1    4    4    0    0 -0.59445741559E+02 -0.44645083557E+01  0.29787040964E+03  0.32852399770E+03  0.12509000000E+03 0.  0.
<mgrwt>
<rscale>  2 0.45793310E+03</rscale>
<asrwt>0</asrwt>
<pdfrwt beam="1">  1       21 0.19613706E+00 0.45793310E+03</pdfrwt>
<pdfrwt beam="2">  1       21 0.57805158E-02 0.45793310E+03</pdfrwt>
<totfact> 0.26451242E+04</totfact>
</mgrwt>
</event>
<event>
 7    0  0.4737014E-002  0.4538251E+03  0.7546771E-02  0.1026587E+00
         21   -1    0    0  502  501  0.00000000000E+00  0.00000000000E+00  0.21782287362E+03  0.21782287362E+03  0.00000000000E+00 0.  1.
         21   -1    0    0  501  502 -0.00000000000E+00 -0.00000000000E+00 -0.23638152559E+03  0.23638152559E+03  0.00000000000E+00 0.  1.
      99926    2    1    2    0    0  0.00000000000E+00  0.00000000000E+00 -0.18558651973E+02  0.45420439921E+03  0.45382509043E+03 0.  0.
      99925    2    3    3    0    0  0.72839759249E+02  0.85044896560E+02 -0.16429848823E+02  0.28630471231E+03  0.26298704037E+03 0.  0.
         25    1    4    4    0    0  0.73362379395E+02  0.63418136452E+02  0.17543779203E+00  0.15827645946E+03  0.12509000000E+03 0.  0.
         25    1    3    3    0    0 -0.72839759249E+02 -0.85044896560E+02 -0.21288031495E+01  0.16789968690E+03  0.12509000000E+03 0.  0.
         25    1    4    4    0    0 -0.52262014611E+00  0.21626760108E+02 -0.16605286615E+02  0.12802825285E+03  0.12509000000E+03 0.  0.
<mgrwt>
<rscale>  2 0.45382509E+03</rscale>
<asrwt>0</asrwt>
<pdfrwt beam="1">  1       21 0.32032776E-01 0.45382509E+03</pdfrwt>
<pdfrwt beam="2">  1       21 0.34761989E-01 0.45382509E+03</pdfrwt>
<totfact> 0.69251055E+04</totfact>
</mgrwt>
</event>
<event>
 7    0  0.4737014E-002  0.4592374E+03  0.7546771E-02  0.1025003E+00
         21   -1    0    0  502  501  0.00000000000E+00  0.00000000000E+00  0.29542283783E+03  0.29542283783E+03  0.00000000000E+00 0.  1.
         21   -1    0    0  501  502 -0.00000000000E+00 -0.00000000000E+00 -0.17847217579E+03  0.17847217579E+03  0.00000000000E+00 0.  1.
      99926    2    1    2    0    0  0.00000000000E+00  0.00000000000E+00  0.11695066203E+03  0.47389501362E+03  0.45923744031E+03 0.  0.
      99925    2    3    3    0    0 -0.21117914501E+02 -0.88770681223E+02 -0.24721492531E+01  0.27835597375E+03  0.26296337472E+03 0.  0.
         25    1    3    3    0    0  0.21117914501E+02  0.88770681223E+02  0.11942281129E+03  0.19553903987E+03  0.12509000000E+03 0.  0.
         25    1    4    4    0    0 -0.11491828566E+02 -0.87072258850E+02 -0.33952822642E+01  0.15288124943E+03  0.12509000000E+03 0.  0.
         25    1    4    4    0    0 -0.96260859357E+01 -0.16984223729E+01  0.92313301112E+00  0.12547472432E+03  0.12509000000E+03 0.  0.
<mgrwt>
<rscale>  2 0.45923744E+03</rscale>
<asrwt>0</asrwt>
<pdfrwt beam="1">  1       21 0.43444535E-01 0.45923744E+03</pdfrwt>
<pdfrwt beam="2">  1       21 0.26245908E-01 0.45923744E+03</pdfrwt>
<totfact> 0.64936552E+04</totfact>
</mgrwt>
</event>
<event>
 7    0  0.4737014E-002  0.4465895E+03  0.7546771E-02  0.1028744E+00
         21   -1    0    0  502  501  0.00000000000E+00  0.00000000000E+00  0.29082959699E+02  0.29082959699E+02  0.00000000000E+00 0. -1.
         21   -1    0    0  501  502 -0.00000000000E+00 -0.00000000000E+00 -0.17144249736E+04  0.17144249736E+04  0.00000000000E+00 0. -1.
      99926    2    1    2    0    0  0.00000000000E+00  0.35527136788E-14 -0.16853420139E+04  0.17435079333E+04  0.44658953152E+03 0.  0.
      99925    2    3    3    0    0  0.98043645151E+02 -0.27224865771E+02 -0.96442159058E+03  0.10047742096E+04  0.26288487638E+03 0.  0.
         25    1    4    4    0    0  0.73856636974E+02 -0.31531565040E+02 -0.61845303963E+03  0.63606659458E+03  0.12509000000E+03 0.  0.
         25    1    3    3    0    0 -0.98043645151E+02  0.27224865771E+02 -0.72092042334E+03  0.73873372372E+03  0.12509000000E+03 0.  0.
         25    1    4    4    0    0  0.24187008177E+02  0.43066992694E+01 -0.34596855095E+03  0.36870761501E+03  0.12509000000E+03 0.  0.
<mgrwt>
<rscale>  2 0.44658953E+03</rscale>
<asrwt>0</asrwt>
<pdfrwt beam="1">  1       21 0.42769045E-02 0.44658953E+03</pdfrwt>
<pdfrwt beam="2">  1       21 0.25212140E+00 0.44658953E+03</pdfrwt>
<totfact> 0.19620853E+04</totfact>
</mgrwt>
</event>
<event>
 7    0  0.4737014E-002  0.4541777E+03  0.7546771E-02  0.1026483E+00
         21   -1    0    0  502  501  0.00000000000E+00  0.00000000000E+00  0.65366477644E+03  0.65366477644E+03  0.00000000000E+00 0.  1.
         21   -1    0    0  501  502 -0.00000000000E+00 -0.00000000000E+00 -0.78892646904E+02  0.78892646904E+02  0.00000000000E+00 0.  1.
      99926    2    1    2    0    0  0.00000000000E+00  0.00000000000E+00  0.57477212954E+03  0.73255742334E+03  0.45417769387E+03 0.  0.
      99925    2    3    3    0    0  0.19917308347E+02  0.11047968301E+03  0.35442413125E+03  0.45542350629E+03  0.26304304922E+03 0.  0.
         25    1    3    3    0    0 -0.19917308347E+02 -0.11047968301E+03  0.22034799829E+03  0.27713391705E+03  0.12509000000E+03 0.  0.
         25    1    4    4    0    0  0.45165153970E+02  0.40385110019E+02  0.15056050265E+03  0.20490686007E+03  0.12509000000E+03 0.  0.
         25    1    4    4    0    0 -0.25247845622E+02  0.70094572993E+02  0.20386362860E+03  0.25051664623E+03  0.12509000000E+03 0.  0.
<mgrwt>
<rscale>  2 0.45417769E+03</rscale>
<asrwt>0</asrwt>
<pdfrwt beam="1">  1       21 0.96127170E-01 0.45417769E+03</pdfrwt>
<pdfrwt beam="2">  1       21 0.11601860E-01 0.45417769E+03</pdfrwt>
<totfact> 0.51502921E+04</totfact>
</mgrwt>
</event>
<event>
 7    0  0.4737014E-002  0.4308176E+03  0.7546771E-02  0.1033602E+00
         21   -1    0    0  502  501  0.00000000000E+00  0.00000000000E+00  0.98606312333E+02  0.98606312333E+02  0.00000000000E+00 0. -1.
         21   -1    0    0  501  502 -0.00000000000E+00 -0.00000000000E+00 -0.47056784381E+03  0.47056784381E+03  0.00000000000E+00 0. -1.
      99926    2    1    2    0    0  0.00000000000E+00  0.00000000000E+00 -0.37196153148E+03  0.56917415614E+03  0.43081764022E+03 0.  0.
      99925    2    3    3    0    0 -0.83907539371E+02  0.19317354707E+02 -0.26728205180E+03  0.38473192421E+03  0.26299300928E+03 0.  0.
         25    1    4    4    0    0 -0.74698731381E+02  0.20163371219E+02 -0.17727448355E+03  0.23034802501E+03  0.12509000000E+03 0.  0.
         25    1    3    3    0    0  0.83907539371E+02 -0.19317354707E+02 -0.10467947967E+03  0.18444223193E+03  0.12509000000E+03 0.  0.
         25    1    4    4    0    0 -0.92088079902E+01 -0.84601651155E+00 -0.90007568257E+02  0.15438389920E+03  0.12509000000E+03 0.  0.
<mgrwt>
<rscale>  2 0.43081764E+03</rscale>
<asrwt>0</asrwt>
<pdfrwt beam="1">  1       21 0.14500928E-01 0.43081764E+03</pdfrwt>
<pdfrwt beam="2">  1       21 0.69201152E-01 0.43081764E+03</pdfrwt>
<totfact> 0.73737820E+04</totfact>
</mgrwt>
</event>
<event>
 7    0  0.4737014E-002  0.4535172E+03  0.7546771E-02  0.1026678E+00
         21   -1    0    0  502  501  0.00000000000E+00  0.00000000000E+00  0.26577760161E+03  0.26577760161E+03  0.00000000000E+00 0. -1.
         21   -1    0    0  501  502 -0.00000000000E+00 -0.00000000000E+00 -0.19346799376E+03  0.19346799376E+03  0.00000000000E+00 0. -1.
      99926    2    1    2    0    0 -0.88817841970E-15  0.00000000000E+00  0.72309607852E+02  0.45924559536E+03  0.45351718542E+03 0.  0.
      99925    2    3    3    0    0  0.32349509448E+01  0.10249692158E+03  0.90650623806E+02  0.29645743606E+03  0.26297032525E+03 0.  0.
         25    1    4    4    0    0  0.10952791036E+02  0.93227299599E+02  0.55724887929E+02  0.16602428815E+03  0.12509000000E+03 0.  0.
         25    1    4    4    0    0 -0.77178400917E+01  0.92696219845E+01  0.34925735878E+02  0.13043314791E+03  0.12509000000E+03 0.  0.
         25    1    3    3    0    0 -0.32349509448E+01 -0.10249692158E+03 -0.18341015954E+02  0.16278815930E+03  0.12509000000E+03 0.  0.
<mgrwt>
<rscale>  2 0.45351719E+03</rscale>
<asrwt>0</asrwt>
<pdfrwt beam="1">  1       21 0.39084942E-01 0.45351719E+03</pdfrwt>
<pdfrwt beam="2">  1       21 0.28451175E-01 0.45351719E+03</pdfrwt>
<totfact> 0.69048425E+04</totfact>
</mgrwt>
</event>
<event>
 7    0  0.4737014E-002  0.4585443E+03  0.7546771E-02  0.1025204E+00
         21   -1    0    0  502  501  0.00000000000E+00  0.00000000000E+00  0.55369725896E+03  0.55369725896E+03  0.00000000000E+00 0. -1.
         21   -1    0    0  501  502 -0.00000000000E+00 -0.00000000000E+00 -0.94935857201E+02  0.94935857201E+02  0.00000000000E+00 0. -1.
      99926    2    1    2    0    0 -0.14210854715E-13  0.71054273576E-14  0.45876140176E+03  0.64863311616E+03  0.45854432243E+03 0.  0.
      99925    2    3    3    0    0  0.96278986832E+02 -0.51822211167E+02  0.34425686757E+03  0.44685605769E+03  0.26308242159E+03 0.  0.
         25    1    4    4    0    0  0.88417276495E+02 -0.43067770901E+02  0.19916534207E+03  0.25492506596E+03  0.12509000000E+03 0.  0.
         25    1    4    4    0    0  0.78617103362E+01 -0.87544402661E+01  0.14509152550E+03  0.19193099173E+03  0.12509000000E+03 0.  0.
         25    1    3    3    0    0 -0.96278986832E+02  0.51822211167E+02  0.11450453418E+03  0.20177705847E+03  0.12509000000E+03 0.  0.
<mgrwt>
<rscale>  2 0.45854432E+03</rscale>
<asrwt>0</asrwt>
<pdfrwt beam="1">  1       21 0.81426066E-01 0.45854432E+03</pdfrwt>
<pdfrwt beam="2">  1       21 0.13961156E-01 0.45854432E+03</pdfrwt>
<totfact> 0.54247389E+04</totfact>
</mgrwt>
</event>
<event>
 7    0  0.4737014E-002  0.4538888E+03  0.7546771E-02  0.1026569E+00
         21   -1    0    0  502  501  0.00000000000E+00  0.00000000000E+00  0.51557614032E+03  0.51557614032E+03  0.00000000000E+00 0.  1.
         21   -1    0    0  501  502 -0.00000000000E+00 -0.00000000000E+00 -0.99895531665E+02  0.99895531665E+02  0.00000000000E+00 0.  1.
      99926    2    1    2    0    0  0.00000000000E+00 -0.17763568394E-14  0.41568060866E+03  0.61547167199E+03  0.45388876457E+03 0.  0.
      99925    2    3    3    0    0 -0.45300119206E+02 -0.10292109927E+02  0.12342579618E+03  0.29419544840E+03  0.26298100002E+03 0.  0.
         25    1    4    4    0    0 -0.94292835672E+01 -0.42280387428E+02  0.71739698146E+02  0.15056770882E+03  0.12509000000E+03 0.  0.
         25    1    4    4    0    0 -0.35870835638E+02  0.31988277501E+02  0.51686098038E+02  0.14362773958E+03  0.12509000000E+03 0.  0.
         25    1    3    3    0    0  0.45300119206E+02  0.10292109927E+02  0.29225481247E+03  0.32127622358E+03  0.12509000000E+03 0.  0.
<mgrwt>
<rscale>  2 0.45388876E+03</rscale>
<asrwt>0</asrwt>
<pdfrwt beam="1">  1       21 0.75820019E-01 0.45388876E+03</pdfrwt>
<pdfrwt beam="2">  1       21 0.14690520E-01 0.45388876E+03</pdfrwt>
<totfact> 0.58245398E+04</totfact>
</mgrwt>
</event>
<event>
 7    0  0.4737014E-002  0.4555492E+03  0.7546771E-02  0.1026080E+00
         21   -1    0    0  502  501  0.00000000000E+00  0.00000000000E+00  0.29475712530E+02  0.29475712530E+02  0.00000000000E+00 0.  1.
         21   -1    0    0  501  502 -0.00000000000E+00 -0.00000000000E+00 -0.17601359462E+04  0.17601359462E+04  0.00000000000E+00 0.  1.
      99926    2    1    2    0    0  0.00000000000E+00  0.00000000000E+00 -0.17306602336E+04  0.17896116587E+04  0.45554916820E+03 0.  0.
      99925    2    3    3    0    0  0.44703257648E+02  0.70231474977E+02 -0.13927611806E+04  0.14198088471E+04  0.26294983323E+03 0.  0.
         25    1    4    4    0    0  0.33956209360E+01  0.52458436069E+02 -0.86430205359E+03  0.87488797323E+03  0.12509000000E+03 0.  0.
         25    1    4    4    0    0  0.41307636712E+02  0.17773038908E+02 -0.52845912699E+03  0.54492087386E+03  0.12509000000E+03 0.  0.
         25    1    3    3    0    0 -0.44703257648E+02 -0.70231474977E+02 -0.33789905304E+03  0.36980281160E+03  0.12509000000E+03 0.  0.
<mgrwt>
<rscale>  2 0.45554917E+03</rscale>
<asrwt>0</asrwt>
<pdfrwt beam="1">  1       21 0.43346624E-02 0.45554917E+03</pdfrwt>
<pdfrwt beam="2">  1       21 0.25884359E+00 0.45554917E+03</pdfrwt>
<totfact> 0.17385655E+04</totfact>
</mgrwt>
</event>
<event>
 7    0  0.4737014E-002  0.4544189E+03  0.7546771E-02  0.1026412E+00
         21   -1    0    0  502  501  0.00000000000E+00  0.00000000000E+00  0.20585084101E+03  0.20585084101E+03  0.00000000000E+00 0.  1.
         21   -1    0    0  501  502 -0.00000000000E+00 -0.00000000000E+00 -0.25078417065E+03  0.25078417065E+03  0.00000000000E+00 0.  1.
      99926    2    1    2    0    0  0.00000000000E+00  0.00000000000E+00 -0.44933329644E+02  0.45663501166E+03  0.45441889239E+03 0.  0.
      99925    2    3    3    0    0  0.91322430122E+02  0.64601495262E+02 -0.41403366172E+02  0.28878654376E+03  0.26300245188E+03 0.  0.
         25    1    4    4    0    0  0.74907771443E+02  0.27524144004E+02  0.73025186770E+01  0.14855836430E+03  0.12509000000E+03 0.  0.
         25    1    3    3    0    0 -0.91322430122E+02 -0.64601495262E+02 -0.35299634719E+01  0.16784846790E+03  0.12509000000E+03 0.  0.
         25    1    4    4    0    0  0.16414658679E+02  0.37077351258E+02 -0.48705884849E+02  0.14022817946E+03  0.12509000000E+03 0.  0.
<mgrwt>
<rscale>  2 0.45441889E+03</rscale>
<asrwt>0</asrwt>
<pdfrwt beam="1">  1       21 0.30272183E-01 0.45441889E+03</pdfrwt>
<pdfrwt beam="2">  1       21 0.36880025E-01 0.45441889E+03</pdfrwt>
<totfact> 0.68744348E+04</totfact>
</mgrwt>
</event>
<event>
 7    0  0.4737014E-002  0.4599216E+03  0.7546771E-02  0.1024804E+00
         21   -1    0    0  502  501  0.00000000000E+00  0.00000000000E+00  0.30532117621E+03  0.30532117621E+03  0.00000000000E+00 0. -1.
         21   -1    0    0  501  502 -0.00000000000E+00 -0.00000000000E+00 -0.17320112102E+03  0.17320112102E+03  0.00000000000E+00 0. -1.
      99926    2    1    2    0    0  0.88817841970E-15  0.17763568394E-14  0.13212005519E+03  0.47852229723E+03  0.45992160198E+03 0.  0.
      99925    2    3    3    0    0 -0.53571387538E+01 -0.69519890510E+01  0.20503682347E+03  0.33346578313E+03  0.26283512028E+03 0.  0.
         25    1    3    3    0    0  0.53571387538E+01  0.69519890510E+01 -0.72916768280E+02  0.14505651410E+03  0.12509000000E+03 0.  0.
         25    1    4    4    0    0  0.11519990810E+02 -0.25925444488E+02  0.64345232113E+02  0.14350141412E+03  0.12509000000E+03 0.  0.
         25    1    4    4    0    0 -0.16877129564E+02  0.18973455437E+02  0.14069159136E+03  0.18996436901E+03  0.12509000000E+03 0.  0.
<mgrwt>
<rscale>  2 0.45992160E+03</rscale>
<asrwt>0</asrwt>
<pdfrwt beam="1">  1       21 0.44900173E-01 0.45992160E+03</pdfrwt>
<pdfrwt beam="2">  1       21 0.25470753E-01 0.45992160E+03</pdfrwt>
<totfact> 0.64260999E+04</totfact>
</mgrwt>
</event>
<event>
 7    0  0.4737014E-002  0.4538389E+03  0.7546771E-02  0.1026583E+00
         21   -1    0    0  502  501  0.00000000000E+00  0.00000000000E+00  0.56996002223E+02  0.56996002223E+02  0.00000000000E+00 0. -1.
         21   -1    0    0  501  502 -0.00000000000E+00 -0.00000000000E+00 -0.90343934620E+03  0.90343934620E+03  0.00000000000E+00 0. -1.
      99926    2    1    2    0    0  0.00000000000E+00 -0.71054273576E-14 -0.84644334398E+03  0.96043534842E+03  0.45383887442E+03 0.  0.
      99925    2    3    3    0    0 -0.72181476475E+02  0.56632046238E+02 -0.66956917031E+03  0.72517095329E+03  0.26293094808E+03 0.  0.
         25    1    3    3    0    0  0.72181476475E+02 -0.56632046238E+02 -0.17687417367E+03  0.23526439513E+03  0.12509000000E+03 0.  0.
         25    1    4    4    0    0 -0.48136703975E+02  0.64491486763E+02 -0.31550482393E+03  0.34880810793E+03  0.12509000000E+03 0.  0.
         25    1    4    4    0    0 -0.24044772500E+02 -0.78594405257E+01 -0.35406434639E+03  0.37636284536E+03  0.12509000000E+03 0.  0.
<mgrwt>
<rscale>  2 0.45383887E+03</rscale>
<asrwt>0</asrwt>
<pdfrwt beam="1">  1       21 0.83817654E-02 0.45383887E+03</pdfrwt>
<pdfrwt beam="2">  1       21 0.13285872E+00 0.45383887E+03</pdfrwt>
<totfact> 0.41092943E+04</totfact>
</mgrwt>
</event>
<event>
 7    0  0.4737014E-002  0.4513392E+03  0.7546771E-02  0.1027323E+00
         21   -1    0    0  502  501  0.00000000000E+00  0.00000000000E+00  0.57047249503E+03  0.57047249503E+03  0.00000000000E+00 0.  1.
         21   -1    0    0  501  502 -0.00000000000E+00 -0.00000000000E+00 -0.89271189647E+02  0.89271189647E+02  0.00000000000E+00 0.  1.
      99926    2    1    2    0    0  0.35527136788E-14 -0.17763568394E-14  0.48120130539E+03  0.65974368468E+03  0.45133915537E+03 0.  0.
      99925    2    3    3    0    0 -0.20332664473E+02 -0.91816370333E+01  0.46077474889E+03  0.53104841665E+03  0.26306146032E+03 0.  0.
         25    1    4    4    0    0  0.14180485450E+02  0.10366642121E+02  0.28457748351E+03  0.31135254240E+03  0.12509000000E+03 0.  0.
         25    1    4    4    0    0 -0.34513149923E+02 -0.19548279155E+02  0.17619726539E+03  0.21969587426E+03  0.12509000000E+03 0.  0.
         25    1    3    3    0    0  0.20332664473E+02  0.91816370333E+01  0.20426556494E+02  0.12869526803E+03  0.12509000000E+03 0.  0.
<mgrwt>
<rscale>  2 0.45133916E+03</rscale>
<asrwt>0</asrwt>
<pdfrwt beam="1">  1       21 0.83893012E-01 0.45133916E+03</pdfrwt>
<pdfrwt beam="2">  1       21 0.13128116E-01 0.45133916E+03</pdfrwt>
<totfact> 0.56764180E+04</totfact>
</mgrwt>
</event>
<event>
 7    0  0.4737014E-002  0.4548259E+03  0.7546771E-02  0.1026293E+00
         21   -1    0    0  502  501  0.00000000000E+00  0.00000000000E+00  0.20004938053E+03  0.20004938053E+03  0.00000000000E+00 0. -1.
         21   -1    0    0  501  502 -0.00000000000E+00 -0.00000000000E+00 -0.25851941930E+03  0.25851941930E+03  0.00000000000E+00 0. -1.
      99926    2    1    2    0    0 -0.14210854715E-13 -0.71054273576E-14 -0.58470038769E+02  0.45856879984E+03  0.45482589938E+03 0.  0.
      99925    2    3    3    0    0 -0.93851182949E+02 -0.35971193526E+02  0.15754350266E+02  0.28176738770E+03  0.26275975703E+03 0.  0.
         25    1    4    4    0    0 -0.81173139997E+02 -0.18854667571E+01  0.24822080468E+02  0.15118292701E+03  0.12509000000E+03 0.  0.
         25    1    4    4    0    0 -0.12678042952E+02 -0.34085726769E+02 -0.90677302014E+01  0.13058446069E+03  0.12509000000E+03 0.  0.
         25    1    3    3    0    0  0.93851182949E+02  0.35971193526E+02 -0.74224389035E+02  0.17680141213E+03  0.12509000000E+03 0.  0.
<mgrwt>
<rscale>  2 0.45482590E+03</rscale>
<asrwt>0</asrwt>
<pdfrwt beam="1">  1       21 0.29419027E-01 0.45482590E+03</pdfrwt>
<pdfrwt beam="2">  1       21 0.38017561E-01 0.45482590E+03</pdfrwt>
<totfact> 0.68379869E+04</totfact>
</mgrwt>
</event>
<event>
 7    0  0.4737014E-002  0.4537476E+03  0.7546771E-02  0.1026610E+00
         21   -1    0    0  502  501  0.00000000000E+00  0.00000000000E+00  0.53448918293E+02  0.53448918293E+02  0.00000000000E+00 0.  1.
         21   -1    0    0  501  502 -0.00000000000E+00 -0.00000000000E+00 -0.96300763087E+03  0.96300763087E+03  0.00000000000E+00 0.  1.
      99926    2    1    2    0    0  0.00000000000E+00  0.00000000000E+00 -0.90955871257E+03  0.10164565492E+04  0.45374757819E+03 0.  0.
      99925    2    3    3    0    0  0.98477094853E+02 -0.20016256403E+02 -0.68345726558E+03  0.73920619088E+03  0.26308472027E+03 0.  0.
         25    1    4    4    0    0  0.27338538871E+02  0.99374401166E+00 -0.40934214507E+03  0.42890195041E+03  0.12509000000E+03 0.  0.
         25    1    3    3    0    0 -0.98477094853E+02  0.20016256403E+02 -0.22610144700E+03  0.27725035828E+03  0.12509000000E+03 0.  0.
         25    1    4    4    0    0  0.71138555982E+02 -0.21010000415E+02 -0.27411512050E+03  0.31030424047E+03  0.12509000000E+03 0.  0.
<mgrwt>
<rscale>  2 0.45374758E+03</rscale>
<asrwt>0</asrwt>
<pdfrwt beam="1">  1       21 0.78601359E-02 0.45374758E+03</pdfrwt>
<pdfrwt beam="2">  1       21 0.14161875E+00 0.45374758E+03</pdfrwt>
<totfact> 0.38911866E+04</totfact>
</mgrwt>
</event>
<event>
 7    0  0.4737014E-002  0.4542666E+03  0.7546771E-02  0.1026457E+00
         21   -1    0    0  502  501  0.00000000000E+00  0.00000000000E+00  0.75213582390E+02  0.75213582390E+02  0.00000000000E+00 0. -1.
         21   -1    0    0  501  502 -0.00000000000E+00 -0.00000000000E+00 -0.68590719851E+03  0.68590719851E+03  0.00000000000E+00 0. -1.
      99926    2    1    2    0    0  0.00000000000E+00  0.00000000000E+00 -0.61069361612E+03  0.76112078090E+03  0.45426660712E+03 0.  0.
      99925    2    3    3    0    0  0.48984421116E+02  0.10028997738E+03 -0.40791564466E+03  0.49801630187E+03  0.26299716861E+03 0.  0.
         25    1    3    3    0    0 -0.48984421116E+02 -0.10028997738E+03 -0.20277797146E+03  0.26310447903E+03  0.12509000000E+03 0.  0.
         25    1    4    4    0    0  0.11442105134E+02  0.76155367630E+02 -0.16312720186E+03  0.21951891462E+03  0.12509000000E+03 0.  0.
         25    1    4    4    0    0  0.37542315982E+02  0.24134609754E+02 -0.24478844280E+03  0.27849738726E+03  0.12509000000E+03 0.  0.
<mgrwt>
<rscale>  2 0.45426661E+03</rscale>
<asrwt>0</asrwt>
<pdfrwt beam="1">  1       21 0.11060820E-01 0.45426661E+03</pdfrwt>
<pdfrwt beam="2">  1       21 0.10086871E+00 0.45426661E+03</pdfrwt>
<totfact> 0.49989673E+04</totfact>
</mgrwt>
</event>
<event>
 7    0  0.4737014E-002  0.4526232E+03  0.7546771E-02  0.1026943E+00
         21   -1    0    0  502  501  0.00000000000E+00  0.00000000000E+00  0.13917011937E+03  0.13917011937E+03  0.00000000000E+00 0. -1.
         21   -1    0    0  501  502 -0.00000000000E+00 -0.00000000000E+00 -0.36801671330E+03  0.36801671330E+03  0.00000000000E+00 0. -1.
      99926    2    1    2    0    0 -0.71054273576E-14  0.17763568394E-14 -0.22884659393E+03  0.50718683268E+03  0.45262315416E+03 0.  0.
      99925    2    3    3    0    0 -0.59469219580E+02 -0.11076131321E+02 -0.40159738575E+02  0.27285905744E+03  0.26302089625E+03 0.  0.
         25    1    3    3    0    0  0.59469219580E+02  0.11076131321E+02 -0.18868685536E+03  0.23432777524E+03  0.12509000000E+03 0.  0.
         25    1    4    4    0    0 -0.44523481203E+01  0.18455510966E+02  0.29435505286E+01  0.12655671408E+03  0.12509000000E+03 0.  0.
         25    1    4    4    0    0 -0.55016871460E+02 -0.29531642287E+02 -0.43103289104E+02  0.14630234336E+03  0.12509000000E+03 0.  0.
<mgrwt>
<rscale>  2 0.45262315E+03</rscale>
<asrwt>0</asrwt>
<pdfrwt beam="1">  1       21 0.20466194E-01 0.45262315E+03</pdfrwt>
<pdfrwt beam="2">  1       21 0.54120104E-01 0.45262315E+03</pdfrwt>
<totfact> 0.66005020E+04</totfact>
</mgrwt>
</event>
<event>
 7    0  0.4737014E-002  0.4588702E+03  0.7546771E-02  0.1025109E+00
         21   -1    0    0  502  501  0.00000000000E+00  0.00000000000E+00  0.70967333115E+03  0.70967333115E+03  0.00000000000E+00 0. -1.
         21   -1    0    0  501  502 -0.00000000000E+00 -0.00000000000E+00 -0.74175632294E+02  0.74175632294E+02  0.00000000000E+00 0. -1.
      99926    2    1    2    0    0  0.00000000000E+00 -0.71054273576E-14  0.63549769886E+03  0.78384896344E+03  0.45887021285E+03 0.  0.
      99925    2    3    3    0    0  0.10249454065E+03  0.44901695265E+02  0.34154213659E+03  0.44535424593E+03  0.26299825132E+03 0.  0.
         25    1    3    3    0    0 -0.10249454065E+03 -0.44901695265E+02  0.29395556226E+03  0.33849471752E+03  0.12509000000E+03 0.  0.
         25    1    4    4    0    0  0.80268627002E+02 -0.18031490821E+01  0.15364841396E+03  0.21377943550E+03  0.12509000000E+03 0.  0.
         25    1    4    4    0    0  0.22225913650E+02  0.46704844347E+02  0.18789372263E+03  0.23157481043E+03  0.12509000000E+03 0.  0.
<mgrwt>
<rscale>  2 0.45887021E+03</rscale>
<asrwt>0</asrwt>
<pdfrwt beam="1">  1       21 0.10436372E+00 0.45887021E+03</pdfrwt>
<pdfrwt beam="2">  1       21 0.10908182E-01 0.45887021E+03</pdfrwt>
<totfact> 0.47108588E+04</totfact>
</mgrwt>
</event>
<event>
 7    0  0.4737014E-002  0.4560563E+03  0.7546771E-02  0.1025931E+00
         21   -1    0    0  502  501  0.00000000000E+00  0.00000000000E+00  0.16646971409E+04  0.16646971409E+04  0.00000000000E+00 0.  1.
         21   -1    0    0  501  502 -0.00000000000E+00 -0.00000000000E+00 -0.31235014131E+02  0.31235014131E+02  0.00000000000E+00 0.  1.
      99926    2    1    2    0    0  0.00000000000E+00  0.00000000000E+00  0.16334621268E+04  0.16959321550E+04  0.45605630670E+03 0.  0.
      99925    2    3    3    0    0 -0.90194121106E+02 -0.41518492418E+02  0.12359335423E+04  0.12675220148E+04  0.26309992835E+03 0.  0.
         25    1    3    3    0    0  0.90194121106E+02  0.41518492418E+02  0.39752858450E+03  0.42841014027E+03  0.12509000000E+03 0.  0.
         25    1    4    4    0    0 -0.81174719023E+02 -0.44890577822E+02  0.67666558632E+03  0.69435460882E+03  0.12509000000E+03 0.  0.
         25    1    4    4    0    0 -0.90194020826E+01  0.33720854042E+01  0.55926795596E+03  0.57316740594E+03  0.12509000000E+03 0.  0.
<mgrwt>
<rscale>  2 0.45605631E+03</rscale>
<asrwt>0</asrwt>
<pdfrwt beam="1">  1       21 0.24480834E+00 0.45605631E+03</pdfrwt>
<pdfrwt beam="2">  1       21 0.45933855E-02 0.45605631E+03</pdfrwt>
<totfact> 0.19188527E+04</totfact>
</mgrwt>
</event>
<event>
 7    0  0.4737014E-002  0.4574830E+03  0.7546771E-02  0.1025514E+00
         21   -1    0    0  502  501  0.00000000000E+00  0.00000000000E+00  0.14942790805E+03  0.14942790805E+03  0.00000000000E+00 0.  1.
         21   -1    0    0  501  502 -0.00000000000E+00 -0.00000000000E+00 -0.35015326599E+03  0.35015326599E+03  0.00000000000E+00 0.  1.
      99926    2    1    2    0    0  0.00000000000E+00 -0.44408920985E-15 -0.20072535794E+03  0.49958117403E+03  0.45748298343E+03 0.  0.
      99925    2    3    3    0    0  0.13514935137E+02 -0.38973313686E+01 -0.11428768437E+01  0.26361821608E+03  0.26324022303E+03 0.  0.
         25    1    4    4    0    0  0.25689786140E+02  0.82121035224E+01 -0.35437118292E+02  0.13278065073E+03  0.12509000000E+03 0.  0.
         25    1    4    4    0    0 -0.12174851004E+02 -0.12109434891E+02  0.34294241448E+02  0.13083756535E+03  0.12509000000E+03 0.  0.
         25    1    3    3    0    0 -0.13514935137E+02  0.38973313686E+01 -0.19958248110E+03  0.23596295795E+03  0.12509000000E+03 0.  0.
<mgrwt>
<rscale>  2 0.45748298E+03</rscale>
<asrwt>0</asrwt>
<pdfrwt beam="1">  1       21 0.21974692E-01 0.45748298E+03</pdfrwt>
<pdfrwt beam="2">  1       21 0.51493127E-01 0.45748298E+03</pdfrwt>
<totfact> 0.64028714E+04</totfact>
</mgrwt>
</event>
<event>
 7    0  0.4737014E-002  0.4004081E+03  0.7546771E-02  0.1043638E+00
         21   -1    0    0  502  501  0.00000000000E+00  0.00000000000E+00  0.37566482880E+02  0.37566482880E+02  0.00000000000E+00 0.  1.
         21   -1    0    0  501  502 -0.00000000000E+00 -0.00000000000E+00 -0.10669525314E+04  0.10669525314E+04  0.00000000000E+00 0.  1.
      99926    2    1    2    0    0  0.00000000000E+00  0.17763568394E-14 -0.10293860485E+04  0.11045190142E+04  0.40040806187E+03 0.  0.
      99925    2    3    3    0    0  0.22453905341E+02  0.24942075550E+01 -0.57563098110E+03  0.63329553413E+03  0.26306236562E+03 0.  0.
         25    1    3    3    0    0 -0.22453905341E+02 -0.24942075550E+01 -0.45375506738E+03  0.47122348011E+03  0.12509000000E+03 0.  0.
         25    1    4    4    0    0  0.45387982786E+02 -0.20144869230E+02 -0.27938573527E+03  0.31011253105E+03  0.12509000000E+03 0.  0.
         25    1    4    4    0    0 -0.22934077445E+02  0.22639076785E+02 -0.29624524583E+03  0.32318300309E+03  0.12509000000E+03 0.  0.
<mgrwt>
<rscale>  2 0.40040806E+03</rscale>
<asrwt>0</asrwt>
<pdfrwt beam="1">  1       21 0.55244831E-02 0.40040806E+03</pdfrwt>
<pdfrwt beam="2">  1       21 0.15690477E+00 0.40040806E+03</pdfrwt>
<totfact> 0.55438141E+04</totfact>
</mgrwt>
</event>
<event>
 7    0  0.4737014E-002  0.4523121E+03  0.7546771E-02  0.1027035E+00
         21   -1    0    0  502  501  0.00000000000E+00  0.00000000000E+00  0.49231196145E+02  0.49231196145E+02  0.00000000000E+00 0. -1.
         21   -1    0    0  501  502 -0.00000000000E+00 -0.00000000000E+00 -0.10389055886E+04  0.10389055886E+04  0.00000000000E+00 0. -1.
      99926    2    1    2    0    0 -0.35527136788E-14  0.00000000000E+00 -0.98967439242E+03  0.10881367847E+04  0.45231212589E+03 0.  0.
      99925    2    3    3    0    0  0.29406101024E+02  0.10553199473E+03 -0.58787775221E+03  0.65329225057E+03  0.26303762548E+03 0.  0.
         25    1    3    3    0    0 -0.29406101024E+02 -0.10553199473E+03 -0.40179664021E+03  0.43484453414E+03  0.12509000000E+03 0.  0.
         25    1    4    4    0    0  0.41031345171E+02  0.86253257574E+02 -0.34343482623E+03  0.37778060260E+03  0.12509000000E+03 0.  0.
         25    1    4    4    0    0 -0.11625244147E+02  0.19278737158E+02 -0.24444292598E+03  0.27551164797E+03  0.12509000000E+03 0.  0.
<mgrwt>
<rscale>  2 0.45231213E+03</rscale>
<asrwt>0</asrwt>
<pdfrwt beam="1">  1       21 0.72398813E-02 0.45231213E+03</pdfrwt>
<pdfrwt beam="2">  1       21 0.15278024E+00 0.45231213E+03</pdfrwt>
<totfact> 0.36671349E+04</totfact>
</mgrwt>
</event>
<event>
 7    0  0.4737014E-002  0.4199572E+03  0.7546771E-02  0.1037080E+00
         21   -1    0    0  502  501  0.00000000000E+00  0.00000000000E+00  0.25715604662E+02  0.25715604662E+02  0.00000000000E+00 0.  1.
         21   -1    0    0  501  502 -0.00000000000E+00 -0.00000000000E+00 -0.17145628307E+04  0.17145628307E+04  0.00000000000E+00 0.  1.
      99926    2    1    2    0    0  0.00000000000E+00 -0.35527136788E-14 -0.16888472260E+04  0.17402784354E+04  0.41995723555E+03 0.  0.
      99925    2    3    3    0    0  0.69230986124E+02  0.22731671572E+02 -0.11855087384E+04  0.12165353690E+04  0.26309252528E+03 0.  0.
         25    1    4    4    0    0  0.12196430775E+02  0.33615886094E+02 -0.46042708366E+03  0.47845521023E+03  0.12509000000E+03 0.  0.
         25    1    3    3    0    0 -0.69230986124E+02 -0.22731671572E+02 -0.50333848761E+03  0.52374306634E+03  0.12509000000E+03 0.  0.
         25    1    4    4    0    0  0.57034555348E+02 -0.10884214522E+02 -0.72508165476E+03  0.73808015879E+03  0.12509000000E+03 0.  0.
<mgrwt>
<rscale>  2 0.41995724E+03</rscale>
<asrwt>0</asrwt>
<pdfrwt beam="1">  1       21 0.37817064E-02 0.41995724E+03</pdfrwt>
<pdfrwt beam="2">  1       21 0.25214160E+00 0.41995724E+03</pdfrwt>
<totfact> 0.24437039E+04</totfact>
</mgrwt>
</event>
<event>
 7    0  0.4737014E-002  0.4411712E+03  0.7546771E-02  0.1030388E+00
         21   -1    0    0  502  501  0.00000000000E+00  0.00000000000E+00  0.10814383658E+03  0.10814383658E+03  0.00000000000E+00 0.  1.
         21   -1    0    0  501  502 -0.00000000000E+00 -0.00000000000E+00 -0.44993784744E+03  0.44993784744E+03  0.00000000000E+00 0.  1.
      99926    2    1    2    0    0  0.00000000000E+00  0.00000000000E+00 -0.34179401086E+03  0.55808168402E+03  0.44117119146E+03 0.  0.
      99925    2    3    3    0    0  0.74458357159E+01 -0.96845467630E+02 -0.24613704183E+03  0.37306209345E+03  0.26297794040E+03 0.  0.
         25    1    3    3    0    0 -0.74458357159E+01  0.96845467630E+02 -0.95656969038E+02  0.18501959057E+03  0.12509000000E+03 0.  0.
         25    1    4    4    0    0  0.30294823224E+02 -0.18708503305E+02 -0.98694822405E+02  0.16326653203E+03  0.12509000000E+03 0.  0.
         25    1    4    4    0    0 -0.22848987509E+02 -0.78136964324E+02 -0.14744221942E+03  0.20979556142E+03  0.12509000000E+03 0.  0.
<mgrwt>
<rscale>  2 0.44117119E+03</rscale>
<asrwt>0</asrwt>
<pdfrwt beam="1">  1       21 0.15903505E-01 0.44117119E+03</pdfrwt>
<pdfrwt beam="2">  1       21 0.66167331E-01 0.44117119E+03</pdfrwt>
<totfact> 0.68529854E+04</totfact>
</mgrwt>
</event>
<event>
 7    0  0.4737014E-002  0.4501149E+03  0.7546771E-02  0.1027688E+00
         21   -1    0    0  502  501  0.00000000000E+00  0.00000000000E+00  0.16948732481E+03  0.16948732481E+03  0.00000000000E+00 0.  1.
         21   -1    0    0  501  502 -0.00000000000E+00 -0.00000000000E+00 -0.29884750537E+03  0.29884750537E+03  0.00000000000E+00 0.  1.
      99926    2    1    2    0    0  0.88817841970E-15  0.00000000000E+00 -0.12936018056E+03  0.46833483019E+03  0.45011493738E+03 0.  0.
      99925    2    3    3    0    0 -0.27935608668E+01  0.87981216558E+02 -0.14770715596E+03  0.31428088491E+03  0.26307142043E+03 0.  0.
         25    1    3    3    0    0  0.27935608668E+01 -0.87981216558E+02  0.18346975395E+02  0.15405394528E+03  0.12509000000E+03 0.  0.
         25    1    4    4    0    0 -0.33928157337E+02  0.67094824317E+02 -0.65485962749E+02  0.15996485466E+03  0.12509000000E+03 0.  0.
         25    1    4    4    0    0  0.31134596470E+02  0.20886392241E+02 -0.82221193207E+02  0.15431603024E+03  0.12509000000E+03 0.  0.
<mgrwt>
<rscale>  2 0.45011494E+03</rscale>
<asrwt>0</asrwt>
<pdfrwt beam="1">  1       21 0.24924607E-01 0.45011494E+03</pdfrwt>
<pdfrwt beam="2">  1       21 0.43948162E-01 0.45011494E+03</pdfrwt>
<totfact> 0.70242931E+04</totfact>
</mgrwt>
</event>
<event>
 7    0  0.4737014E-002  0.4635286E+03  0.7546771E-02  0.1023763E+00
         21   -1    0    0  502  501  0.00000000000E+00  0.00000000000E+00  0.16113426769E+03  0.16113426769E+03  0.00000000000E+00 0. -1.
         21   -1    0    0  501  502 -0.00000000000E+00 -0.00000000000E+00 -0.33335365094E+03  0.33335365094E+03  0.00000000000E+00 0. -1.
      99926    2    1    2    0    0 -0.14210854715E-13  0.00000000000E+00 -0.17221938325E+03  0.49448791863E+03  0.46352862446E+03 0.  0.
      99925    2    3    3    0    0  0.11524894897E+03  0.33193320643E+02 -0.90477551087E+02  0.30288063275E+03  0.26299500693E+03 0.  0.
         25    1    4    4    0    0  0.83031884709E+02  0.50617489303E+02 -0.56106612078E+02  0.16808296797E+03  0.12509000000E+03 0.  0.
         25    1    3    3    0    0 -0.11524894897E+03 -0.33193320643E+02 -0.81741832167E+02  0.19160728587E+03  0.12509000000E+03 0.  0.
         25    1    4    4    0    0  0.32217064260E+02 -0.17424168660E+02 -0.34370939008E+02  0.13479766478E+03  0.12509000000E+03 0.  0.
<mgrwt>
<rscale>  2 0.46352862E+03</rscale>
<asrwt>0</asrwt>
<pdfrwt beam="1">  1       21 0.23696216E-01 0.46352862E+03</pdfrwt>
<pdfrwt beam="2">  1       21 0.49022595E-01 0.46352862E+03</pdfrwt>
<totfact> 0.61396310E+04</totfact>
</mgrwt>
</event>
<event>
 7    0  0.4737014E-002  0.4514178E+03  0.7546771E-02  0.1027300E+00
         21   -1    0    0  502  501  0.00000000000E+00  0.00000000000E+00  0.90488299376E+02  0.90488299376E+02  0.00000000000E+00 0. -1.
         21   -1    0    0  501  502 -0.00000000000E+00 -0.00000000000E+00 -0.56299550728E+03  0.56299550728E+03  0.00000000000E+00 0. -1.
      99926    2    1    2    0    0  0.00000000000E+00 -0.66613381478E-15 -0.47250720791E+03  0.65348380666E+03  0.45141779323E+03 0.  0.
      99925    2    3    3    0    0 -0.55864373430E+02  0.83104523672E+00 -0.16164361331E+03  0.31377039597E+03  0.26306213108E+03 0.  0.
         25    1    3    3    0    0  0.55864373430E+02 -0.83104523672E+00 -0.31086359459E+03  0.33971341068E+03  0.12509000000E+03 0.  0.
         25    1    4    4    0    0 -0.56401239708E+02  0.10387373723E+02 -0.11694515559E+03  0.18058979730E+03  0.12509000000E+03 0.  0.
         25    1    4    4    0    0  0.53686627755E+00 -0.95563284860E+01 -0.44698457718E+02  0.13318059867E+03  0.12509000000E+03 0.  0.
<mgrwt>
<rscale>  2 0.45141779E+03</rscale>
<asrwt>0</asrwt>
<pdfrwt beam="1">  1       21 0.13307102E-01 0.45141779E+03</pdfrwt>
<pdfrwt beam="2">  1       21 0.82793461E-01 0.45141779E+03</pdfrwt>
<totfact> 0.57097545E+04</totfact>
</mgrwt>
</event>
<event>
 7    0  0.4737014E-002  0.4536675E+03  0.7546771E-02  0.1026634E+00
         21   -1    0    0  502  501  0.00000000000E+00  0.00000000000E+00  0.21006696323E+03  0.21006696323E+03  0.00000000000E+00 0. -1.
         21   -1    0    0  501  502 -0.00000000000E+00 -0.00000000000E+00 -0.24493881615E+03  0.24493881615E+03  0.00000000000E+00 0. -1.
      99926    2    1    2    0    0  0.00000000000E+00  0.00000000000E+00 -0.34871852920E+02  0.45500577938E+03  0.45366751387E+03 0.  0.
      99925    2    3    3    0    0  0.17164994255E+02  0.76521146487E+02  0.58514409649E+02  0.28030997226E+03  0.26267779031E+03 0.  0.
         25    1    3    3    0    0 -0.17164994255E+02 -0.76521146487E+02 -0.93386262569E+02  0.17469580712E+03  0.12509000000E+03 0.  0.
         25    1    4    4    0    0 -0.13426305459E+02  0.12192922447E+02  0.42413848131E+01  0.12646908903E+03  0.12509000000E+03 0.  0.
         25    1    4    4    0    0  0.30591299714E+02  0.64328224041E+02  0.54273024836E+02  0.15384088322E+03  0.12509000000E+03 0.  0.
<mgrwt>
<rscale>  2 0.45366751E+03</rscale>
<asrwt>0</asrwt>
<pdfrwt beam="1">  1       21 0.30892200E-01 0.45366751E+03</pdfrwt>
<pdfrwt beam="2">  1       21 0.36020414E-01 0.45366751E+03</pdfrwt>
<totfact> 0.69279021E+04</totfact>
</mgrwt>
</event>
<event>
 7    0  0.4737014E-002  0.4617784E+03  0.7546771E-02  0.1024267E+00
         21   -1    0    0  502  501  0.00000000000E+00  0.00000000000E+00  0.62648108562E+03  0.62648108562E+03  0.00000000000E+00 0. -1.
         21   -1    0    0  501  502 -0.00000000000E+00 -0.00000000000E+00 -0.85094064587E+02  0.85094064587E+02  0.00000000000E+00 0. -1.
      99926    2    1    2    0    0  0.00000000000E+00  0.00000000000E+00  0.54138702104E+03  0.71157515021E+03  0.46177839691E+03 0.  0.
      99925    2    3    3    0    0  0.48618147746E+02 -0.10780944334E+03  0.31295356192E+03  0.42554026823E+03  0.26297906305E+03 0.  0.
         25    1    4    4    0    0  0.11473222267E+02 -0.28073035151E+02  0.18912573547E+03  0.22877015113E+03  0.12509000000E+03 0.  0.
         25    1    3    3    0    0 -0.48618147746E+02  0.10780944334E+03  0.22843345911E+03  0.28603488197E+03  0.12509000000E+03 0.  0.
         25    1    4    4    0    0  0.37144925479E+02 -0.79736408193E+02  0.12382782645E+03  0.19677011710E+03  0.12509000000E+03 0.  0.
<mgrwt>
<rscale>  2 0.46177840E+03</rscale>
<asrwt>0</asrwt>
<pdfrwt beam="1">  1       21 0.92129569E-01 0.46177840E+03</pdfrwt>
<pdfrwt beam="2">  1       21 0.12513833E-01 0.46177840E+03</pdfrwt>
<totfact> 0.49581508E+04</totfact>
</mgrwt>
</event>
<event>
 7    0  0.4737014E-002  0.4546528E+03  0.7546771E-02  0.1026344E+00
         21   -1    0    0  502  501  0.00000000000E+00  0.00000000000E+00  0.24565761153E+03  0.24565761153E+03  0.00000000000E+00 0.  1.
         21   -1    0    0  501  502 -0.00000000000E+00 -0.00000000000E+00 -0.21036312353E+03  0.21036312353E+03  0.00000000000E+00 0.  1.
      99926    2    1    2    0    0 -0.14210854715E-13  0.71054273576E-14  0.35294488002E+02  0.45602073505E+03  0.45465284549E+03 0.  0.
      99925    2    3    3    0    0  0.98544503561E+02 -0.52492928890E+02  0.58815394670E+01  0.28578808129E+03  0.26300895067E+03 0.  0.
         25    1    3    3    0    0 -0.98544503561E+02  0.52492928890E+02  0.29412948535E+02  0.17023265376E+03  0.12509000000E+03 0.  0.
         25    1    4    4    0    0  0.29273220436E+02 -0.61387256996E+02  0.62905633393E+01  0.14252156343E+03  0.12509000000E+03 0.  0.
         25    1    4    4    0    0  0.69271283125E+02  0.88943281057E+01 -0.40902387234E+00  0.14326651786E+03  0.12509000000E+03 0.  0.
<mgrwt>
<rscale>  2 0.45465285E+03</rscale>
<asrwt>0</asrwt>
<pdfrwt beam="1">  1       21 0.36126119E-01 0.45465285E+03</pdfrwt>
<pdfrwt beam="2">  1       21 0.30935753E-01 0.45465285E+03</pdfrwt>
<totfact> 0.68661097E+04</totfact>
</mgrwt>
</event>
<event>
 7    0  0.4737014E-002  0.4431777E+03  0.7546771E-02  0.1029776E+00
         21   -1    0    0  502  501  0.00000000000E+00  0.00000000000E+00  0.39320317943E+02  0.39320317943E+02  0.00000000000E+00 0. -1.
         21   -1    0    0  501  502 -0.00000000000E+00 -0.00000000000E+00 -0.12487597079E+04  0.12487597079E+04  0.00000000000E+00 0. -1.
      99926    2    1    2    0    0 -0.71054273576E-14 -0.14210854715E-13 -0.12094393900E+04  0.12880800259E+04  0.44317774651E+03 0.  0.
      99925    2    3    3    0    0  0.36003197937E+02  0.94656474860E+02 -0.74226714288E+03  0.79396111806E+03  0.26297845367E+03 0.  0.
         25    1    4    4    0    0  0.27914939885E+02  0.86263923945E+02 -0.36587271248E+03  0.39715369605E+03  0.12509000000E+03 0.  0.
         25    1    4    4    0    0  0.80882580521E+01  0.83925509150E+01 -0.37639443040E+03  0.39680742201E+03  0.12509000000E+03 0.  0.
         25    1    3    3    0    0 -0.36003197937E+02 -0.94656474860E+02 -0.46717224710E+03  0.49411890781E+03  0.12509000000E+03 0.  0.
<mgrwt>
<rscale>  2 0.44317775E+03</rscale>
<asrwt>0</asrwt>
<pdfrwt beam="1">  1       21 0.57824002E-02 0.44317775E+03</pdfrwt>
<pdfrwt beam="2">  1       21 0.18364112E+00 0.44317775E+03</pdfrwt>
<totfact> 0.32335505E+04</totfact>
</mgrwt>
</event>
<event>
 7    0  0.4737014E-002  0.4617544E+03  0.7546771E-02  0.1024274E+00
         21   -1    0    0  502  501  0.00000000000E+00  0.00000000000E+00  0.13921773493E+03  0.13921773493E+03  0.00000000000E+00 0.  1.
         21   -1    0    0  501  502 -0.00000000000E+00 -0.00000000000E+00 -0.38288427538E+03  0.38288427538E+03  0.00000000000E+00 0.  1.
      99926    2    1    2    0    0  0.00000000000E+00  0.00000000000E+00 -0.24366654045E+03  0.52210201031E+03  0.46175440034E+03 0.  0.
      99925    2    3    3    0    0 -0.47389014951E+02  0.90233809933E+02 -0.82951255842E+02  0.29436362970E+03  0.26340306842E+03 0.  0.
         25    1    4    4    0    0 -0.62654395328E+02  0.32352294574E+02 -0.47198805039E+02  0.15115382733E+03  0.12509000000E+03 0.  0.
         25    1    3    3    0    0  0.47389014951E+02 -0.90233809933E+02 -0.16071528461E+03  0.22773838061E+03  0.12509000000E+03 0.  0.
         25    1    4    4    0    0  0.15265380377E+02  0.57881515359E+02 -0.35752450803E+02  0.14320980238E+03  0.12509000000E+03 0.  0.
<mgrwt>
<rscale>  2 0.46175440E+03</rscale>
<asrwt>0</asrwt>
<pdfrwt beam="1">  1       21 0.20473196E-01 0.46175440E+03</pdfrwt>
<pdfrwt beam="2">  1       21 0.56306511E-01 0.46175440E+03</pdfrwt>
<totfact> 0.60439699E+04</totfact>
</mgrwt>
</event>
<event>
 6    0  0.4737014E-002  0.4563338E+03  0.7546771E-02  0.1025850E+00
         21   -1    0    0  502  501  0.00000000000E+00  0.00000000000E+00  0.33456140194E+02  0.33456140194E+02  0.00000000000E+00 0. -1.
         21   -1    0    0  501  502 -0.00000000000E+00 -0.00000000000E+00 -0.15560714106E+04  0.15560714106E+04  0.00000000000E+00 0. -1.
      99926    2    1    2    0    0  0.00000000000E+00 -0.14210854715E-13 -0.15226152704E+04  0.15895275508E+04  0.45633383949E+03 0.  0.
         25    1    3    3    0    0 -0.93085950235E+01 -0.65955117275E+02 -0.51393257134E+03  0.53311436243E+03  0.12509000000E+03 0.  0.
         25    1    3    3    0    0  0.51587304006E+02 -0.29101783133E+02 -0.31777332191E+03  0.34660576443E+03  0.12509000000E+03 0.  0.
         25    1    3    3    0    0 -0.42278708983E+02  0.95056900408E+02 -0.69090937717E+03  0.70980742396E+03  0.12509000000E+03 0.  0.
<mgrwt>
<rscale>  2 0.45633384E+03</rscale>
<asrwt>0</asrwt>
<pdfrwt beam="1">  1       21 0.49200203E-02 0.45633384E+03</pdfrwt>
<pdfrwt beam="2">  1       21 0.22883405E+00 0.45633384E+03</pdfrwt>
<totfact> 0.21444482E+04</totfact>
</mgrwt>
</event>
<event>
 7    0  0.4737014E-002  0.4520007E+03  0.7546771E-02  0.1027127E+00
         21   -1    0    0  502  501  0.00000000000E+00  0.00000000000E+00  0.20106576166E+03  0.20106576166E+03  0.00000000000E+00 0. -1.
         21   -1    0    0  501  502 -0.00000000000E+00 -0.00000000000E+00 -0.25402711423E+03  0.25402711423E+03  0.00000000000E+00 0. -1.
      99926    2    1    2    0    0  0.00000000000E+00  0.00000000000E+00 -0.52961352566E+02  0.45509287589E+03  0.45200068675E+03 0.  0.
      99925    2    3    3    0    0 -0.32022223100E+02 -0.96242645627E+02  0.10422444580E+02  0.28202328454E+03  0.26294569033E+03 0.  0.
         25    1    4    4    0    0  0.21237646423E+02 -0.60067394433E+02 -0.51671146907E+01  0.14047539526E+03  0.12509000000E+03 0.  0.
         25    1    3    3    0    0  0.32022223100E+02  0.96242645627E+02 -0.63383797147E+02  0.17306959135E+03  0.12509000000E+03 0.  0.
         25    1    4    4    0    0 -0.53259869523E+02 -0.36175251194E+02  0.15589559271E+02  0.14154788928E+03  0.12509000000E+03 0.  0.
<mgrwt>
<rscale>  2 0.45200069E+03</rscale>
<asrwt>0</asrwt>
<pdfrwt beam="1">  1       21 0.29568494E-01 0.45200069E+03</pdfrwt>
<pdfrwt beam="2">  1       21 0.37356929E-01 0.45200069E+03</pdfrwt>
<totfact> 0.70203872E+04</totfact>
</mgrwt>
</event>
<event>
 7    0  0.4737014E-002  0.4602853E+03  0.7546771E-02  0.1024699E+00
         21   -1    0    0  502  501  0.00000000000E+00  0.00000000000E+00  0.13223856361E+03  0.13223856361E+03  0.00000000000E+00 0. -1.
         21   -1    0    0  501  502 -0.00000000000E+00 -0.00000000000E+00 -0.40053100558E+03  0.40053100558E+03  0.00000000000E+00 0. -1.
      99926    2    1    2    0    0 -0.71054273576E-14  0.00000000000E+00 -0.26829244197E+03  0.53276956920E+03  0.46028532395E+03 0.  0.
      99925    2    3    3    0    0 -0.28060333980E+02 -0.42423575965E+01 -0.30058557625E+03  0.40049812647E+03  0.26313813998E+03 0.  0.
         25    1    4    4    0    0 -0.53026236414E+02 -0.10541704900E+02 -0.14082252880E+03  0.19596275669E+03  0.12509000000E+03 0.  0.
         25    1    3    3    0    0  0.28060333980E+02  0.42423575965E+01  0.32293134278E+02  0.13227144273E+03  0.12509000000E+03 0.  0.
         25    1    4    4    0    0  0.24965902433E+02  0.62993473033E+01 -0.15976304745E+03  0.20453536978E+03  0.12509000000E+03 0.  0.
<mgrwt>
<rscale>  2 0.46028532E+03</rscale>
<asrwt>0</asrwt>
<pdfrwt beam="1">  1       21 0.19446848E-01 0.46028532E+03</pdfrwt>
<pdfrwt beam="2">  1       21 0.58901619E-01 0.46028532E+03</pdfrwt>
<totfact> 0.60447209E+04</totfact>
</mgrwt>
</event>
<event>
 7    0  0.4737014E-002  0.4574029E+03  0.7546771E-02  0.1025537E+00
         21   -1    0    0  502  501  0.00000000000E+00  0.00000000000E+00  0.19555385526E+03  0.19555385526E+03  0.00000000000E+00 0.  1.
         21   -1    0    0  501  502 -0.00000000000E+00 -0.00000000000E+00 -0.26746774747E+03  0.26746774747E+03  0.00000000000E+00 0.  1.
      99926    2    1    2    0    0  0.14210854715E-13  0.71054273576E-14 -0.71913892204E+02  0.46302160273E+03  0.45740288226E+03 0.  0.
      99925    2    3    3    0    0  0.91365251718E+02  0.41918907822E+02 -0.10243752729E+03  0.29966920925E+03  0.26306536055E+03 0.  0.
         25    1    4    4    0    0  0.59488201555E+02  0.60292744841E+02 -0.49938869656E+02  0.15910832790E+03  0.12509000000E+03 0.  0.
         25    1    3    3    0    0 -0.91365251718E+02 -0.41918907822E+02  0.30523635084E+02  0.16335239347E+03  0.12509000000E+03 0.  0.
         25    1    4    4    0    0  0.31877050163E+02 -0.18373837019E+02 -0.52498657633E+02  0.14056088135E+03  0.12509000000E+03 0.  0.
<mgrwt>
<rscale>  2 0.45740288E+03</rscale>
<asrwt>0</asrwt>
<pdfrwt beam="1">  1       21 0.28757920E-01 0.45740288E+03</pdfrwt>
<pdfrwt beam="2">  1       21 0.39333492E-01 0.45740288E+03</pdfrwt>
<totfact> 0.66674099E+04</totfact>
</mgrwt>
</event>
<event>
 7    0  0.4737014E-002  0.4550191E+03  0.7546771E-02  0.1026236E+00
         21   -1    0    0  502  501  0.00000000000E+00  0.00000000000E+00  0.39304231179E+03  0.39304231179E+03  0.00000000000E+00 0. -1.
         21   -1    0    0  501  502 -0.00000000000E+00 -0.00000000000E+00 -0.13169217131E+03  0.13169217131E+03  0.00000000000E+00 0. -1.
      99926    2    1    2    0    0  0.00000000000E+00  0.00000000000E+00  0.26135014048E+03  0.52473448311E+03  0.45501910051E+03 0.  0.
      99925    2    3    3    0    0 -0.68771698877E+02  0.63167048370E+02  0.91452249415E+02  0.29401295387E+03  0.26336377988E+03 0.  0.
         25    1    4    4    0    0 -0.64449513013E+02  0.57731037196E+02  0.67759523452E+02  0.16650967990E+03  0.12509000000E+03 0.  0.
         25    1    4    4    0    0 -0.43221858644E+01  0.54360111740E+01  0.23692725962E+02  0.12750327396E+03  0.12509000000E+03 0.  0.
         25    1    3    3    0    0  0.68771698877E+02 -0.63167048370E+02  0.16989789106E+03  0.23072152924E+03  0.12509000000E+03 0.  0.
<mgrwt>
<rscale>  2 0.45501910E+03</rscale>
<asrwt>0</asrwt>
<pdfrwt beam="1">  1       21 0.57800340E-01 0.45501910E+03</pdfrwt>
<pdfrwt beam="2">  1       21 0.19366496E-01 0.45501910E+03</pdfrwt>
<totfact> 0.63554740E+04</totfact>
</mgrwt>
</event>
<event>
 7    0  0.4737014E-002  0.4426626E+03  0.7546771E-02  0.1029933E+00
         21   -1    0    0  502  501  0.00000000000E+00  0.00000000000E+00  0.64864467056E+02  0.64864467056E+02  0.00000000000E+00 0.  1.
         21   -1    0    0  501  502 -0.00000000000E+00 -0.00000000000E+00 -0.75522935081E+03  0.75522935081E+03  0.00000000000E+00 0.  1.
      99926    2    1    2    0    0  0.00000000000E+00  0.00000000000E+00 -0.69036488375E+03  0.82009381786E+03  0.44266262252E+03 0.  0.
      99925    2    3    3    0    0 -0.43504701833E+02 -0.87198801235E+02 -0.49035103159E+03  0.56485013200E+03  0.26289778891E+03 0.  0.
         25    1    4    4    0    0 -0.26421275673E+02 -0.85613678862E+02 -0.28112782192E+03  0.32048111672E+03  0.12509000000E+03 0.  0.
         25    1    3    3    0    0  0.43504701833E+02  0.87198801235E+02 -0.20001385216E+03  0.25524368587E+03  0.12509000000E+03 0.  0.
         25    1    4    4    0    0 -0.17083426160E+02 -0.15851223732E+01 -0.20922320967E+03  0.24436901528E+03  0.12509000000E+03 0.  0.
<mgrwt>
<rscale>  2 0.44266262E+03</rscale>
<asrwt>0</asrwt>
<pdfrwt beam="1">  1       21 0.95388922E-02 0.44266262E+03</pdfrwt>
<pdfrwt beam="2">  1       21 0.11106314E+00 0.44266262E+03</pdfrwt>
<totfact> 0.51627601E+04</totfact>
</mgrwt>
</event>
<event>
 7    0  0.4737014E-002  0.4529489E+03  0.7546771E-02  0.1026846E+00
         21   -1    0    0  502  501  0.00000000000E+00  0.00000000000E+00  0.21783151108E+04  0.21783151108E+04  0.00000000000E+00 0. -1.
         21   -1    0    0  501  502 -0.00000000000E+00 -0.00000000000E+00 -0.23546028467E+02  0.23546028467E+02  0.00000000000E+00 0. -1.
      99926    2    1    2    0    0 -0.35527136788E-14  0.00000000000E+00  0.21547690823E+04  0.22018611392E+04  0.45294886955E+03 0.  0.
      99925    2    3    3    0    0 -0.11663837616E+02  0.11007669920E+03  0.14053183829E+04  0.14340221042E+04  0.26314770217E+03 0.  0.
         25    1    4    4    0    0  0.26182797695E+02  0.29057296847E+02  0.59859798170E+03  0.61277803257E+03  0.12509000000E+03 0.  0.
         25    1    3    3    0    0  0.11663837616E+02 -0.11007669920E+03  0.74945069944E+03  0.76783903508E+03  0.12509000000E+03 0.  0.
         25    1    4    4    0    0 -0.37846635311E+02  0.81019402353E+02  0.80672040117E+03  0.82124407159E+03  0.12509000000E+03 0.  0.
<mgrwt>
<rscale>  2 0.45294887E+03</rscale>
<asrwt>0</asrwt>
<pdfrwt beam="1">  1       21 0.32034032E+00 0.45294887E+03</pdfrwt>
<pdfrwt beam="2">  1       21 0.34626527E-02 0.45294887E+03</pdfrwt>
<totfact> 0.10857386E+04</totfact>
</mgrwt>
</event>
<event>
 7    0  0.4737014E-002  0.4515527E+03  0.7546771E-02  0.1027260E+00
         21   -1    0    0  502  501  0.00000000000E+00  0.00000000000E+00  0.36186510658E+03  0.36186510658E+03  0.00000000000E+00 0. -1.
         21   -1    0    0  501  502 -0.00000000000E+00 -0.00000000000E+00 -0.14086732465E+03  0.14086732465E+03  0.00000000000E+00 0. -1.
      99926    2    1    2    0    0 -0.17763568394E-14 -0.71054273576E-14  0.22099778193E+03  0.50273243123E+03  0.45155274088E+03 0.  0.
      99925    2    3    3    0    0 -0.11131227123E+02 -0.32222312824E+02  0.25600711339E+03  0.36843670140E+03  0.26276182975E+03 0.  0.
         25    1    3    3    0    0  0.11131227123E+02  0.32222312824E+02 -0.35009331462E+02  0.13429572983E+03  0.12509000000E+03 0.  0.
         25    1    4    4    0    0  0.96724056356E+01  0.21369497418E+02  0.12039416349E+03  0.17519267552E+03  0.12509000000E+03 0.  0.
         25    1    4    4    0    0 -0.20803632759E+02 -0.53591810242E+02  0.13561294990E+03  0.19324402589E+03  0.12509000000E+03 0.  0.
<mgrwt>
<rscale>  2 0.45155274E+03</rscale>
<asrwt>0</asrwt>
<pdfrwt beam="1">  1       21 0.53215457E-01 0.45155274E+03</pdfrwt>
<pdfrwt beam="2">  1       21 0.20715783E-01 0.45155274E+03</pdfrwt>
<totfact> 0.66890740E+04</totfact>
</mgrwt>
</event>
<event>
 7    0  0.4737014E-002  0.4386222E+03  0.7546771E-02  0.1031170E+00
         21   -1    0    0  502  501  0.00000000000E+00  0.00000000000E+00  0.17104678329E+03  0.17104678329E+03  0.00000000000E+00 0.  1.
         21   -1    0    0  501  502 -0.00000000000E+00 -0.00000000000E+00 -0.28119412085E+03  0.28119412085E+03  0.00000000000E+00 0.  1.
      99926    2    1    2    0    0  0.22204460493E-14  0.00000000000E+00 -0.11014733756E+03  0.45224090414E+03  0.43862216018E+03 0.  0.
      99925    2    3    3    0    0 -0.22296865803E+01 -0.15559598672E+02 -0.16932276067E+03  0.31297026325E+03  0.26274153798E+03 0.  0.
         25    1    4    4    0    0 -0.40291478441E+02 -0.48872261418E+01 -0.74987111480E+02  0.15138646968E+03  0.12509000000E+03 0.  0.
         25    1    3    3    0    0  0.22296865803E+01  0.15559598672E+02  0.59175423114E+02  0.13927064089E+03  0.12509000000E+03 0.  0.
         25    1    4    4    0    0  0.38061791861E+02 -0.10672372530E+02 -0.94335649189E+02  0.16158379357E+03  0.12509000000E+03 0.  0.
<mgrwt>
<rscale>  2 0.43862216E+03</rscale>
<asrwt>0</asrwt>
<pdfrwt beam="1">  1       21 0.25153939E-01 0.43862216E+03</pdfrwt>
<pdfrwt beam="2">  1       21 0.41352076E-01 0.43862216E+03</pdfrwt>
<totfact> 0.78491467E+04</totfact>
</mgrwt>
</event>
<event>
 7    0  0.4737014E-002  0.4703775E+03  0.7546771E-02  0.1021814E+00
         21   -1    0    0  502  501  0.00000000000E+00  0.00000000000E+00  0.50740915612E+02  0.50740915612E+02  0.00000000000E+00 0.  1.
         21   -1    0    0  501  502 -0.00000000000E+00 -0.00000000000E+00 -0.10901213929E+04  0.10901213929E+04  0.00000000000E+00 0.  1.
      99926    2    1    2    0    0 -0.71054273576E-14  0.00000000000E+00 -0.10393804773E+04  0.11408623085E+04  0.47037754029E+03 0.  0.
      99925    2    3    3    0    0 -0.41437242833E+02  0.96416406944E+02 -0.81900739634E+03  0.86659059737E+03  0.26304558458E+03 0.  0.
         25    1    3    3    0    0  0.41437242833E+02 -0.96416406944E+02 -0.22037308091E+03  0.27427171110E+03  0.12509000000E+03 0.  0.
         25    1    4    4    0    0  0.11793298106E+02  0.27749947959E+02 -0.42970382057E+03  0.44855548487E+03  0.12509000000E+03 0.  0.
         25    1    4    4    0    0 -0.53230540939E+02  0.68666458985E+02 -0.38930357577E+03  0.41803511251E+03  0.12509000000E+03 0.  0.
<mgrwt>
<rscale>  2 0.47037754E+03</rscale>
<asrwt>0</asrwt>
<pdfrwt beam="1">  1       21 0.74618993E-02 0.47037754E+03</pdfrwt>
<pdfrwt beam="2">  1       21 0.16031197E+00 0.47037754E+03</pdfrwt>
<totfact> 0.30291967E+04</totfact>
</mgrwt>
</event>
<event>
 7    0  0.4737014E-002  0.4523725E+03  0.7546771E-02  0.1027017E+00
         21   -1    0    0  502  501  0.00000000000E+00  0.00000000000E+00  0.40527242782E+03  0.40527242782E+03  0.00000000000E+00 0. -1.
         21   -1    0    0  501  502 -0.00000000000E+00 -0.00000000000E+00 -0.12623659726E+03  0.12623659726E+03  0.00000000000E+00 0. -1.
      99926    2    1    2    0    0  0.00000000000E+00  0.17763568394E-14  0.27903583057E+03  0.53150902508E+03  0.45237246711E+03 0.  0.
      99925    2    3    3    0    0  0.12121281324E+02 -0.95715294110E+01  0.47232218994E+02  0.26765497058E+03  0.26300144701E+03 0.  0.
         25    1    4    4    0    0  0.70770007071E+01  0.78617148594E+01  0.62680487959E+02  0.14031479669E+03  0.12509000000E+03 0.  0.
         25    1    4    4    0    0  0.50442806170E+01 -0.17433244270E+02 -0.15448268966E+02  0.12734017389E+03  0.12509000000E+03 0.  0.
         25    1    3    3    0    0 -0.12121281324E+02  0.95715294110E+01  0.23180361157E+03  0.26385405450E+03  0.12509000000E+03 0.  0.
<mgrwt>
<rscale>  2 0.45237247E+03</rscale>
<asrwt>0</asrwt>
<pdfrwt beam="1">  1       21 0.59598886E-01 0.45237247E+03</pdfrwt>
<pdfrwt beam="2">  1       21 0.18564206E-01 0.45237247E+03</pdfrwt>
<totfact> 0.64434923E+04</totfact>
</mgrwt>
</event>
<event>
 7    0  0.4737014E-002  0.4460062E+03  0.7546771E-02  0.1028920E+00
         21   -1    0    0  502  501  0.00000000000E+00  0.00000000000E+00  0.60881962272E+03  0.60881962272E+03  0.00000000000E+00 0. -1.
         21   -1    0    0  501  502 -0.00000000000E+00 -0.00000000000E+00 -0.81683287138E+02  0.81683287138E+02  0.00000000000E+00 0. -1.
      99926    2    1    2    0    0  0.00000000000E+00  0.71054273576E-14  0.52713633558E+03  0.69050290986E+03  0.44600622443E+03 0.  0.
      99925    2    3    3    0    0  0.71343809431E+02  0.54705746046E+02  0.25168530334E+03  0.37490278778E+03  0.26291434075E+03 0.  0.
         25    1    4    4    0    0  0.66523034276E+02  0.10691258274E+02  0.15788206483E+03  0.21240026268E+03  0.12509000000E+03 0.  0.
         25    1    3    3    0    0 -0.71343809431E+02 -0.54705746046E+02  0.27545103225E+03  0.31560012208E+03  0.12509000000E+03 0.  0.
         25    1    4    4    0    0  0.48207751544E+01  0.44014487771E+02  0.93803238508E+02  0.16250252509E+03  0.12509000000E+03 0.  0.
<mgrwt>
<rscale>  2 0.44600622E+03</rscale>
<asrwt>0</asrwt>
<pdfrwt beam="1">  1       21 0.89532296E-01 0.44600622E+03</pdfrwt>
<pdfrwt beam="2">  1       21 0.12012248E-01 0.44600622E+03</pdfrwt>
<totfact> 0.57377176E+04</totfact>
</mgrwt>
</event>
<event>
 7    0  0.4737014E-002  0.4985951E+03  0.7546771E-02  0.1014146E+00
         21   -1    0    0  502  501  0.00000000000E+00  0.00000000000E+00  0.44903906415E+03  0.44903906415E+03  0.00000000000E+00 0.  1.
         21   -1    0    0  501  502 -0.00000000000E+00 -0.00000000000E+00 -0.13840502378E+03  0.13840502378E+03  0.00000000000E+00 0.  1.
      99926    2    1    2    0    0  0.00000000000E+00 -0.14210854715E-13  0.31063404037E+03  0.58744408793E+03  0.49859507560E+03 0.  0.
      99925    2    3    3    0    0  0.63966128222E+02  0.99413459015E+02  0.79076132968E+02  0.29892844889E+03  0.26292676044E+03 0.  0.
         25    1    3    3    0    0 -0.63966128222E+02 -0.99413459015E+02  0.23155790740E+03  0.28851563904E+03  0.12509000000E+03 0.  0.
         25    1    4    4    0    0  0.26282193367E+02  0.40684757390E+02 -0.23596163896E+01  0.13416064647E+03  0.12509000000E+03 0.  0.
         25    1    4    4    0    0  0.37683934856E+02  0.58728701624E+02  0.81435749357E+02  0.16476780242E+03  0.12509000000E+03 0.  0.
<mgrwt>
<rscale>  2 0.49859508E+03</rscale>
<asrwt>0</asrwt>
<pdfrwt beam="1">  1       21 0.66035156E-01 0.49859508E+03</pdfrwt>
<pdfrwt beam="2">  1       21 0.20353680E-01 0.49859508E+03</pdfrwt>
<totfact> 0.42712935E+04</totfact>
</mgrwt>
</event>
<event>
 7    0  0.4737014E-002  0.4543441E+03  0.7546771E-02  0.1026434E+00
         21   -1    0    0  502  501  0.00000000000E+00  0.00000000000E+00  0.16886484016E+03  0.16886484016E+03  0.00000000000E+00 0.  1.
         21   -1    0    0  501  502 -0.00000000000E+00 -0.00000000000E+00 -0.30561214927E+03  0.30561214927E+03  0.00000000000E+00 0.  1.
      99926    2    1    2    0    0  0.00000000000E+00  0.00000000000E+00 -0.13674730910E+03  0.47447698943E+03  0.45434412833E+03 0.  0.
      99925    2    3    3    0    0  0.84517174173E+02  0.62819990512E+02 -0.44728265750E+02  0.28684832324E+03  0.26304341628E+03 0.  0.
         25    1    4    4    0    0  0.18247383187E+02  0.20028572873E+02 -0.53455092862E+02  0.13870495945E+03  0.12509000000E+03 0.  0.
         25    1    4    4    0    0  0.66269790985E+02  0.42791417639E+02  0.87268271115E+01  0.14814336378E+03  0.12509000000E+03 0.  0.
         25    1    3    3    0    0 -0.84517174173E+02 -0.62819990512E+02 -0.92019043351E+02  0.18762866619E+03  0.12509000000E+03 0.  0.
<mgrwt>
<rscale>  2 0.45434413E+03</rscale>
<asrwt>0</asrwt>
<pdfrwt beam="1">  1       21 0.24833065E-01 0.45434413E+03</pdfrwt>
<pdfrwt beam="2">  1       21 0.44942962E-01 0.45434413E+03</pdfrwt>
<totfact> 0.67454801E+04</totfact>
</mgrwt>
</event>
<event>
 7    0  0.4737014E-002  0.4416495E+03  0.7546771E-02  0.1030242E+00
         21   -1    0    0  502  501  0.00000000000E+00  0.00000000000E+00  0.10917284655E+03  0.10917284655E+03  0.00000000000E+00 0.  1.
         21   -1    0    0  501  502 -0.00000000000E+00 -0.00000000000E+00 -0.44666395533E+03  0.44666395533E+03  0.00000000000E+00 0.  1.
      99926    2    1    2    0    0  0.00000000000E+00  0.14210854715E-13 -0.33749110877E+03  0.55583680188E+03  0.44164952374E+03 0.  0.
      99925    2    3    3    0    0  0.13028673417E+02 -0.95798158510E+02 -0.24789434435E+03  0.37411690258E+03  0.26299204804E+03 0.  0.
         25    1    3    3    0    0 -0.13028673417E+02  0.95798158510E+02 -0.89596764420E+02  0.18171989929E+03  0.12509000000E+03 0.  0.
         25    1    4    4    0    0  0.93996637603E+01 -0.90039868788E+02 -0.14806187590E+03  0.21392839654E+03  0.12509000000E+03 0.  0.
         25    1    4    4    0    0  0.36290096572E+01 -0.57582897226E+01 -0.99832468454E+02  0.16018850605E+03  0.12509000000E+03 0.  0.
<mgrwt>
<rscale>  2 0.44164952E+03</rscale>
<asrwt>0</asrwt>
<pdfrwt beam="1">  1       21 0.16054831E-01 0.44164952E+03</pdfrwt>
<pdfrwt beam="2">  1       21 0.65685874E-01 0.44164952E+03</pdfrwt>
<totfact> 0.68427799E+04</totfact>
</mgrwt>
</event>
<event>
 7    0  0.4737014E-002  0.4104769E+03  0.7546771E-02  0.1040211E+00
         21   -1    0    0  502  501  0.00000000000E+00  0.00000000000E+00  0.42504675604E+03  0.42504675604E+03  0.00000000000E+00 0.  1.
         21   -1    0    0  501  502 -0.00000000000E+00 -0.00000000000E+00 -0.99101631797E+02  0.99101631797E+02  0.00000000000E+00 0.  1.
      99926    2    1    2    0    0  0.00000000000E+00  0.00000000000E+00  0.32594512424E+03  0.52414838784E+03  0.41047692804E+03 0.  0.
      99925    2    3    3    0    0  0.22418224764E+02 -0.18418821003E+02  0.28613457994E+03  0.38970800214E+03  0.26297813469E+03 0.  0.
         25    1    4    4    0    0  0.98070080152E+01  0.23417560986E+02  0.10497516390E+03  0.16526298044E+03  0.12509000000E+03 0.  0.
         25    1    3    3    0    0 -0.22418224764E+02  0.18418821003E+02  0.39810544305E+02  0.13444038570E+03  0.12509000000E+03 0.  0.
         25    1    4    4    0    0  0.12611216748E+02 -0.41836381989E+02  0.18115941603E+03  0.22444502169E+03  0.12509000000E+03 0.  0.
<mgrwt>
<rscale>  2 0.41047693E+03</rscale>
<asrwt>0</asrwt>
<pdfrwt beam="1">  1       21 0.62506875E-01 0.41047693E+03</pdfrwt>
<pdfrwt beam="2">  1       21 0.14573769E-01 0.41047693E+03</pdfrwt>
<totfact> 0.91995600E+04</totfact>
</mgrwt>
</event>
<event>
 7    0  0.4737014E-002  0.4635087E+03  0.7546771E-02  0.1023768E+00
         21   -1    0    0  502  501  0.00000000000E+00  0.00000000000E+00  0.13239632718E+03  0.13239632718E+03  0.00000000000E+00 0. -1.
         21   -1    0    0  501  502 -0.00000000000E+00 -0.00000000000E+00 -0.40567654030E+03  0.40567654030E+03  0.00000000000E+00 0. -1.
      99926    2    1    2    0    0  0.00000000000E+00 -0.14210854715E-13 -0.27328021312E+03  0.53807286747E+03  0.46350872249E+03 0.  0.
      99925    2    3    3    0    0  0.45335980981E+01 -0.94334458333E+02 -0.25848022912E+03  0.38063687678E+03  0.26296931299E+03 0.  0.
         25    1    4    4    0    0  0.23414708744E+02 -0.61578536431E+02 -0.17741445209E+03  0.22685581466E+03  0.12509000000E+03 0.  0.
         25    1    3    3    0    0 -0.45335980981E+01  0.94334458333E+02 -0.14799983997E+02  0.15743599070E+03  0.12509000000E+03 0.  0.
         25    1    4    4    0    0 -0.18881110646E+02 -0.32755921903E+02 -0.81065777030E+02  0.15378106211E+03  0.12509000000E+03 0.  0.
<mgrwt>
<rscale>  2 0.46350872E+03</rscale>
<asrwt>0</asrwt>
<pdfrwt beam="1">  1       21 0.19470048E-01 0.46350872E+03</pdfrwt>
<pdfrwt beam="2">  1       21 0.59658315E-01 0.46350872E+03</pdfrwt>
<totfact> 0.58610092E+04</totfact>
</mgrwt>
</event>
<event>
 7    0  0.4737014E-002  0.4832169E+03  0.7546771E-02  0.1018255E+00
         21   -1    0    0  502  501  0.00000000000E+00  0.00000000000E+00  0.79353409639E+03  0.79353409639E+03  0.00000000000E+00 0. -1.
         21   -1    0    0  501  502 -0.00000000000E+00 -0.00000000000E+00 -0.73562859327E+02  0.73562859327E+02  0.00000000000E+00 0. -1.
      99926    2    1    2    0    0  0.00000000000E+00  0.00000000000E+00  0.71997123706E+03  0.86709695571E+03  0.48321687513E+03 0.  0.
      99925    2    3    3    0    0 -0.60199691732E+02 -0.11213900730E+03  0.53810375151E+03  0.61229811301E+03  0.26297180830E+03 0.  0.
         25    1    4    4    0    0 -0.40250659045E+02 -0.64460677318E+02  0.19777971071E+03  0.24604799642E+03  0.12509000000E+03 0.  0.
         25    1    3    3    0    0  0.60199691732E+02  0.11213900730E+03  0.18186748555E+03  0.25479884270E+03  0.12509000000E+03 0.  0.
         25    1    4    4    0    0 -0.19949032686E+02 -0.47678329983E+02  0.34032404080E+03  0.36625011659E+03  0.12509000000E+03 0.  0.
<mgrwt>
<rscale>  2 0.48321688E+03</rscale>
<asrwt>0</asrwt>
<pdfrwt beam="1">  1       21 0.11669619E+00 0.48321688E+03</pdfrwt>
<pdfrwt beam="2">  1       21 0.10818068E-01 0.48321688E+03</pdfrwt>
<totfact> 0.36024085E+04</totfact>
</mgrwt>
</event>
<event>
 7    0  0.4737014E-002  0.4606686E+03  0.7546771E-02  0.1024587E+00
         21   -1    0    0  502  501  0.00000000000E+00  0.00000000000E+00  0.22977311129E+03  0.22977311129E+03  0.00000000000E+00 0. -1.
         21   -1    0    0  501  502 -0.00000000000E+00 -0.00000000000E+00 -0.23089690006E+03  0.23089690006E+03  0.00000000000E+00 0. -1.
      99926    2    1    2    0    0  0.00000000000E+00 -0.71054273576E-14 -0.11237887675E+01  0.46067001136E+03  0.46066864063E+03 0.  0.
      99925    2    3    3    0    0  0.10030810564E+03  0.33047488716E+02 -0.53910767594E+02  0.28865889020E+03  0.26318003621E+03 0.  0.
         25    1    4    4    0    0  0.24470179330E+02  0.98673327322E+01 -0.58247924538E+02  0.14048659276E+03  0.12509000000E+03 0.  0.
         25    1    4    4    0    0  0.75837926313E+02  0.23180155984E+02  0.43371569439E+01  0.14817229744E+03  0.12509000000E+03 0.  0.
         25    1    3    3    0    0 -0.10030810564E+03 -0.33047488716E+02  0.52786978827E+02  0.17201112116E+03  0.12509000000E+03 0.  0.
<mgrwt>
<rscale>  2 0.46066864E+03</rscale>
<asrwt>0</asrwt>
<pdfrwt beam="1">  1       21 0.33790164E-01 0.46066864E+03</pdfrwt>
<pdfrwt beam="2">  1       21 0.33955426E-01 0.46066864E+03</pdfrwt>
<totfact> 0.65136064E+04</totfact>
</mgrwt>
</event>
<event>
 7    0  0.4737014E-002  0.4577306E+03  0.7546771E-02  0.1025441E+00
         21   -1    0    0  502  501  0.00000000000E+00  0.00000000000E+00  0.82211963516E+03  0.82211963516E+03  0.00000000000E+00 0.  1.
         21   -1    0    0  501  502 -0.00000000000E+00 -0.00000000000E+00 -0.63712530858E+02  0.63712530858E+02  0.00000000000E+00 0.  1.
      99926    2    1    2    0    0  0.00000000000E+00  0.00000000000E+00  0.75840710430E+03  0.88583216601E+03  0.45773058724E+03 0.  0.
      99925    2    3    3    0    0  0.73760860288E+02  0.34543286305E+02  0.63520396955E+03  0.69228521138E+03  0.26294643525E+03 0.  0.
         25    1    4    4    0    0  0.71700806200E+02 -0.12386178582E+01  0.30490916013E+03  0.33728273572E+03  0.12509000000E+03 0.  0.
         25    1    3    3    0    0 -0.73760860288E+02 -0.34543286305E+02  0.12320313474E+03  0.19354695464E+03  0.12509000000E+03 0.  0.
         25    1    4    4    0    0  0.20600540884E+01  0.35781904163E+02  0.33029480942E+03  0.35500247565E+03  0.12509000000E+03 0.  0.
<mgrwt>
<rscale>  2 0.45773059E+03</rscale>
<asrwt>0</asrwt>
<pdfrwt beam="1">  1       21 0.12089994E+00 0.45773059E+03</pdfrwt>
<pdfrwt beam="2">  1       21 0.93694903E-02 0.45773059E+03</pdfrwt>
<totfact> 0.42926623E+04</totfact>
</mgrwt>
</event>
<event>
 7    0  0.4737014E-002  0.4722752E+03  0.7546771E-02  0.1021280E+00
         21   -1    0    0  502  501  0.00000000000E+00  0.00000000000E+00  0.64195132216E+02  0.64195132216E+02  0.00000000000E+00 0. -1.
         21   -1    0    0  501  502 -0.00000000000E+00 -0.00000000000E+00 -0.86861672568E+03  0.86861672568E+03  0.00000000000E+00 0. -1.
      99926    2    1    2    0    0  0.14210854715E-13 -0.14210854715E-13 -0.80442159346E+03  0.93281185790E+03  0.47227519753E+03 0.  0.
      99925    2    3    3    0    0  0.70162849635E+02 -0.96528593692E+02 -0.59385153944E+03  0.66036397183E+03  0.26302153815E+03 0.  0.
         25    1    3    3    0    0 -0.70162849635E+02  0.96528593692E+02 -0.21057005402E+03  0.27244788606E+03  0.12509000000E+03 0.  0.
         25    1    4    4    0    0  0.71573250931E+02 -0.31178008746E+02 -0.31672918930E+03  0.34937041365E+03  0.12509000000E+03 0.  0.
         25    1    4    4    0    0 -0.14104012967E+01 -0.65350584946E+02 -0.27712235014E+03  0.31099355819E+03  0.12509000000E+03 0.  0.
<mgrwt>
<rscale>  2 0.47227520E+03</rscale>
<asrwt>0</asrwt>
<pdfrwt beam="1">  1       21 0.94404601E-02 0.47227520E+03</pdfrwt>
<pdfrwt beam="2">  1       21 0.12773776E+00 0.47227520E+03</pdfrwt>
<totfact> 0.36635555E+04</totfact>
</mgrwt>
</event>
<event>
 7    0  0.4737014E-002  0.4593936E+03  0.7546771E-02  0.1024957E+00
         21   -1    0    0  502  501  0.00000000000E+00  0.00000000000E+00  0.75084605805E+03  0.75084605805E+03  0.00000000000E+00 0. -1.
         21   -1    0    0  501  502 -0.00000000000E+00 -0.00000000000E+00 -0.70268227817E+02  0.70268227817E+02  0.00000000000E+00 0. -1.
      99926    2    1    2    0    0  0.00000000000E+00  0.00000000000E+00  0.68057783023E+03  0.82111428586E+03  0.45939360841E+03 0.  0.
      99925    2    3    3    0    0 -0.67822305355E+02 -0.92980536081E+02  0.38681484887E+03  0.48171858390E+03  0.26302437449E+03 0.  0.
         25    1    4    4    0    0 -0.59461331322E+02 -0.18887336506E+02  0.21557761304E+03  0.25693111284E+03  0.12509000000E+03 0.  0.
         25    1    3    3    0    0  0.67822305355E+02  0.92980536081E+02  0.29376298136E+03  0.33939570196E+03  0.12509000000E+03 0.  0.
         25    1    4    4    0    0 -0.83609740334E+01 -0.74093199574E+02  0.17123723583E+03  0.22478747106E+03  0.12509000000E+03 0.  0.
<mgrwt>
<rscale>  2 0.45939361E+03</rscale>
<asrwt>0</asrwt>
<pdfrwt beam="1">  1       21 0.11041853E+00 0.45939361E+03</pdfrwt>
<pdfrwt beam="2">  1       21 0.10333563E-01 0.45939361E+03</pdfrwt>
<totfact> 0.45182521E+04</totfact>
</mgrwt>
</event>
<event>
 7    0  0.4737014E-002  0.4448248E+03  0.7546771E-02  0.1029277E+00
         21   -1    0    0  502  501  0.00000000000E+00  0.00000000000E+00  0.72196775369E+02  0.72196775369E+02  0.00000000000E+00 0. -1.
         21   -1    0    0  501  502 -0.00000000000E+00 -0.00000000000E+00 -0.68517278917E+03  0.68517278917E+03  0.00000000000E+00 0. -1.
      99926    2    1    2    0    0 -0.35527136788E-14  0.00000000000E+00 -0.61297601380E+03  0.75736956454E+03  0.44482475628E+03 0.  0.
      99925    2    3    3    0    0  0.28888723461E+02  0.78937415357E+02 -0.28672643478E+03  0.39799236744E+03  0.26290721224E+03 0.  0.
         25    1    4    4    0    0  0.50866116819E+02  0.43872380155E+02 -0.12314892781E+03  0.18795029689E+03  0.12509000000E+03 0.  0.
         25    1    3    3    0    0 -0.28888723461E+02 -0.78937415357E+02 -0.32624957902E+03  0.35937719710E+03  0.12509000000E+03 0.  0.
         25    1    4    4    0    0 -0.21977393358E+02  0.35065035202E+02 -0.16357750697E+03  0.21004207055E+03  0.12509000000E+03 0.  0.
<mgrwt>
<rscale>  2 0.44482476E+03</rscale>
<asrwt>0</asrwt>
<pdfrwt beam="1">  1       21 0.10617173E-01 0.44482476E+03</pdfrwt>
<pdfrwt beam="2">  1       21 0.10076070E+00 0.44482476E+03</pdfrwt>
<totfact> 0.54088910E+04</totfact>
</mgrwt>
</event>
<event>
 7    0  0.4737014E-002  0.4541677E+03  0.7546771E-02  0.1026486E+00
         21   -1    0    0  502  501  0.00000000000E+00  0.00000000000E+00  0.23142798657E+03  0.23142798657E+03  0.00000000000E+00 0. -1.
         21   -1    0    0  501  502 -0.00000000000E+00 -0.00000000000E+00 -0.22282125513E+03  0.22282125513E+03  0.00000000000E+00 0. -1.
      99926    2    1    2    0    0  0.00000000000E+00  0.00000000000E+00  0.86067314356E+01  0.45424924170E+03  0.45416769784E+03 0.  0.
      99925    2    3    3    0    0  0.64164844045E+02  0.92295770296E+02  0.35243877240E+01  0.28599653075E+03  0.26295619001E+03 0.  0.
         25    1    4    4    0    0  0.14755101690E+02  0.50094282361E+02  0.38201978217E+02  0.14083341007E+03  0.12509000000E+03 0.  0.
         25    1    4    4    0    0  0.49409742355E+02  0.42201487935E+02 -0.34677590493E+02  0.14516312068E+03  0.12509000000E+03 0.  0.
         25    1    3    3    0    0 -0.64164844045E+02 -0.92295770296E+02  0.50823437116E+01  0.16825271095E+03  0.12509000000E+03 0.  0.
<mgrwt>
<rscale>  2 0.45416770E+03</rscale>
<asrwt>0</asrwt>
<pdfrwt beam="1">  1       21 0.34033528E-01 0.45416770E+03</pdfrwt>
<pdfrwt beam="2">  1       21 0.32767831E-01 0.45416770E+03</pdfrwt>
<totfact> 0.69058300E+04</totfact>
</mgrwt>
</event>
<event>
 7    0  0.4737014E-002  0.4557150E+03  0.7546771E-02  0.1026031E+00
         21   -1    0    0  502  501  0.00000000000E+00  0.00000000000E+00  0.96939590855E+03  0.96939590855E+03  0.00000000000E+00 0. -1.
         21   -1    0    0  501  502 -0.00000000000E+00 -0.00000000000E+00 -0.53558127822E+02  0.53558127822E+02  0.00000000000E+00 0. -1.
      99926    2    1    2    0    0  0.00000000000E+00 -0.44408920985E-15  0.91583778072E+03  0.10229540364E+04  0.45571495468E+03 0.  0.
      99925    2    3    3    0    0  0.32183529317E+02  0.29982167219E+01  0.82097428989E+03  0.86266879420E+03  0.26297128164E+03 0.  0.
         25    1    4    4    0    0 -0.21706095813E+02 -0.12934286920E+02  0.41253800020E+03  0.43182584462E+03  0.12509000000E+03 0.  0.
         25    1    3    3    0    0 -0.32183529317E+02 -0.29982167219E+01  0.94863490837E+02  0.16028524217E+03  0.12509000000E+03 0.  0.
         25    1    4    4    0    0  0.53889625129E+02  0.15932503642E+02  0.40843628968E+03  0.43084294958E+03  0.12509000000E+03 0.  0.
<mgrwt>
<rscale>  2 0.45571495E+03</rscale>
<asrwt>0</asrwt>
<pdfrwt beam="1">  1       21 0.14255821E+00 0.45571495E+03</pdfrwt>
<pdfrwt beam="2">  1       21 0.78761959E-02 0.45571495E+03</pdfrwt>
<totfact> 0.38072731E+04</totfact>
</mgrwt>
</event>
<event>
 7    0  0.4737014E-002  0.4495516E+03  0.7546771E-02  0.1027856E+00
         21   -1    0    0  502  501  0.00000000000E+00  0.00000000000E+00  0.32706169212E+02  0.32706169212E+02  0.00000000000E+00 0.  1.
         21   -1    0    0  501  502 -0.00000000000E+00 -0.00000000000E+00 -0.15447902241E+04  0.15447902241E+04  0.00000000000E+00 0.  1.
      99926    2    1    2    0    0  0.00000000000E+00  0.00000000000E+00 -0.15120840549E+04  0.15774963933E+04  0.44955164539E+03 0.  0.
      99925    2    3    3    0    0  0.71685180389E+02  0.33218271908E+02 -0.12143996541E+04  0.12450723730E+04  0.26305222975E+03 0.  0.
         25    1    4    4    0    0  0.12812240337E+02  0.49968190856E+02 -0.61435552470E+03  0.62907963918E+03  0.12509000000E+03 0.  0.
         25    1    3    3    0    0 -0.71685180389E+02 -0.33218271908E+02 -0.29768440081E+03  0.33242402028E+03  0.12509000000E+03 0.  0.
         25    1    4    4    0    0  0.58872940051E+02 -0.16749918948E+02 -0.60004412939E+03  0.61599273386E+03  0.12509000000E+03 0.  0.
<mgrwt>
<rscale>  2 0.44955165E+03</rscale>
<asrwt>0</asrwt>
<pdfrwt beam="1">  1       21 0.48097318E-02 0.44955165E+03</pdfrwt>
<pdfrwt beam="2">  1       21 0.22717498E+00 0.44955165E+03</pdfrwt>
<totfact> 0.22895648E+04</totfact>
</mgrwt>
</event>
<event>
 7    0  0.4737014E-002  0.4481182E+03  0.7546771E-02  0.1028285E+00
         21   -1    0    0  502  501  0.00000000000E+00  0.00000000000E+00  0.17279485677E+03  0.17279485677E+03  0.00000000000E+00 0.  1.
         21   -1    0    0  501  502 -0.00000000000E+00 -0.00000000000E+00 -0.29053221215E+03  0.29053221215E+03  0.00000000000E+00 0.  1.
      99926    2    1    2    0    0 -0.71054273576E-14  0.00000000000E+00 -0.11773735538E+03  0.46332706892E+03  0.44811816292E+03 0.  0.
      99925    2    3    3    0    0 -0.54284583653E+02  0.90422189982E+02 -0.58845695027E+02  0.28943421621E+03  0.26303300406E+03 0.  0.
         25    1    4    4    0    0 -0.11624254112E+01  0.14905167949E+02 -0.43169837929E+02  0.13317153702E+03  0.12509000000E+03 0.  0.
         25    1    4    4    0    0 -0.53122158242E+02  0.75517022033E+02 -0.15675857098E+02  0.15626267919E+03  0.12509000000E+03 0.  0.
         25    1    3    3    0    0  0.54284583653E+02 -0.90422189982E+02 -0.58891660353E+02  0.17389285271E+03  0.12509000000E+03 0.  0.
<mgrwt>
<rscale>  2 0.44811816E+03</rscale>
<asrwt>0</asrwt>
<pdfrwt beam="1">  1       21 0.25411008E-01 0.44811816E+03</pdfrwt>
<pdfrwt beam="2">  1       21 0.42725325E-01 0.44811816E+03</pdfrwt>
<totfact> 0.71774205E+04</totfact>
</mgrwt>
</event>
<event>
 7    0  0.4737014E-002  0.4445215E+03  0.7546771E-02  0.1029368E+00
         21   -1    0    0  502  501  0.00000000000E+00  0.00000000000E+00  0.11065825861E+03  0.11065825861E+03  0.00000000000E+00 0. -1.
         21   -1    0    0  501  502 -0.00000000000E+00 -0.00000000000E+00 -0.44641805615E+03  0.44641805615E+03  0.00000000000E+00 0. -1.
      99926    2    1    2    0    0  0.00000000000E+00  0.00000000000E+00 -0.33575979754E+03  0.55707631476E+03  0.44452151672E+03 0.  0.
      99925    2    3    3    0    0 -0.94949657926E+02  0.18792315223E+02 -0.25763432090E+03  0.38066858576E+03  0.26299152120E+03 0.  0.
         25    1    4    4    0    0 -0.74905563529E+02  0.15796349324E+02 -0.96003733883E+02  0.17528432080E+03  0.12509000000E+03 0.  0.
         25    1    3    3    0    0  0.94949657926E+02 -0.18792315223E+02 -0.78125476639E+02  0.17640772900E+03  0.12509000000E+03 0.  0.
         25    1    4    4    0    0 -0.20044094398E+02  0.29959658995E+01 -0.16163058702E+03  0.20538426495E+03  0.12509000000E+03 0.  0.
<mgrwt>
<rscale>  2 0.44452152E+03</rscale>
<asrwt>0</asrwt>
<pdfrwt beam="1">  1       21 0.16273274E-01 0.44452152E+03</pdfrwt>
<pdfrwt beam="2">  1       21 0.65649713E-01 0.44452152E+03</pdfrwt>
<totfact> 0.66765690E+04</totfact>
</mgrwt>
</event>
<event>
 7    0  0.4737014E-002  0.4463968E+03  0.7546771E-02  0.1028802E+00
         21   -1    0    0  502  501  0.00000000000E+00  0.00000000000E+00  0.23921948221E+03  0.23921948221E+03  0.00000000000E+00 0.  1.
         21   -1    0    0  501  502 -0.00000000000E+00 -0.00000000000E+00 -0.20825032976E+03  0.20825032976E+03  0.00000000000E+00 0.  1.
      99926    2    1    2    0    0  0.00000000000E+00 -0.17763568394E-14  0.30969152458E+02  0.44746981197E+03  0.44639684611E+03 0.  0.
      99925    2    3    3    0    0  0.10440440134E+03 -0.48535710235E+01  0.16692253154E+02  0.28383859819E+03  0.26336644117E+03 0.  0.
         25    1    3    3    0    0 -0.10440440134E+03  0.48535710235E+01  0.14276899304E+02  0.16363121378E+03  0.12509000000E+03 0.  0.
         25    1    4    4    0    0  0.29940897674E+02 -0.36627157113E+02 -0.13785636268E+01  0.13374383922E+03  0.12509000000E+03 0.  0.
         25    1    4    4    0    0  0.74463503662E+02  0.31773586090E+02  0.18070816781E+02  0.15009475897E+03  0.12509000000E+03 0.  0.
<mgrwt>
<rscale>  2 0.44639685E+03</rscale>
<asrwt>0</asrwt>
<pdfrwt beam="1">  1       21 0.35179336E-01 0.44639685E+03</pdfrwt>
<pdfrwt beam="2">  1       21 0.30625048E-01 0.44639685E+03</pdfrwt>
<totfact> 0.74055326E+04</totfact>
</mgrwt>
</event>
<event>
 7    0  0.4737014E-002  0.4562575E+03  0.7546771E-02  0.1025872E+00
         21   -1    0    0  502  501  0.00000000000E+00  0.00000000000E+00  0.27466951308E+03  0.27466951308E+03  0.00000000000E+00 0.  1.
         21   -1    0    0  501  502 -0.00000000000E+00 -0.00000000000E+00 -0.18947398848E+03  0.18947398848E+03  0.00000000000E+00 0.  1.
      99926    2    1    2    0    0  0.00000000000E+00  0.88817841970E-15  0.85195524595E+02  0.46414350156E+03  0.45625750693E+03 0.  0.
      99925    2    3    3    0    0 -0.11300629993E+03 -0.73073446398E+01  0.69799355977E+02  0.29470805303E+03  0.26297730951E+03 0.  0.
         25    1    4    4    0    0 -0.54709683264E+02  0.46858270643E+01  0.75456781570E+02  0.15606517998E+03  0.12509000000E+03 0.  0.
         25    1    4    4    0    0 -0.58296616666E+02 -0.11993171704E+02 -0.56574255922E+01  0.13864287305E+03  0.12509000000E+03 0.  0.
         25    1    3    3    0    0  0.11300629993E+03  0.73073446398E+01  0.15396168618E+02  0.16943544853E+03  0.12509000000E+03 0.  0.
<mgrwt>
<rscale>  2 0.45625751E+03</rscale>
<asrwt>0</asrwt>
<pdfrwt beam="1">  1       21 0.40392576E-01 0.45625751E+03</pdfrwt>
<pdfrwt beam="2">  1       21 0.27863822E-01 0.45625751E+03</pdfrwt>
<totfact> 0.67199520E+04</totfact>
</mgrwt>
</event>
<event>
 7    0  0.4737014E-002  0.4475097E+03  0.7546771E-02  0.1028467E+00
         21   -1    0    0  502  501  0.00000000000E+00  0.00000000000E+00  0.58205325519E+03  0.58205325519E+03  0.00000000000E+00 0.  1.
         21   -1    0    0  501  502 -0.00000000000E+00 -0.00000000000E+00 -0.86016596565E+02  0.86016596565E+02  0.00000000000E+00 0.  1.
      99926    2    1    2    0    0 -0.71054273576E-14 -0.35527136788E-14  0.49603665863E+03  0.66806985175E+03  0.44750973188E+03 0.  0.
      99925    2    3    3    0    0  0.30684600577E+02  0.26547038494E+02  0.16809244120E+03  0.31474109860E+03  0.26298403068E+03 0.  0.
         25    1    4    4    0    0 -0.16491256563E+02  0.52956352709E+00  0.10714114286E+03  0.16552635613E+03  0.12509000000E+03 0.  0.
         25    1    3    3    0    0 -0.30684600577E+02 -0.26547038494E+02  0.32794421742E+03  0.35332875315E+03  0.12509000000E+03 0.  0.
         25    1    4    4    0    0  0.47175857140E+02  0.26017474967E+02  0.60951298345E+02  0.14921474247E+03  0.12509000000E+03 0.  0.
<mgrwt>
<rscale>  2 0.44750973E+03</rscale>
<asrwt>0</asrwt>
<pdfrwt beam="1">  1       21 0.85596065E-01 0.44750973E+03</pdfrwt>
<pdfrwt beam="2">  1       21 0.12649500E-01 0.44750973E+03</pdfrwt>
<totfact> 0.58020373E+04</totfact>
</mgrwt>
</event>
<event>
 7    0  0.4737014E-002  0.4494295E+03  0.7546771E-02  0.1027892E+00
         21   -1    0    0  502  501  0.00000000000E+00  0.00000000000E+00  0.10902236460E+04  0.10902236460E+04  0.00000000000E+00 0. -1.
         21   -1    0    0  501  502 -0.00000000000E+00 -0.00000000000E+00 -0.46317762204E+02  0.46317762204E+02  0.00000000000E+00 0. -1.
      99926    2    1    2    0    0  0.00000000000E+00  0.00000000000E+00  0.10439058838E+04  0.11365414082E+04  0.44942950319E+03 0.  0.
      99925    2    3    3    0    0 -0.58932052835E+02  0.85488775986E+02  0.58607122973E+03  0.65070049161E+03  0.26296449531E+03 0.  0.
         25    1    4    4    0    0  0.21453515057E+01  0.39640983803E+02  0.21706935330E+03  0.25365847586E+03  0.12509000000E+03 0.  0.
         25    1    4    4    0    0 -0.61077404341E+02  0.45847792183E+02  0.36900187643E+03  0.39704201575E+03  0.12509000000E+03 0.  0.
         25    1    3    3    0    0  0.58932052835E+02 -0.85488775986E+02  0.45783465406E+03  0.48584091659E+03  0.12509000000E+03 0.  0.
<mgrwt>
<rscale>  2 0.44942950E+03</rscale>
<asrwt>0</asrwt>
<pdfrwt beam="1">  1       21 0.16032699E+00 0.44942950E+03</pdfrwt>
<pdfrwt beam="2">  1       21 0.68114363E-02 0.44942950E+03</pdfrwt>
<totfact> 0.35762703E+04</totfact>
</mgrwt>
</event>
<event>
 7    0  0.4737014E-002  0.4545149E+03  0.7546771E-02  0.1026384E+00
         21   -1    0    0  502  501  0.00000000000E+00  0.00000000000E+00  0.20308927353E+03  0.20308927353E+03  0.00000000000E+00 0. -1.
         21   -1    0    0  501  502 -0.00000000000E+00 -0.00000000000E+00 -0.25430174996E+03  0.25430174996E+03  0.00000000000E+00 0. -1.
      99926    2    1    2    0    0  0.00000000000E+00 -0.35527136788E-14 -0.51212476428E+02  0.45739102349E+03  0.45451493994E+03 0.  0.
      99925    2    3    3    0    0  0.90995603264E+02  0.21551741427E+02 -0.95658111240E+02  0.29500999034E+03  0.26293676575E+03 0.  0.
         25    1    4    4    0    0  0.69739446756E+02 -0.14104960611E+02 -0.27071855099E+02  0.14643405952E+03  0.12509000000E+03 0.  0.
         25    1    3    3    0    0 -0.90995603264E+02 -0.21551741427E+02  0.44445634812E+02  0.16238103315E+03  0.12509000000E+03 0.  0.
         25    1    4    4    0    0  0.21256156508E+02  0.35656702038E+02 -0.68586256142E+02  0.14857593083E+03  0.12509000000E+03 0.  0.
<mgrwt>
<rscale>  2 0.45451494E+03</rscale>
<asrwt>0</asrwt>
<pdfrwt beam="1">  1       21 0.29866070E-01 0.45451494E+03</pdfrwt>
<pdfrwt beam="2">  1       21 0.37397316E-01 0.45451494E+03</pdfrwt>
<totfact> 0.68636153E+04</totfact>
</mgrwt>
</event>
<event>
 7    0  0.4737014E-002  0.4464038E+03  0.7546771E-02  0.1028800E+00
         21   -1    0    0  502  501  0.00000000000E+00  0.00000000000E+00  0.61791853959E+02  0.61791853959E+02  0.00000000000E+00 0. -1.
         21   -1    0    0  501  502 -0.00000000000E+00 -0.00000000000E+00 -0.80624053953E+03  0.80624053953E+03  0.00000000000E+00 0. -1.
      99926    2    1    2    0    0 -0.71054273576E-14 -0.14210854715E-13 -0.74444868557E+03  0.86803239349E+03  0.44640384261E+03 0.  0.
      99925    2    3    3    0    0 -0.47794786154E+02 -0.93051889806E+02 -0.46058115336E+03  0.54066214480E+03  0.26313031033E+03 0.  0.
         25    1    4    4    0    0 -0.21176010438E+02 -0.52948924441E+02 -0.30973135942E+03  0.33887023346E+03  0.12509000000E+03 0.  0.
         25    1    3    3    0    0  0.47794786154E+02  0.93051889806E+02 -0.28386753221E+03  0.32737024868E+03  0.12509000000E+03 0.  0.
         25    1    4    4    0    0 -0.26618775717E+02 -0.40102965364E+02 -0.15084979394E+03  0.20179191134E+03  0.12509000000E+03 0.  0.
<mgrwt>
<rscale>  2 0.44640384E+03</rscale>
<asrwt>0</asrwt>
<pdfrwt beam="1">  1       21 0.90870382E-02 0.44640384E+03</pdfrwt>
<pdfrwt beam="2">  1       21 0.11856477E+00 0.44640384E+03</pdfrwt>
<totfact> 0.47781917E+04</totfact>
</mgrwt>
</event>
<event>
 7    0  0.4737014E-002  0.4589486E+03  0.7546771E-02  0.1025087E+00
         21   -1    0    0  502  501  0.00000000000E+00  0.00000000000E+00  0.49893770108E+02  0.49893770108E+02  0.00000000000E+00 0. -1.
         21   -1    0    0  501  502 -0.00000000000E+00 -0.00000000000E+00 -0.10554115476E+04  0.10554115476E+04  0.00000000000E+00 0. -1.
      99926    2    1    2    0    0 -0.71054273576E-14  0.00000000000E+00 -0.10055177775E+04  0.11053053177E+04  0.45894862947E+03 0.  0.
      99925    2    3    3    0    0 -0.56967532837E+02 -0.75651494356E+02 -0.46616712231E+03  0.54359802227E+03  0.26309423312E+03 0.  0.
         25    1    4    4    0    0 -0.55660753981E+02 -0.22971355934E+02 -0.28705659590E+03  0.31886486178E+03  0.12509000000E+03 0.  0.
         25    1    3    3    0    0  0.56967532837E+02  0.75651494356E+02 -0.53935065514E+03  0.56170729540E+03  0.12509000000E+03 0.  0.
         25    1    4    4    0    0 -0.13067788562E+01 -0.52680138423E+02 -0.17911052640E+03  0.22473316049E+03  0.12509000000E+03 0.  0.
<mgrwt>
<rscale>  2 0.45894863E+03</rscale>
<asrwt>0</asrwt>
<pdfrwt beam="1">  1       21 0.73373197E-02 0.45894863E+03</pdfrwt>
<pdfrwt beam="2">  1       21 0.15520757E+00 0.45894863E+03</pdfrwt>
<totfact> 0.34243436E+04</totfact>
</mgrwt>
</event>
<event>
 7    0  0.4737014E-002  0.4575838E+03  0.7546771E-02  0.1025484E+00
         21   -1    0    0  502  501  0.00000000000E+00  0.00000000000E+00  0.13073493492E+04  0.13073493492E+04  0.00000000000E+00 0.  1.
         21   -1    0    0  501  502 -0.00000000000E+00 -0.00000000000E+00 -0.40039586006E+02  0.40039586006E+02  0.00000000000E+00 0.  1.
      99926    2    1    2    0    0  0.00000000000E+00  0.00000000000E+00  0.12673097632E+04  0.13473889352E+04  0.45758377029E+03 0.  0.
      99925    2    3    3    0    0  0.70993032404E+02 -0.52587640060E+02  0.57617072843E+03  0.63948629782E+03  0.26299153270E+03 0.  0.
         25    1    4    4    0    0  0.55591299762E+02  0.43917227652E+01  0.32652069128E+03  0.35408042840E+03  0.12509000000E+03 0.  0.
         25    1    4    4    0    0  0.15401732642E+02 -0.56979362825E+02  0.24965003715E+03  0.28540586943E+03  0.12509000000E+03 0.  0.
         25    1    3    3    0    0 -0.70993032404E+02  0.52587640060E+02  0.69113903478E+03  0.70790263740E+03  0.12509000000E+03 0.  0.
<mgrwt>
<rscale>  2 0.45758377E+03</rscale>
<asrwt>0</asrwt>
<pdfrwt beam="1">  1       21 0.19225723E+00 0.45758377E+03</pdfrwt>
<pdfrwt beam="2">  1       21 0.58881753E-02 0.45758377E+03</pdfrwt>
<totfact> 0.27217540E+04</totfact>
</mgrwt>
</event>
<event>
 7    0  0.4737014E-002  0.4587993E+03  0.7546771E-02  0.1025130E+00
         21   -1    0    0  502  501  0.00000000000E+00  0.00000000000E+00  0.47758516716E+03  0.47758516716E+03  0.00000000000E+00 0. -1.
         21   -1    0    0  501  502 -0.00000000000E+00 -0.00000000000E+00 -0.11018807713E+03  0.11018807713E+03  0.00000000000E+00 0. -1.
      99926    2    1    2    0    0  0.00000000000E+00  0.00000000000E+00  0.36739709003E+03  0.58777324429E+03  0.45879926432E+03 0.  0.
      99925    2    3    3    0    0 -0.87607250586E+02 -0.76995297608E+02  0.23396162572E+03  0.37084966917E+03  0.26303636365E+03 0.  0.
         25    1    3    3    0    0  0.87607250586E+02  0.76995297608E+02  0.13343546431E+03  0.21692357512E+03  0.12509000000E+03 0.  0.
         25    1    4    4    0    0 -0.84846077017E+02 -0.30156261274E+02  0.12416238353E+03  0.19791933322E+03  0.12509000000E+03 0.  0.
         25    1    4    4    0    0 -0.27611735687E+01 -0.46839036334E+02  0.10979924219E+03  0.17293033594E+03  0.12509000000E+03 0.  0.
<mgrwt>
<rscale>  2 0.45879926E+03</rscale>
<asrwt>0</asrwt>
<pdfrwt beam="1">  1       21 0.70233112E-01 0.45879926E+03</pdfrwt>
<pdfrwt beam="2">  1       21 0.16204129E-01 0.45879926E+03</pdfrwt>
<totfact> 0.57685338E+04</totfact>
</mgrwt>
</event>
<event>
 7    0  0.4737014E-002  0.4555518E+03  0.7546771E-02  0.1026079E+00
         21   -1    0    0  502  501  0.00000000000E+00  0.00000000000E+00  0.31456506922E+03  0.31456506922E+03  0.00000000000E+00 0. -1.
         21   -1    0    0  501  502 -0.00000000000E+00 -0.00000000000E+00 -0.16493206674E+03  0.16493206674E+03  0.00000000000E+00 0. -1.
      99926    2    1    2    0    0  0.14210854715E-13 -0.71054273576E-14  0.14963300249E+03  0.47949713596E+03  0.45555182796E+03 0.  0.
      99925    2    3    3    0    0  0.10720108426E+03 -0.36085733994E+02  0.83527970688E+02  0.29835731153E+03  0.26314617761E+03 0.  0.
         25    1    4    4    0    0  0.46900202423E+02 -0.17060322561E+02  0.82987433052E+02  0.15819325440E+03  0.12509000000E+03 0.  0.
         25    1    4    4    0    0  0.60300881836E+02 -0.19025411433E+02  0.54053763627E+00  0.14016405713E+03  0.12509000000E+03 0.  0.
         25    1    3    3    0    0 -0.10720108426E+03  0.36085733994E+02  0.66105031798E+02  0.18113982443E+03  0.12509000000E+03 0.  0.
<mgrwt>
<rscale>  2 0.45555183E+03</rscale>
<asrwt>0</asrwt>
<pdfrwt beam="1">  1       21 0.46259569E-01 0.45555183E+03</pdfrwt>
<pdfrwt beam="2">  1       21 0.24254716E-01 0.45555183E+03</pdfrwt>
<totfact> 0.66445212E+04</totfact>
</mgrwt>
</event>
<event>
 7    0  0.4737014E-002  0.4646725E+03  0.7546771E-02  0.1023435E+00
         21   -1    0    0  502  501  0.00000000000E+00  0.00000000000E+00  0.26069032214E+04  0.26069032214E+04  0.00000000000E+00 0.  1.
         21   -1    0    0  501  502 -0.00000000000E+00 -0.00000000000E+00 -0.20706613218E+02  0.20706613218E+02  0.00000000000E+00 0.  1.
      99926    2    1    2    0    0  0.00000000000E+00  0.88817841970E-15  0.25861966082E+04  0.26276098346E+04  0.46467251566E+03 0.  0.
      99925    2    3    3    0    0  0.11267103505E+02 -0.31090459929E+01  0.23005477768E+04  0.23155531462E+04  0.26292524787E+03 0.  0.
         25    1    4    4    0    0 -0.17959955779E+02 -0.28109466855E+02  0.13142403473E+04  0.13206013406E+04  0.12509000000E+03 0.  0.
         25    1    3    3    0    0 -0.11267103505E+02  0.31090459929E+01  0.28564883142E+03  0.31205668841E+03  0.12509000000E+03 0.  0.
         25    1    4    4    0    0  0.29227059284E+02  0.25000420862E+02  0.98630742948E+03  0.99495180566E+03  0.12509000000E+03 0.  0.
<mgrwt>
<rscale>  2 0.46467252E+03</rscale>
<asrwt>0</asrwt>
<pdfrwt beam="1">  1       21 0.38336790E+00 0.46467252E+03</pdfrwt>
<pdfrwt beam="2">  1       21 0.30450920E-02 0.46467252E+03</pdfrwt>
<totfact> 0.54878100E+03</totfact>
</mgrwt>
</event>
<event>
 7    0  0.4737014E-002  0.4448794E+03  0.7546771E-02  0.1029260E+00
         21   -1    0    0  502  501  0.00000000000E+00  0.00000000000E+00  0.76452663769E+02  0.76452663769E+02  0.00000000000E+00 0. -1.
         21   -1    0    0  501  502 -0.00000000000E+00 -0.00000000000E+00 -0.64719033776E+03  0.64719033776E+03  0.00000000000E+00 0. -1.
      99926    2    1    2    0    0  0.00000000000E+00  0.00000000000E+00 -0.57073767400E+03  0.72364300153E+03  0.44487942316E+03 0.  0.
      99925    2    3    3    0    0  0.95374928477E+02  0.39080585022E+02 -0.34941697588E+03  0.44931832415E+03  0.26300392445E+03 0.  0.
         25    1    4    4    0    0  0.61708793308E+02  0.47477409294E+02 -0.14201368720E+03  0.20463986664E+03  0.12509000000E+03 0.  0.
         25    1    3    3    0    0 -0.95374928477E+02 -0.39080585022E+02 -0.22132069812E+03  0.27432467739E+03  0.12509000000E+03 0.  0.
         25    1    4    4    0    0  0.33666135169E+02 -0.83968242720E+01 -0.20740328868E+03  0.24467845751E+03  0.12509000000E+03 0.  0.
<mgrwt>
<rscale>  2 0.44487942E+03</rscale>
<asrwt>0</asrwt>
<pdfrwt beam="1">  1       21 0.11243039E-01 0.44487942E+03</pdfrwt>
<pdfrwt beam="2">  1       21 0.95175047E-01 0.44487942E+03</pdfrwt>
<totfact> 0.55961068E+04</totfact>
</mgrwt>
</event>
<event>
 7    0  0.4737014E-002  0.4582761E+03  0.7546771E-02  0.1025282E+00
         21   -1    0    0  502  501  0.00000000000E+00  0.00000000000E+00  0.25727244571E+03  0.25727244571E+03  0.00000000000E+00 0.  1.
         21   -1    0    0  501  502 -0.00000000000E+00 -0.00000000000E+00 -0.20408034234E+03  0.20408034234E+03  0.00000000000E+00 0.  1.
      99926    2    1    2    0    0 -0.35527136788E-14  0.00000000000E+00  0.53192103367E+02  0.46135278805E+03  0.45827611238E+03 0.  0.
      99925    2    3    3    0    0 -0.19630016668E+02  0.10050678178E+03  0.88350648356E+02  0.29591221828E+03  0.26319432578E+03 0.  0.
         25    1    4    4    0    0  0.22302693479E+02  0.51418809430E+02  0.17084822670E+02  0.13813291919E+03  0.12509000000E+03 0.  0.
         25    1    4    4    0    0 -0.41932710147E+02  0.49087972351E+02  0.71265825686E+02  0.15777929909E+03  0.12509000000E+03 0.  0.
         25    1    3    3    0    0  0.19630016668E+02 -0.10050678178E+03 -0.35158544989E+02  0.16544056977E+03  0.12509000000E+03 0.  0.
<mgrwt>
<rscale>  2 0.45827611E+03</rscale>
<asrwt>0</asrwt>
<pdfrwt beam="1">  1       21 0.37834183E-01 0.45827611E+03</pdfrwt>
<pdfrwt beam="2">  1       21 0.30011815E-01 0.45827611E+03</pdfrwt>
<totfact> 0.66331955E+04</totfact>
</mgrwt>
</event>
<event>
 7    0  0.4737014E-002  0.4514558E+03  0.7546771E-02  0.1027289E+00
         21   -1    0    0  502  501  0.00000000000E+00  0.00000000000E+00  0.91824712621E+02  0.91824712621E+02  0.00000000000E+00 0.  1.
         21   -1    0    0  501  502 -0.00000000000E+00 -0.00000000000E+00 -0.55489523312E+03  0.55489523312E+03  0.00000000000E+00 0.  1.
      99926    2    1    2    0    0  0.17763568394E-14  0.00000000000E+00 -0.46307052050E+03  0.64671994574E+03  0.45145584642E+03 0.  0.
      99925    2    3    3    0    0 -0.11540703160E+02 -0.41566287129E+02 -0.43710064715E+03  0.51187601196E+03  0.26286713722E+03 0.  0.
         25    1    4    4    0    0 -0.10905869807E+02 -0.53464012039E+02 -0.18176210228E+03  0.22729344141E+03  0.12509000000E+03 0.  0.
         25    1    3    3    0    0  0.11540703160E+02  0.41566287129E+02 -0.25969873353E+02  0.13484393378E+03  0.12509000000E+03 0.  0.
         25    1    4    4    0    0 -0.63483335379E+00  0.11897724910E+02 -0.25533854486E+03  0.28458257055E+03  0.12509000000E+03 0.  0.
<mgrwt>
<rscale>  2 0.45145585E+03</rscale>
<asrwt>0</asrwt>
<pdfrwt beam="1">  1       21 0.13503634E-01 0.45145585E+03</pdfrwt>
<pdfrwt beam="2">  1       21 0.81602239E-01 0.45145585E+03</pdfrwt>
<totfact> 0.57481351E+04</totfact>
</mgrwt>
</event>
<event>
 7    0  0.4737014E-002  0.4807498E+03  0.7546771E-02  0.1018929E+00
         21   -1    0    0  502  501  0.00000000000E+00  0.00000000000E+00  0.71004959035E+03  0.71004959035E+03  0.00000000000E+00 0.  1.
         21   -1    0    0  501  502 -0.00000000000E+00 -0.00000000000E+00 -0.81374745230E+02  0.81374745230E+02  0.00000000000E+00 0.  1.
      99926    2    1    2    0    0  0.00000000000E+00  0.00000000000E+00  0.62867484512E+03  0.79142433558E+03  0.48074984978E+03 0.  0.
      99925    2    3    3    0    0 -0.76996231798E+02  0.80055720411E+02  0.25782134354E+03  0.38458632627E+03  0.26286395548E+03 0.  0.
         25    1    4    4    0    0 -0.56270471563E+02  0.70646394196E+02  0.17268578614E+03  0.23157108588E+03  0.12509000000E+03 0.  0.
         25    1    4    4    0    0 -0.20725760235E+02  0.94093262153E+01  0.85135557395E+02  0.15301524039E+03  0.12509000000E+03 0.  0.
         25    1    3    3    0    0  0.76996231798E+02 -0.80055720411E+02  0.37085350158E+03  0.40683800931E+03  0.12509000000E+03 0.  0.
<mgrwt>
<rscale>  2 0.48074985E+03</rscale>
<asrwt>0</asrwt>
<pdfrwt beam="1">  1       21 0.10441905E+00 0.48074985E+03</pdfrwt>
<pdfrwt beam="2">  1       21 0.11966875E-01 0.48074985E+03</pdfrwt>
<totfact> 0.39560829E+04</totfact>
</mgrwt>
</event>
<event>
 7    0  0.4737014E-002  0.4523607E+03  0.7546771E-02  0.1027020E+00
         21   -1    0    0  502  501  0.00000000000E+00  0.00000000000E+00  0.18679397716E+03  0.18679397716E+03  0.00000000000E+00 0. -1.
         21   -1    0    0  501  502 -0.00000000000E+00 -0.00000000000E+00 -0.27387150816E+03  0.27387150816E+03  0.00000000000E+00 0. -1.
      99926    2    1    2    0    0 -0.71054273576E-14  0.00000000000E+00 -0.87077531003E+02  0.46066548531E+03  0.45236068900E+03 0.  0.
      99925    2    3    3    0    0 -0.35599544264E+02  0.53414333190E+02  0.36813800312E+02  0.27327021158E+03  0.26306070422E+03 0.  0.
         25    1    3    3    0    0  0.35599544264E+02 -0.53414333190E+02 -0.12389133132E+03  0.18739527373E+03  0.12509000000E+03 0.  0.
         25    1    4    4    0    0  0.12632648585E+02  0.12238915685E+02  0.41447485646E+02  0.13294651945E+03  0.12509000000E+03 0.  0.
         25    1    4    4    0    0 -0.48232192849E+02  0.41175417505E+02 -0.46336853339E+01  0.14032369213E+03  0.12509000000E+03 0.  0.
<mgrwt>
<rscale>  2 0.45236069E+03</rscale>
<asrwt>0</asrwt>
<pdfrwt beam="1">  1       21 0.27469703E-01 0.45236069E+03</pdfrwt>
<pdfrwt beam="2">  1       21 0.40275221E-01 0.45236069E+03</pdfrwt>
<totfact> 0.69581606E+04</totfact>
</mgrwt>
</event>
<event>
 7    0  0.4737014E-002  0.4518473E+03  0.7546771E-02  0.1027173E+00
         21   -1    0    0  502  501  0.00000000000E+00  0.00000000000E+00  0.74440096715E+02  0.74440096715E+02  0.00000000000E+00 0.  1.
         21   -1    0    0  501  502 -0.00000000000E+00 -0.00000000000E+00 -0.68567216633E+03  0.68567216633E+03  0.00000000000E+00 0.  1.
      99926    2    1    2    0    0  0.35527136788E-14  0.00000000000E+00 -0.61123206962E+03  0.76011226305E+03  0.45184732986E+03 0.  0.
      99925    2    3    3    0    0 -0.22508322263E+02 -0.51272090102E+02 -0.54538136518E+03  0.60806202408E+03  0.26298885879E+03 0.  0.
         25    1    3    3    0    0  0.22508322263E+02  0.51272090102E+02 -0.65850704433E+02  0.15205023896E+03  0.12509000000E+03 0.  0.
         25    1    4    4    0    0 -0.85363807453E+01 -0.62734558652E+02 -0.32616680374E+03  0.35502223397E+03  0.12509000000E+03 0.  0.
         25    1    4    4    0    0 -0.13971941517E+02  0.11462468550E+02 -0.21921456144E+03  0.25303979012E+03  0.12509000000E+03 0.  0.
<mgrwt>
<rscale>  2 0.45184733E+03</rscale>
<asrwt>0</asrwt>
<pdfrwt beam="1">  1       21 0.10947073E-01 0.45184733E+03</pdfrwt>
<pdfrwt beam="2">  1       21 0.10083415E+00 0.45184733E+03</pdfrwt>
<totfact> 0.51005036E+04</totfact>
</mgrwt>
</event>
<event>
 7    0  0.4737014E-002  0.4563149E+03  0.7546771E-02  0.1025855E+00
         21   -1    0    0  502  501  0.00000000000E+00  0.00000000000E+00  0.16332069326E+03  0.16332069326E+03  0.00000000000E+00 0. -1.
         21   -1    0    0  501  502 -0.00000000000E+00 -0.00000000000E+00 -0.31873380533E+03  0.31873380533E+03  0.00000000000E+00 0. -1.
      99926    2    1    2    0    0  0.00000000000E+00  0.71054273576E-14 -0.15541311207E+03  0.48205449860E+03  0.45631491781E+03 0.  0.
      99925    2    3    3    0    0 -0.25015430627E+02  0.47606543663E+02  0.91504756001E+01  0.26846414943E+03  0.26286329823E+03 0.  0.
         25    1    3    3    0    0  0.25015430627E+02 -0.47606543663E+02 -0.16456358767E+03  0.21359034917E+03  0.12509000000E+03 0.  0.
         25    1    4    4    0    0 -0.18410183628E+02  0.61937916242E+02  0.18660789304E+02  0.14202455241E+03  0.12509000000E+03 0.  0.
         25    1    4    4    0    0 -0.66052469987E+01 -0.14331372579E+02 -0.95103137035E+01  0.12643959702E+03  0.12509000000E+03 0.  0.
<mgrwt>
<rscale>  2 0.45631492E+03</rscale>
<asrwt>0</asrwt>
<pdfrwt beam="1">  1       21 0.24017749E-01 0.45631492E+03</pdfrwt>
<pdfrwt beam="2">  1       21 0.46872619E-01 0.45631492E+03</pdfrwt>
<totfact> 0.65860740E+04</totfact>
</mgrwt>
</event>
<event>
 7    0  0.4737014E-002  0.4676074E+03  0.7546771E-02  0.1022598E+00
         21   -1    0    0  502  501  0.00000000000E+00  0.00000000000E+00  0.23699297827E+03  0.23699297827E+03  0.00000000000E+00 0.  1.
         21   -1    0    0  501  502 -0.00000000000E+00 -0.00000000000E+00 -0.23065735510E+03  0.23065735510E+03  0.00000000000E+00 0.  1.
      99926    2    1    2    0    0 -0.14210854715E-13  0.00000000000E+00  0.63356231731E+01  0.46765033337E+03  0.46760741459E+03 0.  0.
      99925    2    3    3    0    0  0.80107741289E+02  0.94261044325E+02  0.19063539166E+02  0.29126466888E+03  0.26300055917E+03 0.  0.
         25    1    4    4    0    0 -0.19938926487E+01  0.39110456471E+02  0.12330559883E+02  0.13165543749E+03  0.12509000000E+03 0.  0.
         25    1    3    3    0    0 -0.80107741289E+02 -0.94261044325E+02 -0.12727915993E+02  0.17638566449E+03  0.12509000000E+03 0.  0.
         25    1    4    4    0    0  0.82101633938E+02  0.55150587854E+02  0.67329792828E+01  0.15960923139E+03  0.12509000000E+03 0.  0.
<mgrwt>
<rscale>  2 0.46760741E+03</rscale>
<asrwt>0</asrwt>
<pdfrwt beam="1">  1       21 0.34851909E-01 0.46760741E+03</pdfrwt>
<pdfrwt beam="2">  1       21 0.33920199E-01 0.46760741E+03</pdfrwt>
<totfact> 0.61233359E+04</totfact>
</mgrwt>
</event>
<event>
 7    0  0.4737014E-002  0.4470680E+03  0.7546771E-02  0.1028600E+00
         21   -1    0    0  502  501  0.00000000000E+00  0.00000000000E+00  0.22146702152E+03  0.22146702152E+03  0.00000000000E+00 0. -1.
         21   -1    0    0  501  502 -0.00000000000E+00 -0.00000000000E+00 -0.22562022887E+03  0.22562022887E+03  0.00000000000E+00 0. -1.
      99926    2    1    2    0    0 -0.71054273576E-14  0.00000000000E+00 -0.41532073465E+01  0.44708725039E+03  0.44706795941E+03 0.  0.
      99925    2    3    3    0    0 -0.30730616813E+02 -0.10072803977E+03  0.60395413524E+01  0.28325224487E+03  0.26287801232E+03 0.  0.
         25    1    3    3    0    0  0.30730616813E+02  0.10072803977E+03 -0.10192748699E+02  0.16383500552E+03  0.12509000000E+03 0.  0.
         25    1    4    4    0    0 -0.38258491538E+02 -0.85903577740E+02 -0.50456346402E+01  0.15657619031E+03  0.12509000000E+03 0.  0.
         25    1    4    4    0    0  0.75278747252E+01 -0.14824462035E+02  0.11085175993E+02  0.12667605456E+03  0.12509000000E+03 0.  0.
<mgrwt>
<rscale>  2 0.44706796E+03</rscale>
<asrwt>0</asrwt>
<pdfrwt beam="1">  1       21 0.32568680E-01 0.44706796E+03</pdfrwt>
<pdfrwt beam="2">  1       21 0.33179445E-01 0.44706796E+03</pdfrwt>
<totfact> 0.73683531E+04</totfact>
</mgrwt>
</event>
<event>
 7    0  0.4737014E-002  0.4587150E+03  0.7546771E-02  0.1025155E+00
         21   -1    0    0  502  501  0.00000000000E+00  0.00000000000E+00  0.78136413339E+03  0.78136413339E+03  0.00000000000E+00 0.  1.
         21   -1    0    0  501  502 -0.00000000000E+00 -0.00000000000E+00 -0.67324399695E+02  0.67324399695E+02  0.00000000000E+00 0.  1.
      99926    2    1    2    0    0  0.00000000000E+00  0.00000000000E+00  0.71403973370E+03  0.84868853309E+03  0.45871503670E+03 0.  0.
      99925    2    3    3    0    0  0.31899762429E+02  0.35445356628E+02  0.64468350846E+03  0.69791797154E+03  0.26305645929E+03 0.  0.
         25    1    4    4    0    0 -0.21391362451E+02  0.98510297502E+01  0.26982852195E+03  0.29834472097E+03  0.12509000000E+03 0.  0.
         25    1    4    4    0    0  0.53291124880E+02  0.25594326878E+02  0.37485498651E+03  0.39957325057E+03  0.12509000000E+03 0.  0.
         25    1    3    3    0    0 -0.31899762429E+02 -0.35445356628E+02  0.69356225238E+02  0.15077056155E+03  0.12509000000E+03 0.  0.
<mgrwt>
<rscale>  2 0.45871504E+03</rscale>
<asrwt>0</asrwt>
<pdfrwt beam="1">  1       21 0.11490648E+00 0.45871504E+03</pdfrwt>
<pdfrwt beam="2">  1       21 0.99006475E-02 0.45871504E+03</pdfrwt>
<totfact> 0.44195931E+04</totfact>
</mgrwt>
</event>
<event>
 7    0  0.4737014E-002  0.4469158E+03  0.7546771E-02  0.1028646E+00
         21   -1    0    0  502  501  0.00000000000E+00  0.00000000000E+00  0.88157649404E+02  0.88157649404E+02  0.00000000000E+00 0.  1.
         21   -1    0    0  501  502 -0.00000000000E+00 -0.00000000000E+00 -0.56641068064E+03  0.56641068064E+03  0.00000000000E+00 0.  1.
      99926    2    1    2    0    0  0.00000000000E+00  0.71054273576E-14 -0.47825303124E+03  0.65456833005E+03  0.44691580506E+03 0.  0.
      99925    2    3    3    0    0 -0.57447836327E+02  0.36458074523E+02 -0.18529189966E+03  0.32883350260E+03  0.26299988452E+03 0.  0.
         25    1    4    4    0    0 -0.13955031061E+02  0.50953390297E+02 -0.11639297238E+03  0.17884580787E+03  0.12509000000E+03 0.  0.
         25    1    4    4    0    0 -0.43492805266E+02 -0.14495315774E+02 -0.68898927287E+02  0.14998769473E+03  0.12509000000E+03 0.  0.
         25    1    3    3    0    0  0.57447836327E+02 -0.36458074523E+02 -0.29296113158E+03  0.32573482745E+03  0.12509000000E+03 0.  0.
<mgrwt>
<rscale>  2 0.44691581E+03</rscale>
<asrwt>0</asrwt>
<pdfrwt beam="1">  1       21 0.12964360E-01 0.44691581E+03</pdfrwt>
<pdfrwt beam="2">  1       21 0.83295688E-01 0.44691581E+03</pdfrwt>
<totfact> 0.59119216E+04</totfact>
</mgrwt>
</event>
<event>
 7    0  0.4737014E-002  0.4102996E+03  0.7546771E-02  0.1040271E+00
         21   -1    0    0  502  501  0.00000000000E+00  0.00000000000E+00  0.53316721172E+02  0.53316721172E+02  0.00000000000E+00 0. -1.
         21   -1    0    0  501  502 -0.00000000000E+00 -0.00000000000E+00 -0.78936667148E+03  0.78936667148E+03  0.00000000000E+00 0. -1.
      99926    2    1    2    0    0  0.00000000000E+00  0.00000000000E+00 -0.73604995031E+03  0.84268339265E+03  0.41029961114E+03 0.  0.
      99925    2    3    3    0    0 -0.11288841954E+02  0.25182719329E+02 -0.60110387191E+03  0.65662007149E+03  0.26279734808E+03 0.  0.
         25    1    3    3    0    0  0.11288841954E+02 -0.25182719329E+02 -0.13494607840E+03  0.18606332116E+03  0.12509000000E+03 0.  0.
         25    1    4    4    0    0 -0.78217160163E+00  0.31963136747E+02 -0.21741784683E+03  0.25286415745E+03  0.12509000000E+03 0.  0.
         25    1    4    4    0    0 -0.10506670352E+02 -0.67804174179E+01 -0.38368602508E+03  0.40375591404E+03  0.12509000000E+03 0.  0.
<mgrwt>
<rscale>  2 0.41029961E+03</rscale>
<asrwt>0</asrwt>
<pdfrwt beam="1">  1       21 0.78406947E-02 0.41029961E+03</pdfrwt>
<pdfrwt beam="2">  1       21 0.11608333E+00 0.41029961E+03</pdfrwt>
<totfact> 0.66055096E+04</totfact>
</mgrwt>
</event>
<event>
 7    0  0.4737014E-002  0.4610220E+03  0.7546771E-02  0.1024485E+00
         21   -1    0    0  502  501  0.00000000000E+00  0.00000000000E+00  0.14183422802E+03  0.14183422802E+03  0.00000000000E+00 0. -1.
         21   -1    0    0  501  502 -0.00000000000E+00 -0.00000000000E+00 -0.37462970832E+03  0.37462970832E+03  0.00000000000E+00 0. -1.
      99926    2    1    2    0    0 -0.71054273576E-14  0.00000000000E+00 -0.23279548030E+03  0.51646393634E+03  0.46102197550E+03 0.  0.
      99925    2    3    3    0    0  0.41461633334E+02 -0.28474727036E+02 -0.25761523781E+02  0.26940029197E+03  0.26340649970E+03 0.  0.
         25    1    4    4    0    0  0.61049217082E+02 -0.16037731904E+02 -0.24067922350E+02  0.14216535702E+03  0.12509000000E+03 0.  0.
         25    1    4    4    0    0 -0.19587583747E+02 -0.12436995133E+02 -0.16936014312E+01  0.12723493495E+03  0.12509000000E+03 0.  0.
         25    1    3    3    0    0 -0.41461633334E+02  0.28474727036E+02 -0.20703395652E+03  0.24706364437E+03  0.12509000000E+03 0.  0.
<mgrwt>
<rscale>  2 0.46102198E+03</rscale>
<asrwt>0</asrwt>
<pdfrwt beam="1">  1       21 0.20857975E-01 0.46102198E+03</pdfrwt>
<pdfrwt beam="2">  1       21 0.55092604E-01 0.46102198E+03</pdfrwt>
<totfact> 0.61153746E+04</totfact>
</mgrwt>
</event>
<event>
 7    0  0.4737014E-002  0.4547345E+03  0.7546771E-02  0.1026320E+00
         21   -1    0    0  502  501  0.00000000000E+00  0.00000000000E+00  0.11875241203E+04  0.11875241203E+04  0.00000000000E+00 0.  1.
         21   -1    0    0  501  502 -0.00000000000E+00 -0.00000000000E+00 -0.43532469729E+02  0.43532469729E+02  0.00000000000E+00 0.  1.
      99926    2    1    2    0    0  0.00000000000E+00  0.00000000000E+00  0.11439916506E+04  0.12310565901E+04  0.45473446239E+03 0.  0.
      99925    2    3    3    0    0  0.75902218473E+02 -0.69903806185E+02  0.59700213578E+03  0.66053689161E+03  0.26315346505E+03 0.  0.
         25    1    3    3    0    0 -0.75902218473E+02  0.69903806185E+02  0.54698951484E+03  0.57051969846E+03  0.12509000000E+03 0.  0.
         25    1    4    4    0    0  0.26566957413E+02 -0.66021816423E+02  0.36510230836E+03  0.39244348273E+03  0.12509000000E+03 0.  0.
         25    1    4    4    0    0  0.49335261060E+02 -0.38819897623E+01  0.23189982742E+03  0.26809340888E+03  0.12509000000E+03 0.  0.
<mgrwt>
<rscale>  2 0.45473446E+03</rscale>
<asrwt>0</asrwt>
<pdfrwt beam="1">  1       21 0.17463588E+00 0.45473446E+03</pdfrwt>
<pdfrwt beam="2">  1       21 0.64018346E-02 0.45473446E+03</pdfrwt>
<totfact> 0.31249081E+04</totfact>
</mgrwt>
</event>
<event>
 7    0  0.4737014E-002  0.4597853E+03  0.7546771E-02  0.1024843E+00
         21   -1    0    0  502  501  0.00000000000E+00  0.00000000000E+00  0.89153858690E+03  0.89153858690E+03  0.00000000000E+00 0. -1.
         21   -1    0    0  501  502 -0.00000000000E+00 -0.00000000000E+00 -0.59280261016E+02  0.59280261016E+02  0.00000000000E+00 0. -1.
      99926    2    1    2    0    0  0.00000000000E+00  0.00000000000E+00  0.83225832588E+03  0.95081884791E+03  0.45978534182E+03 0.  0.
      99925    2    3    3    0    0 -0.80003250946E+02  0.18270345804E+02  0.69498947876E+03  0.74778050132E+03  0.26349758418E+03 0.  0.
         25    1    3    3    0    0  0.80003250946E+02 -0.18270345804E+02  0.13726884712E+03  0.20303834660E+03  0.12509000000E+03 0.  0.
         25    1    4    4    0    0 -0.63073721873E+02  0.43837917014E+02  0.39010323492E+03  0.41680702892E+03  0.12509000000E+03 0.  0.
         25    1    4    4    0    0 -0.16929529073E+02 -0.25567571210E+02  0.30488624384E+03  0.33097347240E+03  0.12509000000E+03 0.  0.
<mgrwt>
<rscale>  2 0.45978534E+03</rscale>
<asrwt>0</asrwt>
<pdfrwt beam="1">  1       21 0.13110861E+00 0.45978534E+03</pdfrwt>
<pdfrwt beam="2">  1       21 0.87176860E-02 0.45978534E+03</pdfrwt>
<totfact> 0.39604744E+04</totfact>
</mgrwt>
</event>
<event>
 7    0  0.4737014E-002  0.4518254E+03  0.7546771E-02  0.1027179E+00
         21   -1    0    0  502  501  0.00000000000E+00  0.00000000000E+00  0.64572305380E+02  0.64572305380E+02  0.00000000000E+00 0. -1.
         21   -1    0    0  501  502 -0.00000000000E+00 -0.00000000000E+00 -0.79037815450E+03  0.79037815450E+03  0.00000000000E+00 0. -1.
      99926    2    1    2    0    0  0.00000000000E+00  0.22204460493E-14 -0.72580584912E+03  0.85495045988E+03  0.45182536254E+03 0.  0.
      99925    2    3    3    0    0 -0.10742519890E+03  0.37786647137E+01 -0.41218577294E+03  0.50060668337E+03  0.26297431121E+03 0.  0.
         25    1    3    3    0    0  0.10742519890E+03 -0.37786647137E+01 -0.31362007618E+03  0.35434377651E+03  0.12509000000E+03 0.  0.
         25    1    4    4    0    0 -0.40018386576E+02  0.36290646674E+02 -0.16909851486E+03  0.21716421926E+03  0.12509000000E+03 0.  0.
         25    1    4    4    0    0 -0.67406812328E+02 -0.32511981960E+02 -0.24308725808E+03  0.28344246411E+03  0.12509000000E+03 0.  0.
<mgrwt>
<rscale>  2 0.45182536E+03</rscale>
<asrwt>0</asrwt>
<pdfrwt beam="1">  1       21 0.94959275E-02 0.45182536E+03</pdfrwt>
<pdfrwt beam="2">  1       21 0.11623208E+00 0.45182536E+03</pdfrwt>
<totfact> 0.46362499E+04</totfact>
</mgrwt>
</event>
<event>
 7    0  0.4737014E-002  0.4559860E+03  0.7546771E-02  0.1025952E+00
         21   -1    0    0  502  501  0.00000000000E+00  0.00000000000E+00  0.42051607192E+03  0.42051607192E+03  0.00000000000E+00 0. -1.
         21   -1    0    0  501  502 -0.00000000000E+00 -0.00000000000E+00 -0.12361191678E+03  0.12361191678E+03  0.00000000000E+00 0. -1.
      99926    2    1    2    0    0 -0.71054273576E-14  0.00000000000E+00  0.29690415514E+03  0.54412798871E+03  0.45598595456E+03 0.  0.
      99925    2    3    3    0    0  0.40976486139E+02  0.79839681132E+02  0.27052511475E+03  0.38793320976E+03  0.26316323911E+03 0.  0.
         25    1    4    4    0    0  0.41267397071E+02  0.42642659921E+01  0.12294610018E+03  0.18023438538E+03  0.12509000000E+03 0.  0.
         25    1    4    4    0    0 -0.29091093165E+00  0.75575415140E+02  0.14757901458E+03  0.20769882437E+03  0.12509000000E+03 0.  0.
         25    1    3    3    0    0 -0.40976486139E+02 -0.79839681132E+02  0.26379040390E+02  0.15619477895E+03  0.12509000000E+03 0.  0.
<mgrwt>
<rscale>  2 0.45598595E+03</rscale>
<asrwt>0</asrwt>
<pdfrwt beam="1">  1       21 0.61840598E-01 0.45598595E+03</pdfrwt>
<pdfrwt beam="2">  1       21 0.18178223E-01 0.45598595E+03</pdfrwt>
<totfact> 0.61772854E+04</totfact>
</mgrwt>
</event>
<event>
 7    0  0.4737014E-002  0.4742751E+03  0.7546771E-02  0.1020720E+00
         21   -1    0    0  502  501  0.00000000000E+00  0.00000000000E+00  0.39313908459E+02  0.39313908459E+02  0.00000000000E+00 0. -1.
         21   -1    0    0  501  502 -0.00000000000E+00 -0.00000000000E+00 -0.14303898552E+04  0.14303898552E+04  0.00000000000E+00 0. -1.
      99926    2    1    2    0    0  0.14210854715E-13 -0.71054273576E-14 -0.13910759467E+04  0.14697037636E+04  0.47427509244E+03 0.  0.
      99925    2    3    3    0    0  0.12040814381E+03 -0.30674346640E+02 -0.73896096821E+03  0.79417397899E+03  0.26307785870E+03 0.  0.
         25    1    3    3    0    0 -0.12040814381E+03  0.30674346640E+02 -0.65211497851E+03  0.67552978464E+03  0.12509000000E+03 0.  0.
         25    1    4    4    0    0  0.67770137770E+02 -0.55047875505E+02 -0.36453055910E+03  0.39516211457E+03  0.12509000000E+03 0.  0.
         25    1    4    4    0    0  0.52638006045E+02  0.24373528866E+02 -0.37443040911E+03  0.39901186443E+03  0.12509000000E+03 0.  0.
<mgrwt>
<rscale>  2 0.47427509E+03</rscale>
<asrwt>0</asrwt>
<pdfrwt beam="1">  1       21 0.57814580E-02 0.47427509E+03</pdfrwt>
<pdfrwt beam="2">  1       21 0.21035142E+00 0.47427509E+03</pdfrwt>
<totfact> 0.21178513E+04</totfact>
</mgrwt>
</event>
<event>
 7    0  0.4737014E-002  0.4296174E+03  0.7546771E-02  0.1033981E+00
         21   -1    0    0  502  501  0.00000000000E+00  0.00000000000E+00  0.43183833674E+03  0.43183833674E+03  0.00000000000E+00 0.  1.
         21   -1    0    0  501  502 -0.00000000000E+00 -0.00000000000E+00 -0.10685196591E+03  0.10685196591E+03  0.00000000000E+00 0.  1.
      99926    2    1    2    0    0  0.00000000000E+00  0.00000000000E+00  0.32498637083E+03  0.53869030264E+03  0.42961738900E+03 0.  0.
      99925    2    3    3    0    0 -0.79708027755E+02 -0.22505121729E+02  0.17510422104E+03  0.32662423483E+03  0.26298679122E+03 0.  0.
         25    1    4    4    0    0 -0.28865100333E+02  0.22451049463E+02  0.59468046357E+02  0.14325222608E+03  0.12509000000E+03 0.  0.
         25    1    4    4    0    0 -0.50842927422E+02 -0.44956171191E+02  0.11563617468E+03  0.18337200875E+03  0.12509000000E+03 0.  0.
         25    1    3    3    0    0  0.79708027755E+02  0.22505121729E+02  0.14988214979E+03  0.21206606782E+03  0.12509000000E+03 0.  0.
<mgrwt>
<rscale>  2 0.42961739E+03</rscale>
<asrwt>0</asrwt>
<pdfrwt beam="1">  1       21 0.63505637E-01 0.42961739E+03</pdfrwt>
<pdfrwt beam="2">  1       21 0.15713525E-01 0.42961739E+03</pdfrwt>
<totfact> 0.76951936E+04</totfact>
</mgrwt>
</event>
<event>
 7    0  0.4737014E-002  0.4566736E+03  0.7546771E-02  0.1025750E+00
         21   -1    0    0  502  501  0.00000000000E+00  0.00000000000E+00  0.10293102767E+03  0.10293102767E+03  0.00000000000E+00 0.  1.
         21   -1    0    0  501  502 -0.00000000000E+00 -0.00000000000E+00 -0.50653036207E+03  0.50653036207E+03  0.00000000000E+00 0.  1.
      99926    2    1    2    0    0  0.00000000000E+00 -0.71054273576E-14 -0.40359933440E+03  0.60946138974E+03  0.45667358459E+03 0.  0.
      99925    2    3    3    0    0  0.33277685132E+02  0.59962016485E+02 -0.37635969479E+03  0.46422932092E+03  0.26298173852E+03 0.  0.
         25    1    3    3    0    0 -0.33277685132E+02 -0.59962016485E+02 -0.27239639613E+02  0.14523206882E+03  0.12509000000E+03 0.  0.
         25    1    4    4    0    0  0.37743552636E+02  0.33210560565E+01 -0.14553066672E+03  0.19560748512E+03  0.12509000000E+03 0.  0.
         25    1    4    4    0    0 -0.44658675034E+01  0.56640960428E+02 -0.23082902807E+03  0.26862183580E+03  0.12509000000E+03 0.  0.
<mgrwt>
<rscale>  2 0.45667358E+03</rscale>
<asrwt>0</asrwt>
<pdfrwt beam="1">  1       21 0.15136916E-01 0.45667358E+03</pdfrwt>
<pdfrwt beam="2">  1       21 0.74489760E-01 0.45667358E+03</pdfrwt>
<totfact> 0.57337877E+04</totfact>
</mgrwt>
</event>
<event>
 7    0  0.4737014E-002  0.4527459E+03  0.7546771E-02  0.1026906E+00
         21   -1    0    0  502  501  0.00000000000E+00  0.00000000000E+00  0.53494218383E+02  0.53494218383E+02  0.00000000000E+00 0.  1.
         21   -1    0    0  501  502 -0.00000000000E+00 -0.00000000000E+00 -0.95794867124E+03  0.95794867124E+03  0.00000000000E+00 0.  1.
      99926    2    1    2    0    0 -0.35527136788E-14  0.00000000000E+00 -0.90445445286E+03  0.10114428896E+04  0.45274591293E+03 0.  0.
      99925    2    3    3    0    0  0.30650919278E+02  0.95632974554E+02 -0.67598901632E+03  0.73228503380E+03  0.26304956923E+03 0.  0.
         25    1    3    3    0    0 -0.30650919278E+02 -0.95632974554E+02 -0.22846543655E+03  0.27915785583E+03  0.12509000000E+03 0.  0.
         25    1    4    4    0    0  0.50252905640E+02  0.37617941632E+02 -0.29174543362E+03  0.32357900148E+03  0.12509000000E+03 0.  0.
         25    1    4    4    0    0 -0.19601986363E+02  0.58015032922E+02 -0.38424358269E+03  0.40870603232E+03  0.12509000000E+03 0.  0.
<mgrwt>
<rscale>  2 0.45274591E+03</rscale>
<asrwt>0</asrwt>
<pdfrwt beam="1">  1       21 0.78667973E-02 0.45274591E+03</pdfrwt>
<pdfrwt beam="2">  1       21 0.14087480E+00 0.45274591E+03</pdfrwt>
<totfact> 0.39413810E+04</totfact>
</mgrwt>
</event>
<event>
 7    0  0.4737014E-002  0.4392852E+03  0.7546771E-02  0.1030966E+00
         21   -1    0    0  502  501  0.00000000000E+00  0.00000000000E+00  0.37219953149E+02  0.37219953149E+02  0.00000000000E+00 0.  1.
         21   -1    0    0  501  502 -0.00000000000E+00 -0.00000000000E+00 -0.12961563677E+04  0.12961563677E+04  0.00000000000E+00 0.  1.
      99926    2    1    2    0    0  0.00000000000E+00  0.17763568394E-14 -0.12589364145E+04  0.13333763208E+04  0.43928523434E+03 0.  0.
      99925    2    3    3    0    0 -0.84208244701E+02  0.15946405454E+02 -0.94629343115E+03  0.98590191964E+03  0.26303235731E+03 0.  0.
         25    1    4    4    0    0 -0.76212118570E+02  0.12288142280E+02 -0.59534213620E+03  0.61322023180E+03  0.12509000000E+03 0.  0.
         25    1    3    3    0    0  0.84208244701E+02 -0.15946405454E+02 -0.31264298337E+03  0.34747440118E+03  0.12509000000E+03 0.  0.
         25    1    4    4    0    0 -0.79961261318E+01  0.36582631738E+01 -0.35095129495E+03  0.37268168784E+03  0.12509000000E+03 0.  0.
<mgrwt>
<rscale>  2 0.43928523E+03</rscale>
<asrwt>0</asrwt>
<pdfrwt beam="1">  1       21 0.54735236E-02 0.43928523E+03</pdfrwt>
<pdfrwt beam="2">  1       21 0.19061119E+00 0.43928523E+03</pdfrwt>
<totfact> 0.31881887E+04</totfact>
</mgrwt>
</event>
<event>
 7    0  0.4737014E-002  0.4533605E+03  0.7546771E-02  0.1026725E+00
         21   -1    0    0  502  501  0.00000000000E+00  0.00000000000E+00  0.99544003322E+02  0.99544003322E+02  0.00000000000E+00 0. -1.
         21   -1    0    0  501  502 -0.00000000000E+00 -0.00000000000E+00 -0.51619321161E+03  0.51619321161E+03  0.00000000000E+00 0. -1.
      99926    2    1    2    0    0 -0.71054273576E-14  0.00000000000E+00 -0.41664920829E+03  0.61573721493E+03  0.45336051337E+03 0.  0.
      99925    2    3    3    0    0  0.50990454050E+02  0.72480988181E+02 -0.17042457983E+03  0.32568963985E+03  0.26301270700E+03 0.  0.
         25    1    4    4    0    0  0.68511578336E+00  0.68540830230E+02 -0.85703742028E+02  0.16640599235E+03  0.12509000000E+03 0.  0.
         25    1    4    4    0    0  0.50305338267E+02  0.39401579511E+01 -0.84720837803E+02  0.15928364750E+03  0.12509000000E+03 0.  0.
         25    1    3    3    0    0 -0.50990454050E+02 -0.72480988181E+02 -0.24622462846E+03  0.29004757508E+03  0.12509000000E+03 0.  0.
<mgrwt>
<rscale>  2 0.45336051E+03</rscale>
<asrwt>0</asrwt>
<pdfrwt beam="1">  1       21 0.14638824E-01 0.45336051E+03</pdfrwt>
<pdfrwt beam="2">  1       21 0.75910767E-01 0.45336051E+03</pdfrwt>
<totfact> 0.58473343E+04</totfact>
</mgrwt>
</event>
<event>
 7    0  0.4737014E-002  0.4547398E+03  0.7546771E-02  0.1026318E+00
         21   -1    0    0  502  501  0.00000000000E+00  0.00000000000E+00  0.30166952532E+03  0.30166952532E+03  0.00000000000E+00 0. -1.
         21   -1    0    0  501  502 -0.00000000000E+00 -0.00000000000E+00 -0.17136989702E+03  0.17136989702E+03  0.00000000000E+00 0. -1.
      99926    2    1    2    0    0  0.35527136788E-14  0.00000000000E+00  0.13029962831E+03  0.47303942234E+03  0.45473981786E+03 0.  0.
      99925    2    3    3    0    0 -0.23705505806E+02 -0.10717699997E+03  0.10891132546E+03  0.30524839777E+03  0.26318443571E+03 0.  0.
         25    1    4    4    0    0 -0.45094716785E+02 -0.56679873484E+02  0.30401999634E+02  0.14770894090E+03  0.12509000000E+03 0.  0.
         25    1    3    3    0    0  0.23705505806E+02  0.10717699997E+03  0.21388302852E+02  0.16779102457E+03  0.12509000000E+03 0.  0.
         25    1    4    4    0    0  0.21389210979E+02 -0.50497126484E+02  0.78509325822E+02  0.15753945687E+03  0.12509000000E+03 0.  0.
<mgrwt>
<rscale>  2 0.45473982E+03</rscale>
<asrwt>0</asrwt>
<pdfrwt beam="1">  1       21 0.44363166E-01 0.45473982E+03</pdfrwt>
<pdfrwt beam="2">  1       21 0.25201455E-01 0.45473982E+03</pdfrwt>
<totfact> 0.67349349E+04</totfact>
</mgrwt>
</event>
<event>
 7    0  0.4737014E-002  0.4593416E+03  0.7546771E-02  0.1024972E+00
         21   -1    0    0  502  501  0.00000000000E+00  0.00000000000E+00  0.15352117896E+03  0.15352117896E+03  0.00000000000E+00 0.  1.
         21   -1    0    0  501  502 -0.00000000000E+00 -0.00000000000E+00 -0.34359218525E+03  0.34359218525E+03  0.00000000000E+00 0.  1.
      99926    2    1    2    0    0  0.14210854715E-13  0.00000000000E+00 -0.19007100629E+03  0.49711336421E+03  0.45934160430E+03 0.  0.
      99925    2    3    3    0    0 -0.76217998042E+02 -0.44688847235E+02 -0.35904062281E+02  0.27980889803E+03  0.26305444577E+03 0.  0.
         25    1    4    4    0    0 -0.66940614778E+02  0.59946478365E+01 -0.23796918052E+02  0.14398188469E+03  0.12509000000E+03 0.  0.
         25    1    3    3    0    0  0.76217998042E+02  0.44688847235E+02 -0.15416694401E+03  0.21730446617E+03  0.12509000000E+03 0.  0.
         25    1    4    4    0    0 -0.92773832644E+01 -0.50683495072E+02 -0.12107144229E+02  0.13582701335E+03  0.12509000000E+03 0.  0.
<mgrwt>
<rscale>  2 0.45934160E+03</rscale>
<asrwt>0</asrwt>
<pdfrwt beam="1">  1       21 0.22576645E-01 0.45934160E+03</pdfrwt>
<pdfrwt beam="2">  1       21 0.50528261E-01 0.45934160E+03</pdfrwt>
<totfact> 0.63265156E+04</totfact>
</mgrwt>
</event>
<event>
 7    0  0.4737014E-002  0.4540023E+03  0.7546771E-02  0.1026535E+00
         21   -1    0    0  502  501  0.00000000000E+00  0.00000000000E+00  0.49010206140E+03  0.49010206140E+03  0.00000000000E+00 0. -1.
         21   -1    0    0  501  502 -0.00000000000E+00 -0.00000000000E+00 -0.10514040568E+03  0.10514040568E+03  0.00000000000E+00 0. -1.
      99926    2    1    2    0    0  0.00000000000E+00  0.00000000000E+00  0.38496165572E+03  0.59524246708E+03  0.45400233285E+03 0.  0.
      99925    2    3    3    0    0 -0.20008115789E+02 -0.84559797540E+02  0.33566948644E+03  0.43515527174E+03  0.26293615639E+03 0.  0.
         25    1    4    4    0    0 -0.37667231254E+02 -0.18152096196E+02  0.13331505705E+03  0.18753328090E+03  0.12509000000E+03 0.  0.
         25    1    4    4    0    0  0.17659115466E+02 -0.66407701344E+02  0.20235442939E+03  0.24762199085E+03  0.12509000000E+03 0.  0.
         25    1    3    3    0    0  0.20008115789E+02  0.84559797540E+02  0.49292169273E+02  0.16008719533E+03  0.12509000000E+03 0.  0.
<mgrwt>
<rscale>  2 0.45400233E+03</rscale>
<asrwt>0</asrwt>
<pdfrwt beam="1">  1       21 0.72073831E-01 0.45400233E+03</pdfrwt>
<pdfrwt beam="2">  1       21 0.15461825E-01 0.45400233E+03</pdfrwt>
<totfact> 0.59439292E+04</totfact>
</mgrwt>
</event>
<event>
 6    0  0.4737014E-002  0.4551537E+03  0.7546771E-02  0.1026196E+00
         21   -1    0    0  502  501  0.00000000000E+00  0.00000000000E+00  0.70801480470E+03  0.70801480470E+03  0.00000000000E+00 0. -1.
         21   -1    0    0  501  502 -0.00000000000E+00 -0.00000000000E+00 -0.73149901806E+02  0.73149901806E+02  0.00000000000E+00 0. -1.
      99926    2    1    2    0    0 -0.71054273576E-14 -0.71054273576E-14  0.63486490289E+03  0.78116470651E+03  0.45515365951E+03 0.  0.
         25    1    3    3    0    0 -0.56713214308E+02 -0.52365921367E+02  0.34446638264E+03  0.37451725630E+03  0.12509000000E+03 0.  0.
         25    1    3    3    0    0  0.71305551153E+02  0.49578286232E+02  0.11560597742E+03  0.19119293451E+03  0.12509000000E+03 0.  0.
         25    1    3    3    0    0 -0.14592336845E+02  0.27876351346E+01  0.17479254283E+03  0.21545451569E+03  0.12509000000E+03 0.  0.
<mgrwt>
<rscale>  2 0.45515366E+03</rscale>
<asrwt>0</asrwt>
<pdfrwt beam="1">  1       21 0.10411982E+00 0.45515366E+03</pdfrwt>
<pdfrwt beam="2">  1       21 0.10757339E-01 0.45515366E+03</pdfrwt>
<totfact> 0.48630705E+04</totfact>
</mgrwt>
</event>
<event>
 7    0  0.4737014E-002  0.4461170E+03  0.7546771E-02  0.1028886E+00
         21   -1    0    0  502  501  0.00000000000E+00  0.00000000000E+00  0.13633714007E+03  0.13633714007E+03  0.00000000000E+00 0.  1.
         21   -1    0    0  501  502 -0.00000000000E+00 -0.00000000000E+00 -0.36494152419E+03  0.36494152419E+03  0.00000000000E+00 0.  1.
      99926    2    1    2    0    0  0.00000000000E+00 -0.35527136788E-14 -0.22860438412E+03  0.50127866427E+03  0.44611695194E+03 0.  0.
      99925    2    3    3    0    0 -0.99475934177E+02 -0.24557494303E+02 -0.12071192019E+03  0.30689033159E+03  0.26289118650E+03 0.  0.
         25    1    4    4    0    0 -0.12139250153E+02  0.24919239537E+01 -0.69898628517E+02  0.14382940398E+03  0.12509000000E+03 0.  0.
         25    1    3    3    0    0  0.99475934177E+02  0.24557494303E+02 -0.10789246393E+03  0.19438833267E+03  0.12509000000E+03 0.  0.
         25    1    4    4    0    0 -0.87336684024E+02 -0.27049418256E+02 -0.50813291675E+02  0.16306092762E+03  0.12509000000E+03 0.  0.
<mgrwt>
<rscale>  2 0.44611695E+03</rscale>
<asrwt>0</asrwt>
<pdfrwt beam="1">  1       21 0.20049579E-01 0.44611695E+03</pdfrwt>
<pdfrwt beam="2">  1       21 0.53667871E-01 0.44611695E+03</pdfrwt>
<totfact> 0.69986678E+04</totfact>
</mgrwt>
</event>
<event>
 7    0  0.4737014E-002  0.4508847E+03  0.7546771E-02  0.1027459E+00
         21   -1    0    0  502  501  0.00000000000E+00  0.00000000000E+00  0.29585718716E+03  0.29585718716E+03  0.00000000000E+00 0.  1.
         21   -1    0    0  501  502 -0.00000000000E+00 -0.00000000000E+00 -0.17178643654E+03  0.17178643654E+03  0.00000000000E+00 0.  1.
      99926    2    1    2    0    0 -0.71054273576E-14  0.00000000000E+00  0.12407075062E+03  0.46764362370E+03  0.45088469438E+03 0.  0.
      99925    2    3    3    0    0  0.52432199260E+02  0.69474684146E+02  0.98345594263E+01  0.27718816242E+03  0.26298420403E+03 0.  0.
         25    1    3    3    0    0 -0.52432199260E+02 -0.69474684146E+02  0.11423619119E+03  0.19045546129E+03  0.12509000000E+03 0.  0.
         25    1    4    4    0    0 -0.15730897868E+01  0.14631979967E+02 -0.19387095955E+02  0.12743601155E+03  0.12509000000E+03 0.  0.
         25    1    4    4    0    0  0.54005289046E+02  0.54842704179E+02  0.29221655381E+02  0.14975215087E+03  0.12509000000E+03 0.  0.
<mgrwt>
<rscale>  2 0.45088469E+03</rscale>
<asrwt>0</asrwt>
<pdfrwt beam="1">  1       21 0.43508410E-01 0.45088469E+03</pdfrwt>
<pdfrwt beam="2">  1       21 0.25262711E-01 0.45088469E+03</pdfrwt>
<totfact> 0.69864580E+04</totfact>
</mgrwt>
</event>
<event>
 7    0  0.4737014E-002  0.4566626E+03  0.7546771E-02  0.1025754E+00
         21   -1    0    0  502  501  0.00000000000E+00  0.00000000000E+00  0.93113012084E+03  0.93113012084E+03  0.00000000000E+00 0.  1.
         21   -1    0    0  501  502 -0.00000000000E+00 -0.00000000000E+00 -0.55991305474E+02  0.55991305474E+02  0.00000000000E+00 0.  1.
      99926    2    1    2    0    0  0.00000000000E+00  0.35527136788E-14  0.87513881537E+03  0.98712142632E+03  0.45666263711E+03 0.  0.
      99925    2    3    3    0    0 -0.20397509047E+02  0.25539566764E+02  0.31329166280E+03  0.41059037009E+03  0.26337133136E+03 0.  0.
         25    1    4    4    0    0 -0.43398678735E+02  0.37246825195E+02  0.16868996805E+03  0.21765703463E+03  0.12509000000E+03 0.  0.
         25    1    4    4    0    0  0.23001169689E+02 -0.11707258431E+02  0.14460169476E+03  0.19293333547E+03  0.12509000000E+03 0.  0.
         25    1    3    3    0    0  0.20397509047E+02 -0.25539566764E+02  0.56184715257E+03  0.57653105623E+03  0.12509000000E+03 0.  0.
<mgrwt>
<rscale>  2 0.45666264E+03</rscale>
<asrwt>0</asrwt>
<pdfrwt beam="1">  1       21 0.13693089E+00 0.45666264E+03</pdfrwt>
<pdfrwt beam="2">  1       21 0.82340161E-02 0.45666264E+03</pdfrwt>
<totfact> 0.39160311E+04</totfact>
</mgrwt>
</event>
<event>
 7    0  0.4737014E-002  0.4514432E+03  0.7546771E-02  0.1027293E+00
         21   -1    0    0  502  501  0.00000000000E+00  0.00000000000E+00  0.47766235696E+02  0.47766235696E+02  0.00000000000E+00 0. -1.
         21   -1    0    0  501  502 -0.00000000000E+00 -0.00000000000E+00 -0.10666581049E+04  0.10666581049E+04  0.00000000000E+00 0. -1.
      99926    2    1    2    0    0  0.00000000000E+00  0.00000000000E+00 -0.10188918692E+04  0.11144243406E+04  0.45144320771E+03 0.  0.
      99925    2    3    3    0    0  0.10010988631E+03  0.45174807524E+02 -0.64763936442E+03  0.70755988777E+03  0.26294770555E+03 0.  0.
         25    1    4    4    0    0  0.91556829552E+02  0.24370410681E+02 -0.38625219344E+03  0.41691106364E+03  0.12509000000E+03 0.  0.
         25    1    3    3    0    0 -0.10010988631E+03 -0.45174807524E+02 -0.37125250482E+03  0.40686445286E+03  0.12509000000E+03 0.  0.
         25    1    4    4    0    0  0.85530567568E+01  0.20804396843E+02 -0.26138717099E+03  0.29064882412E+03  0.12509000000E+03 0.  0.
<mgrwt>
<rscale>  2 0.45144321E+03</rscale>
<asrwt>0</asrwt>
<pdfrwt beam="1">  1       21 0.70244461E-02 0.45144321E+03</pdfrwt>
<pdfrwt beam="2">  1       21 0.15686149E+00 0.45144321E+03</pdfrwt>
<totfact> 0.35980013E+04</totfact>
</mgrwt>
</event>
<event>
 7    0  0.4737014E-002  0.4541739E+03  0.7546771E-02  0.1026485E+00
         21   -1    0    0  502  501  0.00000000000E+00  0.00000000000E+00  0.16571630988E+04  0.16571630988E+04  0.00000000000E+00 0. -1.
         21   -1    0    0  501  502 -0.00000000000E+00 -0.00000000000E+00 -0.31118532148E+02  0.31118532148E+02  0.00000000000E+00 0. -1.
      99926    2    1    2    0    0  0.00000000000E+00  0.00000000000E+00  0.16260445667E+04  0.16882816310E+04  0.45417390134E+03 0.  0.
      99925    2    3    3    0    0  0.73360439648E+02 -0.19554763546E+02  0.13321677375E+04  0.13599902334E+04  0.26294184011E+03 0.  0.
         25    1    4    4    0    0  0.47594980736E+02 -0.13513569237E+02  0.87498953110E+03  0.88526949929E+03  0.12509000000E+03 0.  0.
         25    1    3    3    0    0 -0.73360439648E+02  0.19554763546E+02  0.29387682923E+03  0.32829139760E+03  0.12509000000E+03 0.  0.
         25    1    4    4    0    0  0.25765458912E+02 -0.60411943090E+01  0.45717820635E+03  0.47472073408E+03  0.12509000000E+03 0.  0.
<mgrwt>
<rscale>  2 0.45417390E+03</rscale>
<asrwt>0</asrwt>
<pdfrwt beam="1">  1       21 0.24370040E+00 0.45417390E+03</pdfrwt>
<pdfrwt beam="2">  1       21 0.45762558E-02 0.45417390E+03</pdfrwt>
<totfact> 0.19632116E+04</totfact>
</mgrwt>
</event>
<event>
 7    0  0.4737014E-002  0.4537879E+03  0.7546771E-02  0.1026598E+00
         21   -1    0    0  502  501  0.00000000000E+00  0.00000000000E+00  0.96622951434E+02  0.96622951434E+02  0.00000000000E+00 0.  1.
         21   -1    0    0  501  502 -0.00000000000E+00 -0.00000000000E+00 -0.53280169370E+03  0.53280169370E+03  0.00000000000E+00 0.  1.
      99926    2    1    2    0    0  0.00000000000E+00  0.00000000000E+00 -0.43617874227E+03  0.62942464513E+03  0.45378793362E+03 0.  0.
      99925    2    3    3    0    0  0.76468698542E+02  0.48269307190E+02 -0.18292186348E+03  0.33283748657E+03  0.26295055895E+03 0.  0.
         25    1    4    4    0    0  0.62275707665E+02  0.26408648822E+02 -0.56295505080E+02  0.15294565208E+03  0.12509000000E+03 0.  0.
         25    1    3    3    0    0 -0.76468698542E+02 -0.48269307190E+02 -0.25325687878E+03  0.29658715856E+03  0.12509000000E+03 0.  0.
         25    1    4    4    0    0  0.14192990877E+02  0.21860658368E+02 -0.12662635840E+03  0.17989183449E+03  0.12509000000E+03 0.  0.
<mgrwt>
<rscale>  2 0.45378793E+03</rscale>
<asrwt>0</asrwt>
<pdfrwt beam="1">  1       21 0.14209258E-01 0.45378793E+03</pdfrwt>
<pdfrwt beam="2">  1       21 0.78353190E-01 0.45378793E+03</pdfrwt>
<totfact> 0.57450419E+04</totfact>
</mgrwt>
</event>
<event>
 7    0  0.4737014E-002  0.4628308E+03  0.7546771E-02  0.1023963E+00
         21   -1    0    0  502  501  0.00000000000E+00  0.00000000000E+00  0.60896860178E+02  0.60896860178E+02  0.00000000000E+00 0.  1.
         21   -1    0    0  501  502 -0.00000000000E+00 -0.00000000000E+00 -0.87940650293E+03  0.87940650293E+03  0.00000000000E+00 0.  1.
      99926    2    1    2    0    0  0.35527136788E-14  0.14210854715E-13 -0.81850964276E+03  0.94030336311E+03  0.46283083237E+03 0.  0.
      99925    2    3    3    0    0 -0.24850313555E+02 -0.11721693798E+03 -0.53073966407E+03  0.60442181053E+03  0.26321813272E+03 0.  0.
         25    1    3    3    0    0  0.24850313555E+02  0.11721693798E+03 -0.28776997869E+03  0.33588155258E+03  0.12509000000E+03 0.  0.
         25    1    4    4    0    0 -0.28866376279E+02 -0.59458649093E+02 -0.34694564916E+03  0.37468305300E+03  0.12509000000E+03 0.  0.
         25    1    4    4    0    0  0.40160627240E+01 -0.57758288889E+02 -0.18379401491E+03  0.22973875753E+03  0.12509000000E+03 0.  0.
<mgrwt>
<rscale>  2 0.46283083E+03</rscale>
<asrwt>0</asrwt>
<pdfrwt beam="1">  1       21 0.89554218E-02 0.46283083E+03</pdfrwt>
<pdfrwt beam="2">  1       21 0.12932447E+00 0.46283083E+03</pdfrwt>
<totfact> 0.39086444E+04</totfact>
</mgrwt>
</event>
<event>
 7    0  0.4737014E-002  0.4593435E+03  0.7546771E-02  0.1024972E+00
         21   -1    0    0  502  501  0.00000000000E+00  0.00000000000E+00  0.34311485884E+03  0.34311485884E+03  0.00000000000E+00 0.  1.
         21   -1    0    0  501  502 -0.00000000000E+00 -0.00000000000E+00 -0.15373601572E+03  0.15373601572E+03  0.00000000000E+00 0.  1.
      99926    2    1    2    0    0  0.00000000000E+00  0.00000000000E+00  0.18937884313E+03  0.49685087456E+03  0.45934349383E+03 0.  0.
      99925    2    3    3    0    0  0.99875389947E+02 -0.54512476861E+02  0.14889182351E+03  0.32297330123E+03  0.26305184764E+03 0.  0.
         25    1    4    4    0    0  0.61493776264E+02 -0.30279579697E+02  0.32757346141E+02  0.14635193641E+03  0.12509000000E+03 0.  0.
         25    1    3    3    0    0 -0.99875389947E+02  0.54512476861E+02  0.40487019615E+02  0.17387757333E+03  0.12509000000E+03 0.  0.
         25    1    4    4    0    0  0.38381613683E+02 -0.24232897164E+02  0.11613447737E+03  0.17662136481E+03  0.12509000000E+03 0.  0.
<mgrwt>
<rscale>  2 0.45934349E+03</rscale>
<asrwt>0</asrwt>
<pdfrwt beam="1">  1       21 0.50458067E-01 0.45934349E+03</pdfrwt>
<pdfrwt beam="2">  1       21 0.22608238E-01 0.45934349E+03</pdfrwt>
<totfact> 0.63282117E+04</totfact>
</mgrwt>
</event>
<event>
 7    0  0.4737014E-002  0.4516899E+03  0.7546771E-02  0.1027219E+00
         21   -1    0    0  502  501  0.00000000000E+00  0.00000000000E+00  0.19337867168E+04  0.19337867168E+04  0.00000000000E+00 0. -1.
         21   -1    0    0  501  502 -0.00000000000E+00 -0.00000000000E+00 -0.26376197440E+02  0.26376197440E+02  0.00000000000E+00 0. -1.
      99926    2    1    2    0    0  0.00000000000E+00  0.00000000000E+00  0.19074105193E+04  0.19601629142E+04  0.45168989472E+03 0.  0.
      99925    2    3    3    0    0  0.25686818496E+02  0.40463041613E+02  0.16340125755E+04  0.16557109243E+04  0.26283929980E+03 0.  0.
         25    1    4    4    0    0  0.70812427814E+01  0.47089884976E+02  0.10224775162E+04  0.10312009409E+04  0.12509000000E+03 0.  0.
         25    1    3    3    0    0 -0.25686818496E+02 -0.40463041613E+02  0.27339794385E+03  0.30445198995E+03  0.12509000000E+03 0.  0.
         25    1    4    4    0    0  0.18605575715E+02 -0.66268433628E+01  0.61153505934E+03  0.62450998343E+03  0.12509000000E+03 0.  0.
<mgrwt>
<rscale>  2 0.45168989E+03</rscale>
<asrwt>0</asrwt>
<pdfrwt beam="1">  1       21 0.28438030E+00 0.45168989E+03</pdfrwt>
<pdfrwt beam="2">  1       21 0.38788539E-02 0.45168989E+03</pdfrwt>
<totfact> 0.14746606E+04</totfact>
</mgrwt>
</event>
<event>
 7    0  0.4737014E-002  0.4579162E+03  0.7546771E-02  0.1025387E+00
         21   -1    0    0  502  501  0.00000000000E+00  0.00000000000E+00  0.36524790804E+03  0.36524790804E+03  0.00000000000E+00 0. -1.
         21   -1    0    0  501  502 -0.00000000000E+00 -0.00000000000E+00 -0.14352391694E+03  0.14352391694E+03  0.00000000000E+00 0. -1.
      99926    2    1    2    0    0  0.00000000000E+00  0.14210854715E-13  0.22172399110E+03  0.50877182499E+03  0.45791619503E+03 0.  0.
      99925    2    3    3    0    0  0.54926341965E+02 -0.71373497037E+02  0.21907014103E+03  0.35461077238E+03  0.26390527481E+03 0.  0.
         25    1    4    4    0    0  0.26708428905E+02  0.22368385879E+01  0.12792722616E+03  0.18091773521E+03  0.12509000000E+03 0.  0.
         25    1    4    4    0    0  0.28217913060E+02 -0.73610335625E+02  0.91142914871E+02  0.17369303716E+03  0.12509000000E+03 0.  0.
         25    1    3    3    0    0 -0.54926341965E+02  0.71373497037E+02  0.26538500682E+01  0.15416105261E+03  0.12509000000E+03 0.  0.
<mgrwt>
<rscale>  2 0.45791620E+03</rscale>
<asrwt>0</asrwt>
<pdfrwt beam="1">  1       21 0.53712928E-01 0.45791620E+03</pdfrwt>
<pdfrwt beam="2">  1       21 0.21106458E-01 0.45791620E+03</pdfrwt>
<totfact> 0.63183573E+04</totfact>
</mgrwt>
</event>
<event>
 7    0  0.4737014E-002  0.4521511E+03  0.7546771E-02  0.1027082E+00
         21   -1    0    0  502  501  0.00000000000E+00  0.00000000000E+00  0.67432496269E+03  0.67432496269E+03  0.00000000000E+00 0. -1.
         21   -1    0    0  501  502 -0.00000000000E+00 -0.00000000000E+00 -0.75794548008E+02  0.75794548008E+02  0.00000000000E+00 0. -1.
      99926    2    1    2    0    0  0.14210854715E-13  0.00000000000E+00  0.59853041468E+03  0.75011951069E+03  0.45215110641E+03 0.  0.
      99925    2    3    3    0    0 -0.64780494796E+02  0.32937601148E+02  0.51564959296E+03  0.58339177819E+03  0.26300202675E+03 0.  0.
         25    1    3    3    0    0  0.64780494796E+02 -0.32937601148E+02  0.82880821723E+02  0.16672773250E+03  0.12509000000E+03 0.  0.
         25    1    4    4    0    0 -0.17267182109E+00  0.17924224521E+02  0.18874164616E+03  0.22713921884E+03  0.12509000000E+03 0.  0.
         25    1    4    4    0    0 -0.64607822975E+02  0.15013376627E+02  0.32690794680E+03  0.35625255935E+03  0.12509000000E+03 0.  0.
<mgrwt>
<rscale>  2 0.45215111E+03</rscale>
<asrwt>0</asrwt>
<pdfrwt beam="1">  1       21 0.99165432E-01 0.45215111E+03</pdfrwt>
<pdfrwt beam="2">  1       21 0.11146257E-01 0.45215111E+03</pdfrwt>
<totfact> 0.51406215E+04</totfact>
</mgrwt>
</event>
<event>
 7    0  0.4737014E-002  0.4652986E+03  0.7546771E-02  0.1023256E+00
         21   -1    0    0  502  501  0.00000000000E+00  0.00000000000E+00  0.79662035412E+03  0.79662035412E+03  0.00000000000E+00 0.  1.
         21   -1    0    0  501  502 -0.00000000000E+00 -0.00000000000E+00 -0.67944167115E+02  0.67944167115E+02  0.00000000000E+00 0.  1.
      99926    2    1    2    0    0  0.00000000000E+00 -0.71054273576E-14  0.72867618700E+03  0.86456452123E+03  0.46529864159E+03 0.  0.
      99925    2    3    3    0    0  0.11291648907E+03 -0.40550358861E+02  0.40780614584E+03  0.49987347867E+03  0.26300794092E+03 0.  0.
         25    1    4    4    0    0  0.81857900496E+02 -0.51010243426E+02  0.25178614685E+03  0.29723144627E+03  0.12509000000E+03 0.  0.
         25    1    4    4    0    0  0.31058588579E+02  0.10459884565E+02  0.15601999900E+03  0.20264203240E+03  0.12509000000E+03 0.  0.
         25    1    3    3    0    0 -0.11291648907E+03  0.40550358861E+02  0.32087004116E+03  0.36469104256E+03  0.12509000000E+03 0.  0.
<mgrwt>
<rscale>  2 0.46529864E+03</rscale>
<asrwt>0</asrwt>
<pdfrwt beam="1">  1       21 0.11715005E+00 0.46529864E+03</pdfrwt>
<pdfrwt beam="2">  1       21 0.99917898E-02 0.46529864E+03</pdfrwt>
<totfact> 0.41351847E+04</totfact>
</mgrwt>
</event>
<event>
 7    0  0.4737014E-002  0.4519659E+03  0.7546771E-02  0.1027137E+00
         21   -1    0    0  502  501  0.00000000000E+00  0.00000000000E+00  0.13947052012E+04  0.13947052012E+04  0.00000000000E+00 0.  1.
         21   -1    0    0  501  502 -0.00000000000E+00 -0.00000000000E+00 -0.36615826867E+02  0.36615826867E+02  0.00000000000E+00 0.  1.
      99926    2    1    2    0    0  0.14210854715E-13  0.00000000000E+00  0.13580893743E+04  0.14313210281E+04  0.45196585791E+03 0.  0.
      99925    2    3    3    0    0 -0.80770937157E+02  0.34078132874E+02  0.10689149881E+04  0.11042818910E+04  0.26300946665E+03 0.  0.
         25    1    4    4    0    0 -0.74533429400E+02  0.39801467655E+02  0.62800558679E+03  0.64589311349E+03  0.12509000000E+03 0.  0.
         25    1    4    4    0    0 -0.62375077571E+01 -0.57233347815E+01  0.44090940131E+03  0.45838877748E+03  0.12509000000E+03 0.  0.
         25    1    3    3    0    0  0.80770937157E+02 -0.34078132874E+02  0.28917438624E+03  0.32703913709E+03  0.12509000000E+03 0.  0.
<mgrwt>
<rscale>  2 0.45196586E+03</rscale>
<asrwt>0</asrwt>
<pdfrwt beam="1">  1       21 0.20510367E+00 0.45196586E+03</pdfrwt>
<pdfrwt beam="2">  1       21 0.53846813E-02 0.45196586E+03</pdfrwt>
<totfact> 0.26119588E+04</totfact>
</mgrwt>
</event>
<event>
 7    0  0.4737014E-002  0.4537610E+03  0.7546771E-02  0.1026606E+00
         21   -1    0    0  502  501  0.00000000000E+00  0.00000000000E+00  0.23922517866E+03  0.23922517866E+03  0.00000000000E+00 0. -1.
         21   -1    0    0  501  502 -0.00000000000E+00 -0.00000000000E+00 -0.21517281591E+03  0.21517281591E+03  0.00000000000E+00 0. -1.
      99926    2    1    2    0    0 -0.35527136788E-14  0.00000000000E+00  0.24052362747E+02  0.45439799457E+03  0.45376097377E+03 0.  0.
      99925    2    3    3    0    0 -0.29790144523E+02 -0.10680740297E+03 -0.70473128418E+00  0.28541368807E+03  0.26299278061E+03 0.  0.
         25    1    4    4    0    0 -0.52708888255E+02 -0.68490478009E+02 -0.92256847957E+01  0.15232135057E+03  0.12509000000E+03 0.  0.
         25    1    4    4    0    0  0.22918743732E+02 -0.38316924958E+02  0.85209535115E+01  0.13309233750E+03  0.12509000000E+03 0.  0.
         25    1    3    3    0    0  0.29790144523E+02  0.10680740297E+03  0.24757094031E+02  0.16898430650E+03  0.12509000000E+03 0.  0.
<mgrwt>
<rscale>  2 0.45376097E+03</rscale>
<asrwt>0</asrwt>
<pdfrwt beam="1">  1       21 0.35180173E-01 0.45376097E+03</pdfrwt>
<pdfrwt beam="2">  1       21 0.31643061E-01 0.45376097E+03</pdfrwt>
<totfact> 0.69272244E+04</totfact>
</mgrwt>
</event>
<event>
 7    0  0.4737014E-002  0.4574738E+03  0.7546771E-02  0.1025516E+00
         21   -1    0    0  502  501  0.00000000000E+00  0.00000000000E+00  0.86044842923E+03  0.86044842923E+03  0.00000000000E+00 0.  1.
         21   -1    0    0  501  502 -0.00000000000E+00 -0.00000000000E+00 -0.60806155219E+02  0.60806155219E+02  0.00000000000E+00 0.  1.
      99926    2    1    2    0    0 -0.14210854715E-13 -0.14210854715E-13  0.79964227401E+03  0.92125458445E+03  0.45747376207E+03 0.  0.
      99925    2    3    3    0    0 -0.66868262915E+02 -0.92143829695E+02  0.45871686252E+03  0.54067674190E+03  0.26258013889E+03 0.  0.
         25    1    3    3    0    0  0.66868262915E+02  0.92143829695E+02  0.34092541149E+03  0.38057784255E+03  0.12509000000E+03 0.  0.
         25    1    4    4    0    0 -0.14663609982E+02 -0.31963903347E+02  0.27821353364E+03  0.30706186832E+03  0.12509000000E+03 0.  0.
         25    1    4    4    0    0 -0.52204652934E+02 -0.60179926348E+02  0.18050332888E+03  0.23361487358E+03  0.12509000000E+03 0.  0.
<mgrwt>
<rscale>  2 0.45747376E+03</rscale>
<asrwt>0</asrwt>
<pdfrwt beam="1">  1       21 0.12653653E+00 0.45747376E+03</pdfrwt>
<pdfrwt beam="2">  1       21 0.89420821E-02 0.45747376E+03</pdfrwt>
<totfact> 0.41517885E+04</totfact>
</mgrwt>
</event>
<event>
 7    0  0.4737014E-002  0.4520991E+03  0.7546771E-02  0.1027098E+00
         21   -1    0    0  502  501  0.00000000000E+00  0.00000000000E+00  0.19250846536E+04  0.19250846536E+04  0.00000000000E+00 0. -1.
         21   -1    0    0  501  502 -0.00000000000E+00 -0.00000000000E+00 -0.26543454590E+02  0.26543454590E+02  0.00000000000E+00 0. -1.
      99926    2    1    2    0    0  0.00000000000E+00 -0.71054273576E-14  0.18985411990E+04  0.19516281082E+04  0.45209909128E+03 0.  0.
      99925    2    3    3    0    0 -0.70044476538E+02  0.41157042518E+02  0.87030909344E+03  0.91263393022E+03  0.26241692326E+03 0.  0.
         25    1    4    4    0    0 -0.32315058514E+02 -0.18699721555E+02  0.44032950715E+03  0.45927282258E+03  0.12509000000E+03 0.  0.
         25    1    3    3    0    0  0.70044476538E+02 -0.41157042518E+02  0.10282321056E+04  0.10389941780E+04  0.12509000000E+03 0.  0.
         25    1    4    4    0    0 -0.37729418024E+02  0.59856764073E+02  0.42997958629E+03  0.45336110763E+03  0.12509000000E+03 0.  0.
<mgrwt>
<rscale>  2 0.45209909E+03</rscale>
<asrwt>0</asrwt>
<pdfrwt beam="1">  1       21 0.28310059E+00 0.45209909E+03</pdfrwt>
<pdfrwt beam="2">  1       21 0.39034505E-02 0.45209909E+03</pdfrwt>
<totfact> 0.14847411E+04</totfact>
</mgrwt>
</event>
<event>
 7    0  0.4737014E-002  0.4553059E+03  0.7546771E-02  0.1026151E+00
         21   -1    0    0  502  501  0.00000000000E+00  0.00000000000E+00  0.58624764458E+02  0.58624764458E+02  0.00000000000E+00 0.  1.
         21   -1    0    0  501  502 -0.00000000000E+00 -0.00000000000E+00 -0.88402693550E+03  0.88402693550E+03  0.00000000000E+00 0.  1.
      99926    2    1    2    0    0 -0.35527136788E-14  0.00000000000E+00 -0.82540217105E+03  0.94265169996E+03  0.45530592295E+03 0.  0.
      99925    2    3    3    0    0 -0.20394168215E+02  0.10716382224E+03 -0.58401000932E+03  0.64970513361E+03  0.26296209377E+03 0.  0.
         25    1    4    4    0    0 -0.33842600331E+02  0.73057004859E+02 -0.37436966741E+03  0.40284339828E+03  0.12509000000E+03 0.  0.
         25    1    3    3    0    0  0.20394168215E+02 -0.10716382224E+03 -0.24139216173E+03  0.29294656635E+03  0.12509000000E+03 0.  0.
         25    1    4    4    0    0  0.13448432116E+02  0.34106817379E+02 -0.20964034191E+03  0.24686173534E+03  0.12509000000E+03 0.  0.
<mgrwt>
<rscale>  2 0.45530592E+03</rscale>
<asrwt>0</asrwt>
<pdfrwt beam="1">  1       21 0.86212897E-02 0.45530592E+03</pdfrwt>
<pdfrwt beam="2">  1       21 0.13000395E+00 0.45530592E+03</pdfrwt>
<totfact> 0.41340802E+04</totfact>
</mgrwt>
</event>
<event>
 7    0  0.4737014E-002  0.4385422E+03  0.7546771E-02  0.1031195E+00
         21   -1    0    0  502  501  0.00000000000E+00  0.00000000000E+00  0.97438383752E+02  0.97438383752E+02  0.00000000000E+00 0. -1.
         21   -1    0    0  501  502 -0.00000000000E+00 -0.00000000000E+00 -0.49343812226E+03  0.49343812226E+03  0.00000000000E+00 0. -1.
      99926    2    1    2    0    0  0.14210854715E-13  0.00000000000E+00 -0.39599973851E+03  0.59087650601E+03  0.43854219005E+03 0.  0.
      99925    2    3    3    0    0  0.80957347676E+02 -0.30436922551E+02 -0.31206037045E+03  0.41717036332E+03  0.26299988372E+03 0.  0.
         25    1    3    3    0    0 -0.80957347676E+02  0.30436922551E+02 -0.83939368060E+02  0.17370614269E+03  0.12509000000E+03 0.  0.
         25    1    4    4    0    0  0.52868819955E+02 -0.16788179630E+02 -0.21872836253E+03  0.25800496076E+03  0.12509000000E+03 0.  0.
         25    1    4    4    0    0  0.28088527721E+02 -0.13648742921E+02 -0.93332007913E+02  0.15916540257E+03  0.12509000000E+03 0.  0.
<mgrwt>
<rscale>  2 0.43854219E+03</rscale>
<asrwt>0</asrwt>
<pdfrwt beam="1">  1       21 0.14329174E-01 0.43854219E+03</pdfrwt>
<pdfrwt beam="2">  1       21 0.72564429E-01 0.43854219E+03</pdfrwt>
<totfact> 0.67618108E+04</totfact>
</mgrwt>
</event>
<event>
 7    0  0.4737014E-002  0.4353282E+03  0.7546771E-02  0.1032190E+00
         21   -1    0    0  502  501  0.00000000000E+00  0.00000000000E+00  0.76590412258E+02  0.76590412258E+02  0.00000000000E+00 0.  1.
         21   -1    0    0  501  502 -0.00000000000E+00 -0.00000000000E+00 -0.61858480544E+03  0.61858480544E+03  0.00000000000E+00 0.  1.
      99926    2    1    2    0    0 -0.88817841970E-15 -0.14210854715E-13 -0.54199439318E+03  0.69517521770E+03  0.43532822222E+03 0.  0.
      99925    2    3    3    0    0  0.26146372544E+01  0.93305921944E+02 -0.35769904525E+03  0.45366928657E+03  0.26297220996E+03 0.  0.
         25    1    4    4    0    0 -0.29677673746E+02  0.23916483333E+02 -0.14427138119E+03  0.19471646572E+03  0.12509000000E+03 0.  0.
         25    1    3    3    0    0 -0.26146372544E+01 -0.93305921944E+02 -0.18429534794E+03  0.24150593113E+03  0.12509000000E+03 0.  0.
         25    1    4    4    0    0  0.32292311001E+02  0.69389438611E+02 -0.21342766406E+03  0.25895282085E+03  0.12509000000E+03 0.  0.
<mgrwt>
<rscale>  2 0.43532822E+03</rscale>
<asrwt>0</asrwt>
<pdfrwt beam="1">  1       21 0.11263296E-01 0.43532822E+03</pdfrwt>
<pdfrwt beam="2">  1       21 0.90968352E-01 0.43532822E+03</pdfrwt>
<totfact> 0.62259765E+04</totfact>
</mgrwt>
</event>
<event>
 7    0  0.4737014E-002  0.4503541E+03  0.7546771E-02  0.1027616E+00
         21   -1    0    0  502  501  0.00000000000E+00  0.00000000000E+00  0.15778999718E+03  0.15778999718E+03  0.00000000000E+00 0.  1.
         21   -1    0    0  501  502 -0.00000000000E+00 -0.00000000000E+00 -0.32134302304E+03  0.32134302304E+03  0.00000000000E+00 0.  1.
      99926    2    1    2    0    0 -0.14210854715E-13  0.00000000000E+00 -0.16355302585E+03  0.47913302022E+03  0.45035414820E+03 0.  0.
      99925    2    3    3    0    0  0.10831906243E+03 -0.74878561408E+01 -0.97681678686E+02  0.30087581909E+03  0.26305030106E+03 0.  0.
         25    1    4    4    0    0  0.89070071587E+02 -0.10111396715E+02 -0.28148521383E+02  0.15644668533E+03  0.12509000000E+03 0.  0.
         25    1    4    4    0    0  0.19248990842E+02  0.26235405741E+01 -0.69533157303E+02  0.14442913376E+03  0.12509000000E+03 0.  0.
         25    1    3    3    0    0 -0.10831906243E+03  0.74878561408E+01 -0.65871347168E+02  0.17825720112E+03  0.12509000000E+03 0.  0.
<mgrwt>
<rscale>  2 0.45035415E+03</rscale>
<asrwt>0</asrwt>
<pdfrwt beam="1">  1       21 0.23204412E-01 0.45035415E+03</pdfrwt>
<pdfrwt beam="2">  1       21 0.47256326E-01 0.45035415E+03</pdfrwt>
<totfact> 0.69283255E+04</totfact>
</mgrwt>
</event>
<event>
 7    0  0.4737014E-002  0.4516776E+03  0.7546771E-02  0.1027223E+00
         21   -1    0    0  502  501  0.00000000000E+00  0.00000000000E+00  0.47298882176E+03  0.47298882176E+03  0.00000000000E+00 0.  1.
         21   -1    0    0  501  502 -0.00000000000E+00 -0.00000000000E+00 -0.10783166017E+03  0.10783166017E+03  0.00000000000E+00 0.  1.
      99926    2    1    2    0    0  0.00000000000E+00  0.00000000000E+00  0.36515716159E+03  0.58082048192E+03  0.45167762792E+03 0.  0.
      99925    2    3    3    0    0 -0.85673348896E+02 -0.51484977034E+02  0.17172362546E+03  0.32971359916E+03  0.26311865833E+03 0.  0.
         25    1    4    4    0    0 -0.42912574178E+02 -0.48477292328E+02  0.12832683246E+03  0.19054348828E+03  0.12509000000E+03 0.  0.
         25    1    4    4    0    0 -0.42760774718E+02 -0.30076847058E+01  0.43396793001E+02  0.13917011089E+03  0.12509000000E+03 0.  0.
         25    1    3    3    0    0  0.85673348896E+02  0.51484977034E+02  0.19343353613E+03  0.25110688276E+03  0.12509000000E+03 0.  0.
<mgrwt>
<rscale>  2 0.45167763E+03</rscale>
<asrwt>0</asrwt>
<pdfrwt beam="1">  1       21 0.69557179E-01 0.45167763E+03</pdfrwt>
<pdfrwt beam="2">  1       21 0.15857597E-01 0.45167763E+03</pdfrwt>
<totfact> 0.61473371E+04</totfact>
</mgrwt>
</event>
<event>
 7    0  0.4737014E-002  0.4509154E+03  0.7546771E-02  0.1027449E+00
         21   -1    0    0  502  501  0.00000000000E+00  0.00000000000E+00  0.17042141982E+03  0.17042141982E+03  0.00000000000E+00 0. -1.
         21   -1    0    0  501  502 -0.00000000000E+00 -0.00000000000E+00 -0.29826754347E+03  0.29826754347E+03  0.00000000000E+00 0. -1.
      99926    2    1    2    0    0  0.00000000000E+00  0.00000000000E+00 -0.12784612365E+03  0.46868896329E+03  0.45091541666E+03 0.  0.
      99925    2    3    3    0    0 -0.71206281939E+02 -0.67048252967E+02 -0.13157193495E+03  0.30985825914E+03  0.26293566490E+03 0.  0.
         25    1    3    3    0    0  0.71206281939E+02  0.67048252967E+02  0.37258112966E+01  0.15883070416E+03  0.12509000000E+03 0.  0.
         25    1    4    4    0    0 -0.68429388902E+02 -0.48159181661E+02 -0.47022704087E+02  0.15767222597E+03  0.12509000000E+03 0.  0.
         25    1    4    4    0    0 -0.27768930373E+01 -0.18889071307E+02 -0.84549230865E+02  0.15218603316E+03  0.12509000000E+03 0.  0.
<mgrwt>
<rscale>  2 0.45091542E+03</rscale>
<asrwt>0</asrwt>
<pdfrwt beam="1">  1       21 0.25061974E-01 0.45091542E+03</pdfrwt>
<pdfrwt beam="2">  1       21 0.43862874E-01 0.45091542E+03</pdfrwt>
<totfact> 0.69766924E+04</totfact>
</mgrwt>
</event>
<event>
 7    0  0.4737014E-002  0.4501550E+03  0.7546771E-02  0.1027676E+00
         21   -1    0    0  502  501  0.00000000000E+00  0.00000000000E+00  0.89273815760E+02  0.89273815760E+02  0.00000000000E+00 0. -1.
         21   -1    0    0  501  502 -0.00000000000E+00 -0.00000000000E+00 -0.56746623846E+03  0.56746623846E+03  0.00000000000E+00 0. -1.
      99926    2    1    2    0    0  0.00000000000E+00  0.00000000000E+00 -0.47819242270E+03  0.65674005422E+03  0.45015497963E+03 0.  0.
      99925    2    3    3    0    0 -0.99884625939E+02  0.32596997039E+02 -0.26229221475E+03  0.38600049189E+03  0.26298226387E+03 0.  0.
         25    1    4    4    0    0 -0.39013498611E+02 -0.15567957776E+02 -0.91806147316E+02  0.16074915604E+03  0.12509000000E+03 0.  0.
         25    1    4    4    0    0 -0.60871127329E+02  0.48164954815E+02 -0.17048606743E+03  0.22525133585E+03  0.12509000000E+03 0.  0.
         25    1    3    3    0    0  0.99884625939E+02 -0.32596997039E+02 -0.21590020795E+03  0.27073956233E+03  0.12509000000E+03 0.  0.
<mgrwt>
<rscale>  2 0.45015498E+03</rscale>
<asrwt>0</asrwt>
<pdfrwt beam="1">  1       21 0.13128503E-01 0.45015498E+03</pdfrwt>
<pdfrwt beam="2">  1       21 0.83450914E-01 0.45015498E+03</pdfrwt>
<totfact> 0.57479707E+04</totfact>
</mgrwt>
</event>
<event>
 7    0  0.4737014E-002  0.4489016E+03  0.7546771E-02  0.1028050E+00
         21   -1    0    0  502  501  0.00000000000E+00  0.00000000000E+00  0.25663236573E+03  0.25663236573E+03  0.00000000000E+00 0. -1.
         21   -1    0    0  501  502 -0.00000000000E+00 -0.00000000000E+00 -0.19630476230E+03  0.19630476230E+03  0.00000000000E+00 0. -1.
      99926    2    1    2    0    0  0.00000000000E+00  0.17763568394E-14  0.60327603436E+02  0.45293712803E+03  0.44890157297E+03 0.  0.
      99925    2    3    3    0    0  0.10543555634E+03 -0.11151906205E+02  0.57996237535E+02  0.28894333266E+03  0.26245697622E+03 0.  0.
         25    1    3    3    0    0 -0.10543555634E+03  0.11151906205E+02  0.23313659006E+01  0.16399379537E+03  0.12509000000E+03 0.  0.
         25    1    4    4    0    0  0.69007116977E+02 -0.42517131683E+02  0.30448214868E+02  0.15213247703E+03  0.12509000000E+03 0.  0.
         25    1    4    4    0    0  0.36428439366E+02  0.31365225478E+02  0.27548022667E+02  0.13681085562E+03  0.12509000000E+03 0.  0.
<mgrwt>
<rscale>  2 0.44890157E+03</rscale>
<asrwt>0</asrwt>
<pdfrwt beam="1">  1       21 0.37740054E-01 0.44890157E+03</pdfrwt>
<pdfrwt beam="2">  1       21 0.28868347E-01 0.44890157E+03</pdfrwt>
<totfact> 0.72143670E+04</totfact>
</mgrwt>
</event>
<event>
 7    0  0.4737014E-002  0.4523693E+03  0.7546771E-02  0.1027018E+00
         21   -1    0    0  502  501  0.00000000000E+00  0.00000000000E+00  0.33473018100E+03  0.33473018100E+03  0.00000000000E+00 0. -1.
         21   -1    0    0  501  502 -0.00000000000E+00 -0.00000000000E+00 -0.15283801605E+03  0.15283801605E+03  0.00000000000E+00 0. -1.
      99926    2    1    2    0    0  0.00000000000E+00  0.00000000000E+00  0.18189216494E+03  0.48756819705E+03  0.45236930389E+03 0.  0.
      99925    2    3    3    0    0  0.95680784592E+02  0.28437693167E+02  0.16640395860E+03  0.32678602276E+03  0.26293594714E+03 0.  0.
         25    1    4    4    0    0  0.42834900338E+02 -0.17051923342E+02  0.50539547721E+02  0.14257401853E+03  0.12509000000E+03 0.  0.
         25    1    3    3    0    0 -0.95680784592E+02 -0.28437693167E+02  0.15488206342E+02  0.16078217429E+03  0.12509000000E+03 0.  0.
         25    1    4    4    0    0  0.52845884254E+02  0.45489616509E+02  0.11586441088E+03  0.18421200423E+03  0.12509000000E+03 0.  0.
<mgrwt>
<rscale>  2 0.45236930E+03</rscale>
<asrwt>0</asrwt>
<pdfrwt beam="1">  1       21 0.49225027E-01 0.45236930E+03</pdfrwt>
<pdfrwt beam="2">  1       21 0.22476179E-01 0.45236930E+03</pdfrwt>
<totfact> 0.67552987E+04</totfact>
</mgrwt>
</event>
<event>
 7    0  0.4737014E-002  0.4551726E+03  0.7546771E-02  0.1026191E+00
         21   -1    0    0  502  501  0.00000000000E+00  0.00000000000E+00  0.16250840778E+03  0.16250840778E+03  0.00000000000E+00 0. -1.
         21   -1    0    0  501  502 -0.00000000000E+00 -0.00000000000E+00 -0.31872524077E+03  0.31872524077E+03  0.00000000000E+00 0. -1.
      99926    2    1    2    0    0  0.00000000000E+00  0.00000000000E+00 -0.15621683299E+03  0.48123364855E+03  0.45517263273E+03 0.  0.
      99925    2    3    3    0    0 -0.22083574503E+02  0.11097887362E+03 -0.10650923315E+03  0.30538613440E+03  0.26289252496E+03 0.  0.
         25    1    3    3    0    0  0.22083574503E+02 -0.11097887362E+03 -0.49707599841E+02  0.17584751416E+03  0.12509000000E+03 0.  0.
         25    1    4    4    0    0 -0.24685964216E+01  0.25057918016E+02 -0.78537428405E+02  0.14983200254E+03  0.12509000000E+03 0.  0.
         25    1    4    4    0    0 -0.19614978081E+02  0.85920955607E+02 -0.27971804748E+02  0.15555413186E+03  0.12509000000E+03 0.  0.
<mgrwt>
<rscale>  2 0.45517263E+03</rscale>
<asrwt>0</asrwt>
<pdfrwt beam="1">  1       21 0.23898295E-01 0.45517263E+03</pdfrwt>
<pdfrwt beam="2">  1       21 0.46871359E-01 0.45517263E+03</pdfrwt>
<totfact> 0.66519210E+04</totfact>
</mgrwt>
</event>
<event>
 7    0  0.4737014E-002  0.4585436E+03  0.7546771E-02  0.1025204E+00
         21   -1    0    0  502  501  0.00000000000E+00  0.00000000000E+00  0.99649822018E+02  0.99649822018E+02  0.00000000000E+00 0.  1.
         21   -1    0    0  501  502 -0.00000000000E+00 -0.00000000000E+00 -0.52750272835E+03  0.52750272835E+03  0.00000000000E+00 0.  1.
      99926    2    1    2    0    0  0.00000000000E+00 -0.14210854715E-13 -0.42785290633E+03  0.62715255037E+03  0.45854357697E+03 0.  0.
      99925    2    3    3    0    0 -0.55813609274E+02  0.94411649270E+02 -0.32220561839E+03  0.43008003568E+03  0.26291378447E+03 0.  0.
         25    1    4    4    0    0  0.61970856388E+00  0.61052065985E+02 -0.12210999819E+03  0.18516505760E+03  0.12509000000E+03 0.  0.
         25    1    4    4    0    0 -0.56433317838E+02  0.33359583286E+02 -0.20009562021E+03  0.24491497807E+03  0.12509000000E+03 0.  0.
         25    1    3    3    0    0  0.55813609274E+02 -0.94411649270E+02 -0.10564728794E+03  0.19707251469E+03  0.12509000000E+03 0.  0.
<mgrwt>
<rscale>  2 0.45854358E+03</rscale>
<asrwt>0</asrwt>
<pdfrwt beam="1">  1       21 0.14654385E-01 0.45854358E+03</pdfrwt>
<pdfrwt beam="2">  1       21 0.77573932E-01 0.45854358E+03</pdfrwt>
<totfact> 0.55469131E+04</totfact>
</mgrwt>
</event>
<event>
 7    0  0.4737014E-002  0.4461201E+03  0.7546771E-02  0.1028885E+00
         21   -1    0    0  502  501  0.00000000000E+00  0.00000000000E+00  0.33872464077E+03  0.33872464077E+03  0.00000000000E+00 0. -1.
         21   -1    0    0  501  502 -0.00000000000E+00 -0.00000000000E+00 -0.14689152694E+03  0.14689152694E+03  0.00000000000E+00 0. -1.
      99926    2    1    2    0    0  0.00000000000E+00  0.35527136788E-14  0.19183311384E+03  0.48561616771E+03  0.44612007215E+03 0.  0.
      99925    2    3    3    0    0 -0.97256280599E+02  0.10286375228E+02  0.81345135282E+02  0.29217445779E+03  0.26302906516E+03 0.  0.
         25    1    4    4    0    0 -0.56348586521E+02 -0.34410445004E+02  0.35721868324E+02  0.14588626359E+03  0.12509000000E+03 0.  0.
         25    1    4    4    0    0 -0.40907694078E+02  0.44696820232E+02  0.45623266958E+02  0.14628819420E+03  0.12509000000E+03 0.  0.
         25    1    3    3    0    0  0.97256280599E+02 -0.10286375228E+02  0.11048797856E+03  0.19344170992E+03  0.12509000000E+03 0.  0.
<mgrwt>
<rscale>  2 0.44612007E+03</rscale>
<asrwt>0</asrwt>
<pdfrwt beam="1">  1       21 0.49812447E-01 0.44612007E+03</pdfrwt>
<pdfrwt beam="2">  1       21 0.21601695E-01 0.44612007E+03</pdfrwt>
<totfact> 0.71180559E+04</totfact>
</mgrwt>
</event>
<event>
 7    0  0.4737014E-002  0.4854439E+03  0.7546771E-02  0.1017650E+00
         21   -1    0    0  502  501  0.00000000000E+00  0.00000000000E+00  0.20917903738E+04  0.20917903738E+04  0.00000000000E+00 0. -1.
         21   -1    0    0  501  502 -0.00000000000E+00 -0.00000000000E+00 -0.28164361743E+02  0.28164361743E+02  0.00000000000E+00 0. -1.
      99926    2    1    2    0    0 -0.17763568394E-14 -0.88817841970E-15  0.20636260121E+04  0.21199547356E+04  0.48544388256E+03 0.  0.
      99925    2    3    3    0    0  0.13735411781E+02  0.60149129219E+01  0.18731331165E+04  0.18915693330E+04  0.26302476867E+03 0.  0.
         25    1    3    3    0    0 -0.13735411781E+02 -0.60149129219E+01  0.19049289563E+03  0.22838540255E+03  0.12509000000E+03 0.  0.
         25    1    4    4    0    0  0.32518695287E+02  0.22834995904E+02  0.11251800977E+04  0.11328091909E+04  0.12509000000E+03 0.  0.
         25    1    4    4    0    0 -0.18783283507E+02 -0.16820082982E+02  0.74795301879E+03  0.75876014217E+03  0.12509000000E+03 0.  0.
<mgrwt>
<rscale>  2 0.48544388E+03</rscale>
<asrwt>0</asrwt>
<pdfrwt beam="1">  1       21 0.30761613E+00 0.48544388E+03</pdfrwt>
<pdfrwt beam="2">  1       21 0.41418193E-02 0.48544388E+03</pdfrwt>
<totfact> 0.94178608E+03</totfact>
</mgrwt>
</event>
<event>
 7    0  0.4737014E-002  0.4561431E+03  0.7546771E-02  0.1025906E+00
         21   -1    0    0  502  501  0.00000000000E+00  0.00000000000E+00  0.44885032010E+02  0.44885032010E+02  0.00000000000E+00 0. -1.
         21   -1    0    0  501  502 -0.00000000000E+00 -0.00000000000E+00 -0.11588857290E+04  0.11588857290E+04  0.00000000000E+00 0. -1.
      99926    2    1    2    0    0  0.00000000000E+00  0.00000000000E+00 -0.11140006970E+04  0.12037707610E+04  0.45614306108E+03 0.  0.
      99925    2    3    3    0    0 -0.81983241611E+02 -0.62270182382E+02 -0.83033891625E+03  0.87710527237E+03  0.26315796674E+03 0.  0.
         25    1    4    4    0    0 -0.21494639283E+02  0.17790761166E+01 -0.43683604419E+03  0.45490484965E+03  0.12509000000E+03 0.  0.
         25    1    3    3    0    0  0.81983241611E+02  0.62270182382E+02 -0.28366178077E+03  0.32666548867E+03  0.12509000000E+03 0.  0.
         25    1    4    4    0    0 -0.60488602328E+02 -0.64049258499E+02 -0.39350287206E+03  0.42220042272E+03  0.12509000000E+03 0.  0.
<mgrwt>
<rscale>  2 0.45614306E+03</rscale>
<asrwt>0</asrwt>
<pdfrwt beam="1">  1       21 0.66007405E-02 0.45614306E+03</pdfrwt>
<pdfrwt beam="2">  1       21 0.17042436E+00 0.45614306E+03</pdfrwt>
<totfact> 0.31752993E+04</totfact>
</mgrwt>
</event>
<event>
 7    0  0.4737014E-002  0.4537999E+03  0.7546771E-02  0.1026595E+00
         21   -1    0    0  502  501  0.00000000000E+00  0.00000000000E+00  0.30663244840E+03  0.30663244840E+03  0.00000000000E+00 0. -1.
         21   -1    0    0  501  502 -0.00000000000E+00 -0.00000000000E+00 -0.16790002894E+03  0.16790002894E+03  0.00000000000E+00 0. -1.
      99926    2    1    2    0    0  0.00000000000E+00 -0.26645352591E-14  0.13873241946E+03  0.47453247733E+03  0.45379994253E+03 0.  0.
      99925    2    3    3    0    0 -0.11179649896E+03  0.48980611130E+01  0.93165449857E+02  0.30061782873E+03  0.26299967627E+03 0.  0.
         25    1    3    3    0    0  0.11179649896E+03 -0.48980611130E+01  0.45566969602E+02  0.17391464861E+03  0.12509000000E+03 0.  0.
         25    1    4    4    0    0 -0.45852635201E+02  0.40277790540E+02  0.33823025753E+02  0.14323501575E+03  0.12509000000E+03 0.  0.
         25    1    4    4    0    0 -0.65943863757E+02 -0.35379729427E+02  0.59342424104E+02  0.15738281298E+03  0.12509000000E+03 0.  0.
<mgrwt>
<rscale>  2 0.45379994E+03</rscale>
<asrwt>0</asrwt>
<pdfrwt beam="1">  1       21 0.45093007E-01 0.45379994E+03</pdfrwt>
<pdfrwt beam="2">  1       21 0.24691181E-01 0.45379994E+03</pdfrwt>
<totfact> 0.67743165E+04</totfact>
</mgrwt>
</event>
<event>
 7    0  0.4737014E-002  0.4519999E+03  0.7546771E-02  0.1027127E+00
         21   -1    0    0  502  501  0.00000000000E+00  0.00000000000E+00  0.29798536135E+03  0.29798536135E+03  0.00000000000E+00 0.  1.
         21   -1    0    0  501  502 -0.00000000000E+00 -0.00000000000E+00 -0.17140430334E+03  0.17140430334E+03  0.00000000000E+00 0.  1.
      99926    2    1    2    0    0  0.00000000000E+00  0.00000000000E+00  0.12658105801E+03  0.46938966469E+03  0.45199988172E+03 0.  0.
      99925    2    3    3    0    0 -0.86155985171E+01 -0.77712749167E+02 -0.59169667288E+00  0.27462334945E+03  0.26325678345E+03 0.  0.
         25    1    4    4    0    0 -0.23187183428E+02 -0.36066685099E+02 -0.36549483476E+02  0.13719265320E+03  0.12509000000E+03 0.  0.
         25    1    4    4    0    0  0.14571584911E+02 -0.41646064068E+02  0.35957786803E+02  0.13743069625E+03  0.12509000000E+03 0.  0.
         25    1    3    3    0    0  0.86155985171E+01  0.77712749167E+02  0.12717275468E+03  0.19476631525E+03  0.12509000000E+03 0.  0.
<mgrwt>
<rscale>  2 0.45199988E+03</rscale>
<asrwt>0</asrwt>
<pdfrwt beam="1">  1       21 0.43821377E-01 0.45199988E+03</pdfrwt>
<pdfrwt beam="2">  1       21 0.25206515E-01 0.45199988E+03</pdfrwt>
<totfact> 0.69111520E+04</totfact>
</mgrwt>
</event>
<event>
 7    0  0.4737014E-002  0.4568636E+03  0.7546771E-02  0.1025695E+00
         21   -1    0    0  502  501  0.00000000000E+00  0.00000000000E+00  0.34926518000E+02  0.34926518000E+02  0.00000000000E+00 0. -1.
         21   -1    0    0  501  502 -0.00000000000E+00 -0.00000000000E+00 -0.14940245908E+04  0.14940245908E+04  0.00000000000E+00 0. -1.
      99926    2    1    2    0    0  0.00000000000E+00  0.00000000000E+00 -0.14590980728E+04  0.15289511088E+04  0.45686355409E+03 0.  0.
      99925    2    3    3    0    0  0.85405980743E+02  0.76666546290E+02 -0.89890811023E+03  0.94360314124E+03  0.26301930851E+03 0.  0.
         25    1    4    4    0    0  0.52591646369E+02 -0.17235406937E+01 -0.41769423784E+03  0.43918656205E+03  0.12509000000E+03 0.  0.
         25    1    4    4    0    0  0.32814334374E+02  0.78390086984E+02 -0.48121387238E+03  0.50441657918E+03  0.12509000000E+03 0.  0.
         25    1    3    3    0    0 -0.85405980743E+02 -0.76666546290E+02 -0.56018996258E+03  0.58534796757E+03  0.12509000000E+03 0.  0.
<mgrwt>
<rscale>  2 0.45686355E+03</rscale>
<asrwt>0</asrwt>
<pdfrwt beam="1">  1       21 0.51362516E-02 0.45686355E+03</pdfrwt>
<pdfrwt beam="2">  1       21 0.21970954E+00 0.45686355E+03</pdfrwt>
<totfact> 0.22747385E+04</totfact>
</mgrwt>
</event>
<event>
 7    0  0.4737014E-002  0.4546447E+03  0.7546771E-02  0.1026346E+00
         21   -1    0    0  502  501  0.00000000000E+00  0.00000000000E+00  0.10734681643E+03  0.10734681643E+03  0.00000000000E+00 0. -1.
         21   -1    0    0  501  502 -0.00000000000E+00 -0.00000000000E+00 -0.48138791481E+03  0.48138791481E+03  0.00000000000E+00 0. -1.
      99926    2    1    2    0    0  0.71054273576E-14  0.00000000000E+00 -0.37404109838E+03  0.58873473123E+03  0.45464474096E+03 0.  0.
      99925    2    3    3    0    0 -0.59550341346E+02 -0.31582694201E+02 -0.35259159560E+03  0.44502913288E+03  0.26303305135E+03 0.  0.
         25    1    4    4    0    0 -0.80162944434E+01  0.54935629621E+01 -0.21251456062E+03  0.24678814150E+03  0.12509000000E+03 0.  0.
         25    1    4    4    0    0 -0.51534046902E+02 -0.37076257163E+02 -0.14007703498E+03  0.19824099138E+03  0.12509000000E+03 0.  0.
         25    1    3    3    0    0  0.59550341346E+02  0.31582694201E+02 -0.21449502783E+02  0.14370559835E+03  0.12509000000E+03 0.  0.
<mgrwt>
<rscale>  2 0.45464474E+03</rscale>
<asrwt>0</asrwt>
<pdfrwt beam="1">  1       21 0.15786297E-01 0.45464474E+03</pdfrwt>
<pdfrwt beam="2">  1       21 0.70792339E-01 0.45464474E+03</pdfrwt>
<totfact> 0.59544103E+04</totfact>
</mgrwt>
</event>
<event>
 7    0  0.4737014E-002  0.4597635E+03  0.7546771E-02  0.1024850E+00
         21   -1    0    0  502  501  0.00000000000E+00  0.00000000000E+00  0.61523298267E+02  0.61523298267E+02  0.00000000000E+00 0. -1.
         21   -1    0    0  501  502 -0.00000000000E+00 -0.00000000000E+00 -0.85895304760E+03  0.85895304760E+03  0.00000000000E+00 0. -1.
      99926    2    1    2    0    0  0.00000000000E+00  0.00000000000E+00 -0.79742974933E+03  0.92047634586E+03  0.45976352419E+03 0.  0.
      99925    2    3    3    0    0  0.79145208324E+02 -0.30154649179E+02 -0.33561438016E+03  0.43458107919E+03  0.26277449525E+03 0.  0.
         25    1    4    4    0    0  0.53316798690E+02 -0.53572483184E+02 -0.18284566866E+03  0.23407848817E+03  0.12509000000E+03 0.  0.
         25    1    3    3    0    0 -0.79145208324E+02  0.30154649179E+02 -0.46181536917E+03  0.48589526667E+03  0.12509000000E+03 0.  0.
         25    1    4    4    0    0  0.25828409634E+02  0.23417834005E+02 -0.15276871150E+03  0.20050259102E+03  0.12509000000E+03 0.  0.
<mgrwt>
<rscale>  2 0.45976352E+03</rscale>
<asrwt>0</asrwt>
<pdfrwt beam="1">  1       21 0.90475445E-02 0.45976352E+03</pdfrwt>
<pdfrwt beam="2">  1       21 0.12631662E+00 0.45976352E+03</pdfrwt>
<totfact> 0.40817050E+04</totfact>
</mgrwt>
</event>
<event>
 7    0  0.4737014E-002  0.4602514E+03  0.7546771E-02  0.1024708E+00
         21   -1    0    0  502  501  0.00000000000E+00  0.00000000000E+00  0.15447877700E+03  0.15447877700E+03  0.00000000000E+00 0.  1.
         21   -1    0    0  501  502 -0.00000000000E+00 -0.00000000000E+00 -0.34281633929E+03  0.34281633929E+03  0.00000000000E+00 0.  1.
      99926    2    1    2    0    0 -0.53290705182E-14  0.35527136788E-14 -0.18833756230E+03  0.49729511629E+03  0.46025144792E+03 0.  0.
      99925    2    3    3    0    0  0.90314443770E+01 -0.11595275805E+02 -0.24474997995E+03  0.35928828177E+03  0.26262044726E+03 0.  0.
         25    1    4    4    0    0 -0.24441667787E+02  0.17709929106E+02 -0.14017866629E+03  0.19028558352E+03  0.12509000000E+03 0.  0.
         25    1    4    4    0    0  0.33473112164E+02 -0.29305204912E+02 -0.10457131366E+03  0.16900269824E+03  0.12509000000E+03 0.  0.
         25    1    3    3    0    0 -0.90314443770E+01  0.11595275805E+02  0.56412417658E+02  0.13800683452E+03  0.12509000000E+03 0.  0.
<mgrwt>
<rscale>  2 0.46025145E+03</rscale>
<asrwt>0</asrwt>
<pdfrwt beam="1">  1       21 0.22717468E-01 0.46025145E+03</pdfrwt>
<pdfrwt beam="2">  1       21 0.50414167E-01 0.46025145E+03</pdfrwt>
<totfact> 0.62801845E+04</totfact>
</mgrwt>
</event>
<event>
 7    0  0.4737014E-002  0.4540293E+03  0.7546771E-02  0.1026527E+00
         21   -1    0    0  502  501  0.00000000000E+00  0.00000000000E+00  0.19247865726E+03  0.19247865726E+03  0.00000000000E+00 0. -1.
         21   -1    0    0  501  502 -0.00000000000E+00 -0.00000000000E+00 -0.26774739820E+03  0.26774739820E+03  0.00000000000E+00 0. -1.
      99926    2    1    2    0    0  0.00000000000E+00 -0.35527136788E-14 -0.75268740938E+02  0.46022605546E+03  0.45402933690E+03 0.  0.
      99925    2    3    3    0    0  0.29669599783E+02 -0.24752900150E+02  0.59350464576E+02  0.27244205772E+03  0.26307642606E+03 0.  0.
         25    1    4    4    0    0  0.84806122780E+01  0.27283824752E+02  0.20700323348E+02  0.12997053268E+03  0.12509000000E+03 0.  0.
         25    1    3    3    0    0 -0.29669599783E+02  0.24752900150E+02 -0.13461920551E+03  0.18778399775E+03  0.12509000000E+03 0.  0.
         25    1    4    4    0    0  0.21188987506E+02 -0.52036724901E+02  0.38650141228E+02  0.14247152504E+03  0.12509000000E+03 0.  0.
<mgrwt>
<rscale>  2 0.45402934E+03</rscale>
<asrwt>0</asrwt>
<pdfrwt beam="1">  1       21 0.28305685E-01 0.45402934E+03</pdfrwt>
<pdfrwt beam="2">  1       21 0.39374617E-01 0.45402934E+03</pdfrwt>
<totfact> 0.68694213E+04</totfact>
</mgrwt>
</event>
<event>
 7    0  0.4737014E-002  0.5296271E+03  0.7546771E-02  0.1006323E+00
         21   -1    0    0  502  501  0.00000000000E+00  0.00000000000E+00  0.86368398787E+02  0.86368398787E+02  0.00000000000E+00 0.  1.
         21   -1    0    0  501  502 -0.00000000000E+00 -0.00000000000E+00 -0.81194311385E+03  0.81194311385E+03  0.00000000000E+00 0.  1.
      99926    2    1    2    0    0  0.00000000000E+00 -0.71054273576E-14 -0.72557471506E+03  0.89831151263E+03  0.52962713922E+03 0.  0.
      99925    2    3    3    0    0  0.49011890032E+02  0.50311761738E+02 -0.70202395778E+03  0.75293068514E+03  0.26293257806E+03 0.  0.
         25    1    4    4    0    0  0.28721007985E+02  0.51618182825E+02 -0.28032680017E+03  0.31260191313E+03  0.12509000000E+03 0.  0.
         25    1    4    4    0    0  0.20290882047E+02 -0.13064210877E+01 -0.42169715761E+03  0.44032877202E+03  0.12509000000E+03 0.  0.
         25    1    3    3    0    0 -0.49011890032E+02 -0.50311761738E+02 -0.23550757284E+02  0.14538082749E+03  0.12509000000E+03 0.  0.
<mgrwt>
<rscale>  2 0.52962714E+03</rscale>
<asrwt>0</asrwt>
<pdfrwt beam="1">  1       21 0.12701235E-01 0.52962714E+03</pdfrwt>
<pdfrwt beam="2">  1       21 0.11940340E+00 0.52962714E+03</pdfrwt>
<totfact> 0.25102312E+04</totfact>
</mgrwt>
</event>
<event>
 7    0  0.4737014E-002  0.4397286E+03  0.7546771E-02  0.1030830E+00
         21   -1    0    0  502  501  0.00000000000E+00  0.00000000000E+00  0.33974098037E+03  0.33974098037E+03  0.00000000000E+00 0.  1.
         21   -1    0    0  501  502 -0.00000000000E+00 -0.00000000000E+00 -0.14228579713E+03  0.14228579713E+03  0.00000000000E+00 0.  1.
      99926    2    1    2    0    0  0.00000000000E+00 -0.14210854715E-13  0.19745518325E+03  0.48202677750E+03  0.43972862636E+03 0.  0.
      99925    2    3    3    0    0 -0.11508104677E+02  0.91976958079E+02  0.16157095113E+03  0.32225386520E+03  0.26296422589E+03 0.  0.
         25    1    3    3    0    0  0.11508104677E+02 -0.91976958079E+02  0.35884232116E+02  0.15977291230E+03  0.12509000000E+03 0.  0.
         25    1    4    4    0    0 -0.30125829732E+02  0.12295115784E+02  0.79094503355E+02  0.15153278210E+03  0.12509000000E+03 0.  0.
         25    1    4    4    0    0  0.18617725055E+02  0.79681842294E+02  0.82476447778E+02  0.17072108310E+03  0.12509000000E+03 0.  0.
<mgrwt>
<rscale>  2 0.43972863E+03</rscale>
<asrwt>0</asrwt>
<pdfrwt beam="1">  1       21 0.49961909E-01 0.43972863E+03</pdfrwt>
<pdfrwt beam="2">  1       21 0.20924382E-01 0.43972863E+03</pdfrwt>
<totfact> 0.75272781E+04</totfact>
</mgrwt>
</event>
<event>
 7    0  0.4737014E-002  0.4524774E+03  0.7546771E-02  0.1026986E+00
         21   -1    0    0  502  501  0.00000000000E+00  0.00000000000E+00  0.76688135091E+03  0.76688135091E+03  0.00000000000E+00 0.  1.
         21   -1    0    0  501  502 -0.00000000000E+00 -0.00000000000E+00 -0.66742980250E+02  0.66742980250E+02  0.00000000000E+00 0.  1.
      99926    2    1    2    0    0  0.71054273576E-14  0.00000000000E+00  0.70013837066E+03  0.83362433117E+03  0.45247738887E+03 0.  0.
      99925    2    3    3    0    0  0.55419436941E+02  0.68033210242E+02  0.31693120994E+03  0.42107728195E+03  0.26298451257E+03 0.  0.
         25    1    4    4    0    0 -0.12216861027E+02  0.35558808479E+02  0.16526321204E+03  0.21064927701E+03  0.12509000000E+03 0.  0.
         25    1    3    3    0    0 -0.55419436941E+02 -0.68033210242E+02  0.38320716073E+03  0.41254704922E+03  0.12509000000E+03 0.  0.
         25    1    4    4    0    0  0.67636297968E+02  0.32474401763E+02  0.15166799790E+03  0.21042800493E+03  0.12509000000E+03 0.  0.
<mgrwt>
<rscale>  2 0.45247739E+03</rscale>
<asrwt>0</asrwt>
<pdfrwt beam="1">  1       21 0.11277666E+00 0.45247739E+03</pdfrwt>
<pdfrwt beam="2">  1       21 0.98151446E-02 0.45247739E+03</pdfrwt>
<totfact> 0.47106470E+04</totfact>
</mgrwt>
</event>
<event>
 7    0  0.4737014E-002  0.4517112E+03  0.7546771E-02  0.1027213E+00
         21   -1    0    0  502  501  0.00000000000E+00  0.00000000000E+00  0.49594381458E+03  0.49594381458E+03  0.00000000000E+00 0. -1.
         21   -1    0    0  501  502 -0.00000000000E+00 -0.00000000000E+00 -0.10285591360E+03  0.10285591360E+03  0.00000000000E+00 0. -1.
      99926    2    1    2    0    0  0.00000000000E+00  0.00000000000E+00  0.39308790098E+03  0.59879972818E+03  0.45171120927E+03 0.  0.
      99925    2    3    3    0    0  0.24344854902E+02 -0.71837378120E+02  0.14265284327E+03  0.30876782117E+03  0.26312440564E+03 0.  0.
         25    1    4    4    0    0  0.18856324704E+02 -0.26334404551E+02  0.26246813540E+02  0.13185395392E+03  0.12509000000E+03 0.  0.
         25    1    3    3    0    0 -0.24344854902E+02  0.71837378120E+02  0.25043505771E+03  0.29003190701E+03  0.12509000000E+03 0.  0.
         25    1    4    4    0    0  0.54885301976E+01 -0.45502973570E+02  0.11640602973E+03  0.17691386725E+03  0.12509000000E+03 0.  0.
<mgrwt>
<rscale>  2 0.45171121E+03</rscale>
<asrwt>0</asrwt>
<pdfrwt beam="1">  1       21 0.72932913E-01 0.45171121E+03</pdfrwt>
<pdfrwt beam="2">  1       21 0.15125870E-01 0.45171121E+03</pdfrwt>
<totfact> 0.60304063E+04</totfact>
</mgrwt>
</event>
<event>
 7    0  0.4737014E-002  0.4492231E+03  0.7546771E-02  0.1027954E+00
         21   -1    0    0  502  501  0.00000000000E+00  0.00000000000E+00  0.14339585709E+04  0.14339585709E+04  0.00000000000E+00 0.  1.
         21   -1    0    0  501  502 -0.00000000000E+00 -0.00000000000E+00 -0.35182563663E+02  0.35182563663E+02  0.00000000000E+00 0.  1.
      99926    2    1    2    0    0  0.14210854715E-13 -0.31086244690E-14  0.13987760072E+04  0.14691411346E+04  0.44922305689E+03 0.  0.
      99925    2    3    3    0    0 -0.73204153126E+02  0.36910727910E+01  0.62706248399E+03  0.68392667844E+03  0.26301306164E+03 0.  0.
         25    1    4    4    0    0 -0.27480228928E+02  0.20873795499E+02  0.22151743969E+03  0.25672624040E+03  0.12509000000E+03 0.  0.
         25    1    4    4    0    0 -0.45723924199E+02 -0.17182722708E+02  0.40554504430E+03  0.42720043804E+03  0.12509000000E+03 0.  0.
         25    1    3    3    0    0  0.73204153126E+02 -0.36910727910E+01  0.77171352324E+03  0.78521445612E+03  0.12509000000E+03 0.  0.
<mgrwt>
<rscale>  2 0.44922306E+03</rscale>
<asrwt>0</asrwt>
<pdfrwt beam="1">  1       21 0.21087622E+00 0.44922306E+03</pdfrwt>
<pdfrwt beam="2">  1       21 0.51739074E-02 0.44922306E+03</pdfrwt>
<totfact> 0.25678838E+04</totfact>
</mgrwt>
</event>
<event>
 7    0  0.4737014E-002  0.4528742E+03  0.7546771E-02  0.1026868E+00
         21   -1    0    0  502  501  0.00000000000E+00  0.00000000000E+00  0.11226054101E+03  0.11226054101E+03  0.00000000000E+00 0. -1.
         21   -1    0    0  501  502 -0.00000000000E+00 -0.00000000000E+00 -0.45673901541E+03  0.45673901541E+03  0.00000000000E+00 0. -1.
      99926    2    1    2    0    0 -0.88817841970E-15  0.14210854715E-13 -0.34447847440E+03  0.56899955641E+03  0.45287423848E+03 0.  0.
      99925    2    3    3    0    0 -0.19763576632E+01  0.10909558860E+03 -0.18836453914E+03  0.34112936898E+03  0.26264480450E+03 0.  0.
         25    1    4    4    0    0 -0.17857100015E+02  0.41216706468E+02 -0.13173764939E+03  0.18713633874E+03  0.12509000000E+03 0.  0.
         25    1    4    4    0    0  0.15880742352E+02  0.67878882131E+02 -0.56626889759E+02  0.15399303023E+03  0.12509000000E+03 0.  0.
         25    1    3    3    0    0  0.19763576632E+01 -0.10909558860E+03 -0.15611393525E+03  0.22787018744E+03  0.12509000000E+03 0.  0.
<mgrwt>
<rscale>  2 0.45287424E+03</rscale>
<asrwt>0</asrwt>
<pdfrwt beam="1">  1       21 0.16508903E-01 0.45287424E+03</pdfrwt>
<pdfrwt beam="2">  1       21 0.67167502E-01 0.45287424E+03</pdfrwt>
<totfact> 0.61658176E+04</totfact>
</mgrwt>
</event>
<event>
 7    0  0.4737014E-002  0.4580844E+03  0.7546771E-02  0.1025338E+00
         21   -1    0    0  502  501  0.00000000000E+00  0.00000000000E+00  0.38233444616E+03  0.38233444616E+03  0.00000000000E+00 0.  1.
         21   -1    0    0  501  502 -0.00000000000E+00 -0.00000000000E+00 -0.13721056697E+03  0.13721056697E+03  0.00000000000E+00 0.  1.
      99926    2    1    2    0    0 -0.71054273576E-14 -0.33306690739E-15  0.24512387920E+03  0.51954501313E+03  0.45808438580E+03 0.  0.
      99925    2    3    3    0    0  0.52799737023E+02  0.64228673694E+00  0.36712958610E+02  0.27080650649E+03  0.26305911478E+03 0.  0.
         25    1    4    4    0    0  0.64043411655E+02  0.33139371115E+01  0.24366265442E+01  0.14059155737E+03  0.12509000000E+03 0.  0.
         25    1    3    3    0    0 -0.52799737023E+02 -0.64228673694E+00  0.20841092059E+03  0.24873850663E+03  0.12509000000E+03 0.  0.
         25    1    4    4    0    0 -0.11243674632E+02 -0.26716503746E+01  0.34276332065E+02  0.13021494912E+03  0.12509000000E+03 0.  0.
<mgrwt>
<rscale>  2 0.45808439E+03</rscale>
<asrwt>0</asrwt>
<pdfrwt beam="1">  1       21 0.56225654E-01 0.45808439E+03</pdfrwt>
<pdfrwt beam="2">  1       21 0.20178025E-01 0.45808439E+03</pdfrwt>
<totfact> 0.62377696E+04</totfact>
</mgrwt>
</event>
<event>
 7    0  0.4737014E-002  0.4525163E+03  0.7546771E-02  0.1026974E+00
         21   -1    0    0  502  501  0.00000000000E+00  0.00000000000E+00  0.38825555654E+03  0.38825555654E+03  0.00000000000E+00 0.  1.
         21   -1    0    0  501  502 -0.00000000000E+00 -0.00000000000E+00 -0.13185320920E+03  0.13185320920E+03  0.00000000000E+00 0.  1.
      99926    2    1    2    0    0  0.00000000000E+00  0.00000000000E+00  0.25640234734E+03  0.52010876574E+03  0.45251625880E+03 0.  0.
      99925    2    3    3    0    0  0.58560614303E+02 -0.58165841165E+02  0.76738310659E+02  0.28614448470E+03  0.26301575462E+03 0.  0.
         25    1    4    4    0    0  0.13618135141E+02 -0.56165061849E+02  0.12089699589E+02  0.13832438944E+03  0.12509000000E+03 0.  0.
         25    1    4    4    0    0  0.44942479162E+02 -0.20007793158E+01  0.64648611070E+02  0.14782009527E+03  0.12509000000E+03 0.  0.
         25    1    3    3    0    0 -0.58560614303E+02  0.58165841165E+02  0.17966403668E+03  0.23396428104E+03  0.12509000000E+03 0.  0.
<mgrwt>
<rscale>  2 0.45251626E+03</rscale>
<asrwt>0</asrwt>
<pdfrwt beam="1">  1       21 0.57096405E-01 0.45251626E+03</pdfrwt>
<pdfrwt beam="2">  1       21 0.19390178E-01 0.45251626E+03</pdfrwt>
<totfact> 0.65154234E+04</totfact>
</mgrwt>
</event>
<event>
 7    0  0.4737014E-002  0.4530949E+03  0.7546771E-02  0.1026803E+00
         21   -1    0    0  502  501  0.00000000000E+00  0.00000000000E+00  0.13909764035E+04  0.13909764035E+04  0.00000000000E+00 0.  1.
         21   -1    0    0  501  502 -0.00000000000E+00 -0.00000000000E+00 -0.36897640781E+02  0.36897640781E+02  0.00000000000E+00 0.  1.
      99926    2    1    2    0    0 -0.14210854715E-13  0.88817841970E-15  0.13540787628E+04  0.14278740443E+04  0.45309490252E+03 0.  0.
      99925    2    3    3    0    0 -0.80661167204E+02  0.71320135243E+01  0.10944358286E+04  0.11285096328E+04  0.26303444441E+03 0.  0.
         25    1    3    3    0    0  0.80661167204E+02 -0.71320135243E+01  0.25964293416E+03  0.29936441149E+03  0.12509000000E+03 0.  0.
         25    1    4    4    0    0 -0.29892432700E+02  0.75559488352E+01  0.69601742027E+03  0.70784066520E+03  0.12509000000E+03 0.  0.
         25    1    4    4    0    0 -0.50768734503E+02 -0.42393531100E+00  0.39841840833E+03  0.42066896763E+03  0.12509000000E+03 0.  0.
<mgrwt>
<rscale>  2 0.45309490E+03</rscale>
<asrwt>0</asrwt>
<pdfrwt beam="1">  1       21 0.20455532E+00 0.45309490E+03</pdfrwt>
<pdfrwt beam="2">  1       21 0.54261246E-02 0.45309490E+03</pdfrwt>
<totfact> 0.25981089E+04</totfact>
</mgrwt>
</event>
<event>
 7    0  0.4737014E-002  0.4506699E+03  0.7546771E-02  0.1027522E+00
         21   -1    0    0  502  501  0.00000000000E+00  0.00000000000E+00  0.96894775086E+02  0.96894775086E+02  0.00000000000E+00 0. -1.
         21   -1    0    0  501  502 -0.00000000000E+00 -0.00000000000E+00 -0.52403065238E+03  0.52403065238E+03  0.00000000000E+00 0. -1.
      99926    2    1    2    0    0  0.00000000000E+00 -0.13322676296E-14 -0.42713587729E+03  0.62092542746E+03  0.45066986675E+03 0.  0.
      99925    2    3    3    0    0  0.29652322607E+02 -0.34483488612E+01 -0.12538147330E+03  0.29290960501E+03  0.26302922180E+03 0.  0.
         25    1    4    4    0    0  0.23808666233E+01  0.23879351816E+02 -0.29781317816E+02  0.13080644846E+03  0.12509000000E+03 0.  0.
         25    1    4    4    0    0  0.27271455983E+02 -0.27327700677E+02 -0.95600155479E+02  0.16210315655E+03  0.12509000000E+03 0.  0.
         25    1    3    3    0    0 -0.29652322607E+02  0.34483488612E+01 -0.30175440400E+03  0.32801582245E+03  0.12509000000E+03 0.  0.
<mgrwt>
<rscale>  2 0.45066987E+03</rscale>
<asrwt>0</asrwt>
<pdfrwt beam="1">  1       21 0.14249232E-01 0.45066987E+03</pdfrwt>
<pdfrwt beam="2">  1       21 0.77063330E-01 0.45066987E+03</pdfrwt>
<totfact> 0.59413908E+04</totfact>
</mgrwt>
</event>
<event>
 7    0  0.4737014E-002  0.4505134E+03  0.7546771E-02  0.1027569E+00
         21   -1    0    0  502  501  0.00000000000E+00  0.00000000000E+00  0.28175030617E+03  0.28175030617E+03  0.00000000000E+00 0.  1.
         21   -1    0    0  501  502 -0.00000000000E+00 -0.00000000000E+00 -0.18009063491E+03  0.18009063491E+03  0.00000000000E+00 0.  1.
      99926    2    1    2    0    0  0.00000000000E+00 -0.14210854715E-13  0.10165967127E+03  0.46184094108E+03  0.45051344718E+03 0.  0.
      99925    2    3    3    0    0 -0.52524607064E+02 -0.94071368797E+02  0.47286879421E+02  0.28802447072E+03  0.26289501706E+03 0.  0.
         25    1    4    4    0    0 -0.17517149069E+02 -0.72262511559E+02 -0.67017895127E+01  0.14567478564E+03  0.12509000000E+03 0.  0.
         25    1    3    3    0    0  0.52524607064E+02  0.94071368797E+02  0.54372791846E+02  0.17381647036E+03  0.12509000000E+03 0.  0.
         25    1    4    4    0    0 -0.35007457995E+02 -0.21808857238E+02  0.53988668933E+02  0.14234968508E+03  0.12509000000E+03 0.  0.
<mgrwt>
<rscale>  2 0.45051345E+03</rscale>
<asrwt>0</asrwt>
<pdfrwt beam="1">  1       21 0.41433869E-01 0.45051345E+03</pdfrwt>
<pdfrwt beam="2">  1       21 0.26483917E-01 0.45051345E+03</pdfrwt>
<totfact> 0.70524323E+04</totfact>
</mgrwt>
</event>
<event>
 7    0  0.4737014E-002  0.4402835E+03  0.7546771E-02  0.1030660E+00
         21   -1    0    0  502  501  0.00000000000E+00  0.00000000000E+00  0.18604923990E+02  0.18604923990E+02  0.00000000000E+00 0.  1.
         21   -1    0    0  501  502 -0.00000000000E+00 -0.00000000000E+00 -0.26048153173E+04  0.26048153173E+04  0.00000000000E+00 0.  1.
      99926    2    1    2    0    0  0.00000000000E+00  0.00000000000E+00 -0.25862103933E+04  0.26234202413E+04  0.44028350406E+03 0.  0.
      99925    2    3    3    0    0  0.49059181402E+01  0.98462022151E+02 -0.16185686804E+04  0.16427588163E+04  0.26300782775E+03 0.  0.
         25    1    4    4    0    0  0.17465381919E+01  0.88647266240E+02 -0.79058410758E+03  0.80531492440E+03  0.12509000000E+03 0.  0.
         25    1    4    4    0    0  0.31593799483E+01  0.98147559108E+01 -0.82798457280E+03  0.83744389186E+03  0.12509000000E+03 0.  0.
         25    1    3    3    0    0 -0.49059181402E+01 -0.98462022151E+02 -0.96764171290E+03  0.98066142500E+03  0.12509000000E+03 0.  0.
<mgrwt>
<rscale>  2 0.44028350E+03</rscale>
<asrwt>0</asrwt>
<pdfrwt beam="1">  1       21 0.27360186E-02 0.44028350E+03</pdfrwt>
<pdfrwt beam="2">  1       21 0.38306102E+00 0.44028350E+03</pdfrwt>
<totfact> 0.66821172E+03</totfact>
</mgrwt>
</event>
<event>
 7    0  0.4737014E-002  0.4444788E+03  0.7546771E-02  0.1029381E+00
         21   -1    0    0  502  501  0.00000000000E+00  0.00000000000E+00  0.30192983599E+02  0.30192983599E+02  0.00000000000E+00 0.  1.
         21   -1    0    0  501  502 -0.00000000000E+00 -0.00000000000E+00 -0.16358221885E+04  0.16358221885E+04  0.00000000000E+00 0.  1.
      99926    2    1    2    0    0  0.00000000000E+00  0.00000000000E+00 -0.16056292049E+04  0.16660151721E+04  0.44447880718E+03 0.  0.
      99925    2    3    3    0    0  0.43777069140E+02  0.88998386122E+02 -0.91675938206E+03  0.95888980455E+03  0.26302993776E+03 0.  0.
         25    1    3    3    0    0 -0.43777069140E+02 -0.88998386122E+02 -0.68886982284E+03  0.70712536755E+03  0.12509000000E+03 0.  0.
         25    1    4    4    0    0  0.45900844635E+02  0.11078920234E+02 -0.44086514820E+03  0.46069427717E+03  0.12509000000E+03 0.  0.
         25    1    4    4    0    0 -0.21237754950E+01  0.77919465889E+02 -0.47589423386E+03  0.49819552738E+03  0.12509000000E+03 0.  0.
<mgrwt>
<rscale>  2 0.44447881E+03</rscale>
<asrwt>0</asrwt>
<pdfrwt beam="1">  1       21 0.44401447E-02 0.44447881E+03</pdfrwt>
<pdfrwt beam="2">  1       21 0.24056208E+00 0.44447881E+03</pdfrwt>
<totfact> 0.21697419E+04</totfact>
</mgrwt>
</event>
<event>
 7    0  0.4737014E-002  0.4560565E+03  0.7546771E-02  0.1025931E+00
         21   -1    0    0  502  501  0.00000000000E+00  0.00000000000E+00  0.12940440414E+03  0.12940440414E+03  0.00000000000E+00 0.  1.
         21   -1    0    0  501  502 -0.00000000000E+00 -0.00000000000E+00 -0.40181688781E+03  0.40181688781E+03  0.00000000000E+00 0.  1.
      99926    2    1    2    0    0  0.00000000000E+00  0.00000000000E+00 -0.27241248367E+03  0.53122129195E+03  0.45605646554E+03 0.  0.
      99925    2    3    3    0    0 -0.76720348067E+02 -0.84486912671E+02 -0.17505606007E+03  0.33590147336E+03  0.26298502888E+03 0.  0.
         25    1    4    4    0    0 -0.43576612991E+02 -0.11087585910E+02 -0.11389529661E+03  0.17504714351E+03  0.12509000000E+03 0.  0.
         25    1    3    3    0    0  0.76720348067E+02  0.84486912671E+02 -0.97356423594E+02  0.19531981859E+03  0.12509000000E+03 0.  0.
         25    1    4    4    0    0 -0.33143735076E+02 -0.73399326761E+02 -0.61160763467E+02  0.16085432985E+03  0.12509000000E+03 0.  0.
<mgrwt>
<rscale>  2 0.45605647E+03</rscale>
<asrwt>0</asrwt>
<pdfrwt beam="1">  1       21 0.19030059E-01 0.45605647E+03</pdfrwt>
<pdfrwt beam="2">  1       21 0.59090721E-01 0.45605647E+03</pdfrwt>
<totfact> 0.62598121E+04</totfact>
</mgrwt>
</event>
<event>
 7    0  0.4737014E-002  0.4511662E+03  0.7546771E-02  0.1027375E+00
         21   -1    0    0  502  501  0.00000000000E+00  0.00000000000E+00  0.65237475418E+03  0.65237475418E+03  0.00000000000E+00 0. -1.
         21   -1    0    0  501  502 -0.00000000000E+00 -0.00000000000E+00 -0.78003830069E+02  0.78003830069E+02  0.00000000000E+00 0. -1.
      99926    2    1    2    0    0 -0.35527136788E-14  0.00000000000E+00  0.57437092411E+03  0.73037858424E+03  0.45116617544E+03 0.  0.
      99925    2    3    3    0    0  0.30869980030E+02  0.70008791730E+01  0.53274402370E+03  0.59479733586E+03  0.26261322888E+03 0.  0.
         25    1    4    4    0    0  0.14746463333E+02 -0.46778995759E+01  0.17791452518E+03  0.21803767403E+03  0.12509000000E+03 0.  0.
         25    1    3    3    0    0 -0.30869980030E+02 -0.70008791730E+01  0.41626900407E+02  0.13558124839E+03  0.12509000000E+03 0.  0.
         25    1    4    4    0    0  0.16123516696E+02  0.11678778749E+02  0.35482949852E+03  0.37675966183E+03  0.12509000000E+03 0.  0.
<mgrwt>
<rscale>  2 0.45116618E+03</rscale>
<asrwt>0</asrwt>
<pdfrwt beam="1">  1       21 0.95937461E-01 0.45116618E+03</pdfrwt>
<pdfrwt beam="2">  1       21 0.11471152E-01 0.45116618E+03</pdfrwt>
<totfact> 0.52860108E+04</totfact>
</mgrwt>
</event>
<event>
 7    0  0.4737014E-002  0.5050743E+03  0.7546771E-02  0.1012463E+00
         21   -1    0    0  502  501  0.00000000000E+00  0.00000000000E+00  0.73615517883E+03  0.73615517883E+03  0.00000000000E+00 0.  1.
         21   -1    0    0  501  502 -0.00000000000E+00 -0.00000000000E+00 -0.86632571984E+02  0.86632571984E+02  0.00000000000E+00 0.  1.
      99926    2    1    2    0    0  0.00000000000E+00  0.00000000000E+00  0.64952260685E+03  0.82278775081E+03  0.50507431739E+03 0.  0.
      99925    2    3    3    0    0 -0.85811956340E+02 -0.12955109715E+03  0.39963117782E+03  0.50303720269E+03  0.26304784808E+03 0.  0.
         25    1    4    4    0    0 -0.42582540975E+02 -0.67762048649E+02  0.26810055463E+03  0.30648064135E+03  0.12509000000E+03 0.  0.
         25    1    3    3    0    0  0.85811956340E+02  0.12955109715E+03  0.24989142902E+03  0.31975054812E+03  0.12509000000E+03 0.  0.
         25    1    4    4    0    0 -0.43229415365E+02 -0.61789048502E+02  0.13153062319E+03  0.19655656134E+03  0.12509000000E+03 0.  0.
<mgrwt>
<rscale>  2 0.50507432E+03</rscale>
<asrwt>0</asrwt>
<pdfrwt beam="1">  1       21 0.10825811E+00 0.50507432E+03</pdfrwt>
<pdfrwt beam="2">  1       21 0.12740085E-01 0.50507432E+03</pdfrwt>
<totfact> 0.32091016E+04</totfact>
</mgrwt>
</event>
<event>
 7    0  0.4737014E-002  0.4724950E+03  0.7546771E-02  0.1021218E+00
         21   -1    0    0  502  501  0.00000000000E+00  0.00000000000E+00  0.44394198560E+02  0.44394198560E+02  0.00000000000E+00 0. -1.
         21   -1    0    0  501  502 -0.00000000000E+00 -0.00000000000E+00 -0.12572110509E+04  0.12572110509E+04  0.00000000000E+00 0. -1.
      99926    2    1    2    0    0 -0.35527136788E-14  0.00000000000E+00 -0.12128168523E+04  0.13016052494E+04  0.47249498208E+03 0.  0.
      99925    2    3    3    0    0 -0.10112017735E+02 -0.12845075691E+03 -0.75234927992E+03  0.80735860738E+03  0.26305252719E+03 0.  0.
         25    1    4    4    0    0 -0.38400813171E+02 -0.86730614114E+02 -0.43876665316E+03  0.46600483463E+03  0.12509000000E+03 0.  0.
         25    1    4    4    0    0  0.28288795437E+02 -0.41720142798E+02 -0.31358262676E+03  0.34135377275E+03  0.12509000000E+03 0.  0.
         25    1    3    3    0    0  0.10112017735E+02  0.12845075691E+03 -0.46046757238E+03  0.49424664204E+03  0.12509000000E+03 0.  0.
<mgrwt>
<rscale>  2 0.47249498E+03</rscale>
<asrwt>0</asrwt>
<pdfrwt beam="1">  1       21 0.65285594E-02 0.47249498E+03</pdfrwt>
<pdfrwt beam="2">  1       21 0.18488395E+00 0.47249498E+03</pdfrwt>
<totfact> 0.25426749E+04</totfact>
</mgrwt>
</event>
<event>
 7    0  0.4737014E-002  0.4512253E+03  0.7546771E-02  0.1027357E+00
         21   -1    0    0  502  501  0.00000000000E+00  0.00000000000E+00  0.47668165100E+03  0.47668165100E+03  0.00000000000E+00 0. -1.
         21   -1    0    0  501  502 -0.00000000000E+00 -0.00000000000E+00 -0.10678209655E+03  0.10678209655E+03  0.00000000000E+00 0. -1.
      99926    2    1    2    0    0 -0.71054273576E-14 -0.14210854715E-13  0.36989955445E+03  0.58346374755E+03  0.45122529220E+03 0.  0.
      99925    2    3    3    0    0 -0.40317796560E+02  0.78736427681E+02  0.31722593767E+03  0.42145458803E+03  0.26299567388E+03 0.  0.
         25    1    4    4    0    0  0.16076484364E+02  0.53302768807E+02  0.17500344312E+03  0.22220115147E+03  0.12509000000E+03 0.  0.
         25    1    4    4    0    0 -0.56394280923E+02  0.25433658875E+02  0.14222249455E+03  0.19925343656E+03  0.12509000000E+03 0.  0.
         25    1    3    3    0    0  0.40317796560E+02 -0.78736427681E+02  0.52673616785E+02  0.16200915952E+03  0.12509000000E+03 0.  0.
<mgrwt>
<rscale>  2 0.45122529E+03</rscale>
<asrwt>0</asrwt>
<pdfrwt beam="1">  1       21 0.70100242E-01 0.45122529E+03</pdfrwt>
<pdfrwt beam="2">  1       21 0.15703250E-01 0.45122529E+03</pdfrwt>
<totfact> 0.61523148E+04</totfact>
</mgrwt>
</event>
<event>
 7    0  0.4737014E-002  0.4630964E+03  0.7546771E-02  0.1023887E+00
         21   -1    0    0  502  501  0.00000000000E+00  0.00000000000E+00  0.27677339373E+03  0.27677339373E+03  0.00000000000E+00 0.  1.
         21   -1    0    0  501  502 -0.00000000000E+00 -0.00000000000E+00 -0.19371287842E+03  0.19371287842E+03  0.00000000000E+00 0.  1.
      99926    2    1    2    0    0  0.00000000000E+00  0.00000000000E+00  0.83060515309E+02  0.47048627215E+03  0.46309640797E+03 0.  0.
      99925    2    3    3    0    0  0.47741564579E+02  0.46986044814E+02 -0.50317234264E+02  0.27574521952E+03  0.26271021417E+03 0.  0.
         25    1    4    4    0    0  0.41221329846E+02  0.56528961524E+01 -0.57110485840E+02  0.14366721603E+03  0.12509000000E+03 0.  0.
         25    1    3    3    0    0 -0.47741564579E+02 -0.46986044814E+02  0.13337774957E+03  0.19474105262E+03  0.12509000000E+03 0.  0.
         25    1    4    4    0    0  0.65202347325E+01  0.41333148662E+02  0.67932515755E+01  0.13207800349E+03  0.12509000000E+03 0.  0.
<mgrwt>
<rscale>  2 0.46309641E+03</rscale>
<asrwt>0</asrwt>
<pdfrwt beam="1">  1       21 0.40701970E-01 0.46309641E+03</pdfrwt>
<pdfrwt beam="2">  1       21 0.28487188E-01 0.46309641E+03</pdfrwt>
<totfact> 0.63235849E+04</totfact>
</mgrwt>
</event>
<event>
 7    0  0.4737014E-002  0.4532110E+03  0.7546771E-02  0.1026769E+00
         21   -1    0    0  502  501  0.00000000000E+00  0.00000000000E+00  0.41441227328E+03  0.41441227328E+03  0.00000000000E+00 0. -1.
         21   -1    0    0  501  502 -0.00000000000E+00 -0.00000000000E+00 -0.12391052461E+03  0.12391052461E+03  0.00000000000E+00 0. -1.
      99926    2    1    2    0    0  0.00000000000E+00  0.71054273576E-14  0.29050174868E+03  0.53832279789E+03  0.45321095391E+03 0.  0.
      99925    2    3    3    0    0 -0.95635329531E+02  0.34288977054E+02  0.12828601288E+03  0.30966737320E+03  0.26289680622E+03 0.  0.
         25    1    4    4    0    0 -0.22193402398E+02 -0.11870429900E+02  0.77034216240E+02  0.14904775338E+03  0.12509000000E+03 0.  0.
         25    1    3    3    0    0  0.95635329531E+02 -0.34288977054E+02  0.16221573580E+03  0.22865542469E+03  0.12509000000E+03 0.  0.
         25    1    4    4    0    0 -0.73441927133E+02  0.46159406954E+02  0.51251796639E+02  0.16061961982E+03  0.12509000000E+03 0.  0.
<mgrwt>
<rscale>  2 0.45321095E+03</rscale>
<asrwt>0</asrwt>
<pdfrwt beam="1">  1       21 0.60942981E-01 0.45321095E+03</pdfrwt>
<pdfrwt beam="2">  1       21 0.18222136E-01 0.45321095E+03</pdfrwt>
<totfact> 0.63539695E+04</totfact>
</mgrwt>
</event>
<event>
 7    0  0.4737014E-002  0.4510792E+03  0.7546771E-02  0.1027401E+00
         21   -1    0    0  502  501  0.00000000000E+00  0.00000000000E+00  0.21297800855E+03  0.21297800855E+03  0.00000000000E+00 0. -1.
         21   -1    0    0  501  502 -0.00000000000E+00 -0.00000000000E+00 -0.23884207320E+03  0.23884207320E+03  0.00000000000E+00 0. -1.
      99926    2    1    2    0    0  0.00000000000E+00  0.35527136788E-14 -0.25864064656E+02  0.45182008175E+03  0.45107919087E+03 0.  0.
      99925    2    3    3    0    0  0.63788435595E+02  0.27847600561E+02  0.68264404600E+02  0.28049544781E+03  0.26300801115E+03 0.  0.
         25    1    4    4    0    0  0.64563067322E+02  0.86221984280E+01  0.61195011022E+02  0.15373701390E+03  0.12509000000E+03 0.  0.
         25    1    4    4    0    0 -0.77463172718E+00  0.19225402133E+02  0.70693935779E+01  0.12675843391E+03  0.12509000000E+03 0.  0.
         25    1    3    3    0    0 -0.63788435595E+02 -0.27847600561E+02 -0.94128469255E+02  0.17132463395E+03  0.12509000000E+03 0.  0.
<mgrwt>
<rscale>  2 0.45107919E+03</rscale>
<asrwt>0</asrwt>
<pdfrwt beam="1">  1       21 0.31320296E-01 0.45107919E+03</pdfrwt>
<pdfrwt beam="2">  1       21 0.35123834E-01 0.45107919E+03</pdfrwt>
<totfact> 0.70973870E+04</totfact>
</mgrwt>
</event>
<event>
 7    0  0.4737014E-002  0.4525446E+03  0.7546771E-02  0.1026966E+00
         21   -1    0    0  502  501  0.00000000000E+00  0.00000000000E+00  0.28688137466E+03  0.28688137466E+03  0.00000000000E+00 0.  1.
         21   -1    0    0  501  502 -0.00000000000E+00 -0.00000000000E+00 -0.17846804607E+03  0.17846804607E+03  0.00000000000E+00 0.  1.
      99926    2    1    2    0    0  0.00000000000E+00 -0.14210854715E-13  0.10841332859E+03  0.46534942073E+03  0.45254462052E+03 0.  0.
      99925    2    3    3    0    0 -0.47382058645E+01 -0.99302463010E+02  0.17730716589E+02  0.28162605811E+03  0.26289813339E+03 0.  0.
         25    1    4    4    0    0 -0.17382469598E+02 -0.18795161152E+02  0.32057787289E+02  0.13164580570E+03  0.12509000000E+03 0.  0.
         25    1    4    4    0    0  0.12644263734E+02 -0.80507301858E+02 -0.14327070700E+02  0.14998025241E+03  0.12509000000E+03 0.  0.
         25    1    3    3    0    0  0.47382058645E+01  0.99302463010E+02  0.90682611997E+02  0.18372336262E+03  0.12509000000E+03 0.  0.
<mgrwt>
<rscale>  2 0.45254462E+03</rscale>
<asrwt>0</asrwt>
<pdfrwt beam="1">  1       21 0.42188438E-01 0.45254462E+03</pdfrwt>
<pdfrwt beam="2">  1       21 0.26245301E-01 0.45254462E+03</pdfrwt>
<totfact> 0.69119793E+04</totfact>
</mgrwt>
</event>
<event>
 7    0  0.4737014E-002  0.4526791E+03  0.7546771E-02  0.1026926E+00
         21   -1    0    0  502  501  0.00000000000E+00  0.00000000000E+00  0.34519382046E+02  0.34519382046E+02  0.00000000000E+00 0.  1.
         21   -1    0    0  501  502 -0.00000000000E+00 -0.00000000000E+00 -0.14840817782E+04  0.14840817782E+04  0.00000000000E+00 0.  1.
      99926    2    1    2    0    0  0.00000000000E+00  0.17763568394E-14 -0.14495623962E+04  0.15186011602E+04  0.45267907347E+03 0.  0.
      99925    2    3    3    0    0  0.45735815449E+02 -0.12717480224E+02 -0.12505829809E+04  0.12788224812E+04  0.26301263705E+03 0.  0.
         25    1    4    4    0    0  0.55313032164E+02  0.35424135504E+01 -0.75833707626E+03  0.77058076122E+03  0.12509000000E+03 0.  0.
         25    1    4    4    0    0 -0.95772167152E+01 -0.16259893774E+02 -0.49224590465E+03  0.50824172002E+03  0.12509000000E+03 0.  0.
         25    1    3    3    0    0 -0.45735815449E+02  0.12717480224E+02 -0.19897941525E+03  0.23977867901E+03  0.12509000000E+03 0.  0.
<mgrwt>
<rscale>  2 0.45267907E+03</rscale>
<asrwt>0</asrwt>
<pdfrwt beam="1">  1       21 0.50763820E-02 0.45267907E+03</pdfrwt>
<pdfrwt beam="2">  1       21 0.21824722E+00 0.45267907E+03</pdfrwt>
<totfact> 0.23752202E+04</totfact>
</mgrwt>
</event>
<event>
 7    0  0.4737014E-002  0.4530052E+03  0.7546771E-02  0.1026830E+00
         21   -1    0    0  502  501  0.00000000000E+00  0.00000000000E+00  0.11757152010E+04  0.11757152010E+04  0.00000000000E+00 0. -1.
         21   -1    0    0  501  502 -0.00000000000E+00 -0.00000000000E+00 -0.43635931557E+02  0.43635931557E+02  0.00000000000E+00 0. -1.
      99926    2    1    2    0    0  0.00000000000E+00  0.00000000000E+00  0.11320792695E+04  0.12193511326E+04  0.45300520104E+03 0.  0.
      99925    2    3    3    0    0  0.75705966785E+02 -0.74466017704E+02  0.62345518291E+03  0.68491446587E+03  0.26293512367E+03 0.  0.
         25    1    4    4    0    0  0.19469144690E+02 -0.46086664454E+02  0.22145898895E+03  0.25921925107E+03  0.12509000000E+03 0.  0.
         25    1    3    3    0    0 -0.75705966785E+02  0.74466017704E+02  0.50862408656E+03  0.53443666671E+03  0.12509000000E+03 0.  0.
         25    1    4    4    0    0  0.56236822095E+02 -0.28379353249E+02  0.40199619395E+03  0.42569521480E+03  0.12509000000E+03 0.  0.
<mgrwt>
<rscale>  2 0.45300520E+03</rscale>
<asrwt>0</asrwt>
<pdfrwt beam="1">  1       21 0.17289927E+00 0.45300520E+03</pdfrwt>
<pdfrwt beam="2">  1       21 0.64170495E-02 0.45300520E+03</pdfrwt>
<totfact> 0.32043512E+04</totfact>
</mgrwt>
</event>
<event>
 7    0  0.4737014E-002  0.4572456E+03  0.7546771E-02  0.1025583E+00
         21   -1    0    0  502  501  0.00000000000E+00  0.00000000000E+00  0.60722064949E+03  0.60722064949E+03  0.00000000000E+00 0. -1.
         21   -1    0    0  501  502 -0.00000000000E+00 -0.00000000000E+00 -0.86078082756E+02  0.86078082756E+02  0.00000000000E+00 0. -1.
      99926    2    1    2    0    0  0.00000000000E+00  0.00000000000E+00  0.52114256674E+03  0.69329873225E+03  0.45724562029E+03 0.  0.
      99925    2    3    3    0    0 -0.45014386157E+02  0.10344188021E+03  0.36324124516E+03  0.46241596330E+03  0.26297871281E+03 0.  0.
         25    1    3    3    0    0  0.45014386157E+02 -0.10344188021E+03  0.15790132158E+03  0.23088276895E+03  0.12509000000E+03 0.  0.
         25    1    4    4    0    0 -0.21059819248E+02  0.30636681346E+02  0.11436576771E+03  0.17351990996E+03  0.12509000000E+03 0.  0.
         25    1    4    4    0    0 -0.23954566909E+02  0.72805198861E+02  0.24887547745E+03  0.28889605334E+03  0.12509000000E+03 0.  0.
<mgrwt>
<rscale>  2 0.45724562E+03</rscale>
<asrwt>0</asrwt>
<pdfrwt beam="1">  1       21 0.89297152E-01 0.45724562E+03</pdfrwt>
<pdfrwt beam="2">  1       21 0.12658542E-01 0.45724562E+03</pdfrwt>
<totfact> 0.52337094E+04</totfact>
</mgrwt>
</event>
<event>
 7    0  0.4737014E-002  0.4583388E+03  0.7546771E-02  0.1025264E+00
         21   -1    0    0  502  501  0.00000000000E+00  0.00000000000E+00  0.16369358755E+03  0.16369358755E+03  0.00000000000E+00 0. -1.
         21   -1    0    0  501  502 -0.00000000000E+00 -0.00000000000E+00 -0.32083483450E+03  0.32083483450E+03  0.00000000000E+00 0. -1.
      99926    2    1    2    0    0  0.00000000000E+00  0.00000000000E+00 -0.15714124695E+03  0.48452842206E+03  0.45833876150E+03 0.  0.
      99925    2    3    3    0    0 -0.11381878826E+03 -0.16205385248E+02 -0.84439653698E+02  0.29973025964E+03  0.26361115749E+03 0.  0.
         25    1    4    4    0    0 -0.63430311869E+02 -0.28701744931E+02 -0.61425108746E+01  0.14329142740E+03  0.12509000000E+03 0.  0.
         25    1    4    4    0    0 -0.50388476392E+02  0.12496359683E+02 -0.78297142823E+02  0.15643883224E+03  0.12509000000E+03 0.  0.
         25    1    3    3    0    0  0.11381878826E+03  0.16205385248E+02 -0.72701593253E+02  0.18479816242E+03  0.12509000000E+03 0.  0.
<mgrwt>
<rscale>  2 0.45833876E+03</rscale>
<asrwt>0</asrwt>
<pdfrwt beam="1">  1       21 0.24072587E-01 0.45833876E+03</pdfrwt>
<pdfrwt beam="2">  1       21 0.47181593E-01 0.45833876E+03</pdfrwt>
<totfact> 0.64641651E+04</totfact>
</mgrwt>
</event>
<event>
 7    0  0.4737014E-002  0.4626632E+03  0.7546771E-02  0.1024012E+00
         21   -1    0    0  502  501  0.00000000000E+00  0.00000000000E+00  0.11943566839E+04  0.11943566839E+04  0.00000000000E+00 0.  1.
         21   -1    0    0  501  502 -0.00000000000E+00 -0.00000000000E+00 -0.44805971419E+02  0.44805971419E+02  0.00000000000E+00 0.  1.
      99926    2    1    2    0    0  0.14210854715E-13  0.00000000000E+00  0.11495507125E+04  0.12391626553E+04  0.46266320988E+03 0.  0.
      99925    2    3    3    0    0  0.74993863478E+02 -0.58028857203E+02  0.91641621263E+03  0.95810993616E+03  0.26299153442E+03 0.  0.
         25    1    4    4    0    0  0.66485571164E+02 -0.77021736703E+00  0.47488418606E+03  0.49556374229E+03  0.12509000000E+03 0.  0.
         25    1    4    4    0    0  0.85082923145E+01 -0.57258639836E+02  0.44153202657E+03  0.46254619387E+03  0.12509000000E+03 0.  0.
         25    1    3    3    0    0 -0.74993863478E+02  0.58028857203E+02  0.23313449988E+03  0.28105271919E+03  0.12509000000E+03 0.  0.
<mgrwt>
<rscale>  2 0.46266321E+03</rscale>
<asrwt>0</asrwt>
<pdfrwt beam="1">  1       21 0.17564067E+00 0.46266321E+03</pdfrwt>
<pdfrwt beam="2">  1       21 0.65891142E-02 0.46266321E+03</pdfrwt>
<totfact> 0.29155366E+04</totfact>
</mgrwt>
</event>
<event>
 7    0  0.4737014E-002  0.4461045E+03  0.7546771E-02  0.1028890E+00
         21   -1    0    0  502  501  0.00000000000E+00  0.00000000000E+00  0.47829675558E+02  0.47829675558E+02  0.00000000000E+00 0. -1.
         21   -1    0    0  501  502 -0.00000000000E+00 -0.00000000000E+00 -0.10401973720E+04  0.10401973720E+04  0.00000000000E+00 0. -1.
      99926    2    1    2    0    0  0.00000000000E+00  0.00000000000E+00 -0.99236769641E+03  0.10880270475E+04  0.44610448470E+03 0.  0.
      99925    2    3    3    0    0  0.36326420663E+02 -0.90727092942E+02 -0.53813574296E+03  0.60685640226E+03  0.26293269268E+03 0.  0.
         25    1    3    3    0    0 -0.36326420663E+02  0.90727092942E+02 -0.45423195345E+03  0.48117064526E+03  0.12509000000E+03 0.  0.
         25    1    4    4    0    0  0.27885311275E+02 -0.19479488846E+02 -0.32111272231E+03  0.34629168283E+03  0.12509000000E+03 0.  0.
         25    1    4    4    0    0  0.84411093876E+01 -0.71247604096E+02 -0.21702302066E+03  0.26056471943E+03  0.12509000000E+03 0.  0.
<mgrwt>
<rscale>  2 0.44610448E+03</rscale>
<asrwt>0</asrwt>
<pdfrwt beam="1">  1       21 0.70337763E-02 0.44610448E+03</pdfrwt>
<pdfrwt beam="2">  1       21 0.15297019E+00 0.44610448E+03</pdfrwt>
<totfact> 0.38516724E+04</totfact>
</mgrwt>
</event>
<event>
 7    0  0.4737014E-002  0.4255919E+03  0.7546771E-02  0.1035262E+00
         21   -1    0    0  502  501  0.00000000000E+00  0.00000000000E+00  0.12547077342E+04  0.12547077342E+04  0.00000000000E+00 0. -1.
         21   -1    0    0  501  502 -0.00000000000E+00 -0.00000000000E+00 -0.36089764840E+02  0.36089764840E+02  0.00000000000E+00 0. -1.
      99926    2    1    2    0    0  0.35527136788E-14  0.00000000000E+00  0.12186179694E+04  0.12907974991E+04  0.42559185645E+03 0.  0.
      99925    2    3    3    0    0  0.19330553302E+02 -0.20048045720E+02  0.55331946753E+03  0.61326875495E+03  0.26298391248E+03 0.  0.
         25    1    4    4    0    0 -0.59400939499E+01 -0.32991285365E+02  0.34639376443E+03  0.36981057010E+03  0.12509000000E+03 0.  0.
         25    1    3    3    0    0 -0.19330553302E+02  0.20048045720E+02  0.66529850184E+03  0.67752874410E+03  0.12509000000E+03 0.  0.
         25    1    4    4    0    0  0.25270647252E+02  0.12943239644E+02  0.20692570310E+03  0.24345818485E+03  0.12509000000E+03 0.  0.
<mgrwt>
<rscale>  2 0.42559186E+03</rscale>
<asrwt>0</asrwt>
<pdfrwt beam="1">  1       21 0.18451581E+00 0.42559186E+03</pdfrwt>
<pdfrwt beam="2">  1       21 0.53073192E-02 0.42559186E+03</pdfrwt>
<totfact> 0.37189464E+04</totfact>
</mgrwt>
</event>
<event>
 7    0  0.4737014E-002  0.4530238E+03  0.7546771E-02  0.1026824E+00
         21   -1    0    0  502  501  0.00000000000E+00  0.00000000000E+00  0.29945585688E+02  0.29945585688E+02  0.00000000000E+00 0. -1.
         21   -1    0    0  501  502 -0.00000000000E+00 -0.00000000000E+00 -0.17133622279E+04  0.17133622279E+04  0.00000000000E+00 0. -1.
      99926    2    1    2    0    0 -0.14210854715E-13  0.71054273576E-14 -0.16834166422E+04  0.17433078136E+04  0.45302377602E+03 0.  0.
      99925    2    3    3    0    0 -0.64357827095E+02  0.63353983539E+02 -0.80965709962E+03  0.85603169900E+03  0.26284975480E+03 0.  0.
         25    1    4    4    0    0 -0.61418225537E+01  0.26628553770E+02 -0.47999315525E+03  0.49677735360E+03  0.12509000000E+03 0.  0.
         25    1    4    4    0    0 -0.58216004541E+02  0.36725429769E+02 -0.32966394436E+03  0.35925434540E+03  0.12509000000E+03 0.  0.
         25    1    3    3    0    0  0.64357827095E+02 -0.63353983539E+02 -0.87375954263E+03  0.88727611462E+03  0.12509000000E+03 0.  0.
<mgrwt>
<rscale>  2 0.45302378E+03</rscale>
<asrwt>0</asrwt>
<pdfrwt beam="1">  1       21 0.44037620E-02 0.45302378E+03</pdfrwt>
<pdfrwt beam="2">  1       21 0.25196507E+00 0.45302378E+03</pdfrwt>
<totfact> 0.18659306E+04</totfact>
</mgrwt>
</event>
<event>
 7    0  0.4737014E-002  0.4520759E+03  0.7546771E-02  0.1027105E+00
         21   -1    0    0  502  501  0.00000000000E+00  0.00000000000E+00  0.10561337712E+04  0.10561337712E+04  0.00000000000E+00 0. -1.
         21   -1    0    0  501  502 -0.00000000000E+00 -0.00000000000E+00 -0.48377542946E+02  0.48377542946E+02  0.00000000000E+00 0. -1.
      99926    2    1    2    0    0  0.00000000000E+00 -0.35527136788E-14  0.10077562283E+04  0.11045113142E+04  0.45207590900E+03 0.  0.
      99925    2    3    3    0    0  0.65534994068E+02 -0.23864664619E+02  0.42669817499E+03  0.50606304819E+03  0.26299071949E+03 0.  0.
         25    1    3    3    0    0 -0.65534994068E+02  0.23864664619E+02  0.58105805327E+03  0.59844826596E+03  0.12509000000E+03 0.  0.
         25    1    4    4    0    0  0.23691295752E+02  0.22008854919E+02  0.16642357359E+03  0.21068930001E+03  0.12509000000E+03 0.  0.
         25    1    4    4    0    0  0.41843698317E+02 -0.45873519538E+02  0.26027460139E+03  0.29537374818E+03  0.12509000000E+03 0.  0.
<mgrwt>
<rscale>  2 0.45207591E+03</rscale>
<asrwt>0</asrwt>
<pdfrwt beam="1">  1       21 0.15531378E+00 0.45207591E+03</pdfrwt>
<pdfrwt beam="2">  1       21 0.71143452E-02 0.45207591E+03</pdfrwt>
<totfact> 0.36155139E+04</totfact>
</mgrwt>
</event>
<event>
 7    0  0.4737014E-002  0.4579489E+03  0.7546771E-02  0.1025378E+00
         21   -1    0    0  502  501  0.00000000000E+00  0.00000000000E+00  0.12212654616E+03  0.12212654616E+03  0.00000000000E+00 0. -1.
         21   -1    0    0  501  502 -0.00000000000E+00 -0.00000000000E+00 -0.42930297079E+03  0.42930297079E+03  0.00000000000E+00 0. -1.
      99926    2    1    2    0    0  0.35527136788E-14 -0.14210854715E-13 -0.30717642463E+03  0.55142951694E+03  0.45794885775E+03 0.  0.
      99925    2    3    3    0    0 -0.31899388673E+02  0.69986890261E+02 -0.88350712916E+02  0.28789975390E+03  0.26299179458E+03 0.  0.
         25    1    4    4    0    0  0.12090272259E+02  0.24829705263E+02 -0.12782541123E+02  0.12873845736E+03  0.12509000000E+03 0.  0.
         25    1    3    3    0    0  0.31899388673E+02 -0.69986890261E+02 -0.21882571171E+03  0.26352976305E+03  0.12509000000E+03 0.  0.
         25    1    4    4    0    0 -0.43989660932E+02  0.45157184998E+02 -0.75568171793E+02  0.15916129653E+03  0.12509000000E+03 0.  0.
<mgrwt>
<rscale>  2 0.45794886E+03</rscale>
<asrwt>0</asrwt>
<pdfrwt beam="1">  1       21 0.17959786E-01 0.45794886E+03</pdfrwt>
<pdfrwt beam="2">  1       21 0.63132789E-01 0.45794886E+03</pdfrwt>
<totfact> 0.60351745E+04</totfact>
</mgrwt>
</event>
<event>
 7    0  0.4737014E-002  0.4471614E+03  0.7546771E-02  0.1028572E+00
         21   -1    0    0  502  501  0.00000000000E+00  0.00000000000E+00  0.15176356874E+03  0.15176356874E+03  0.00000000000E+00 0.  1.
         21   -1    0    0  501  502 -0.00000000000E+00 -0.00000000000E+00 -0.32938289703E+03  0.32938289703E+03  0.00000000000E+00 0.  1.
      99926    2    1    2    0    0  0.00000000000E+00  0.00000000000E+00 -0.17761932829E+03  0.48114646576E+03  0.44716137550E+03 0.  0.
      99925    2    3    3    0    0  0.74116566202E+02  0.27901921903E+02 -0.37554811781E+02  0.27733930319E+03  0.26312533625E+03 0.  0.
         25    1    3    3    0    0 -0.74116566202E+02 -0.27901921903E+02 -0.14006451651E+03  0.20380716257E+03  0.12509000000E+03 0.  0.
         25    1    4    4    0    0  0.70487934615E+02  0.24509847400E+00 -0.40355122175E+02  0.14914641459E+03  0.12509000000E+03 0.  0.
         25    1    4    4    0    0  0.36286315877E+01  0.27656823429E+02  0.28003103937E+01  0.12819288860E+03  0.12509000000E+03 0.  0.
<mgrwt>
<rscale>  2 0.44716138E+03</rscale>
<asrwt>0</asrwt>
<pdfrwt beam="1">  1       21 0.22318172E-01 0.44716138E+03</pdfrwt>
<pdfrwt beam="2">  1       21 0.48438662E-01 0.44716138E+03</pdfrwt>
<totfact> 0.70928664E+04</totfact>
</mgrwt>
</event>
<event>
 7    0  0.4737014E-002  0.4647743E+03  0.7546771E-02  0.1023406E+00
         21   -1    0    0  502  501  0.00000000000E+00  0.00000000000E+00  0.18566112487E+03  0.18566112487E+03  0.00000000000E+00 0. -1.
         21   -1    0    0  501  502 -0.00000000000E+00 -0.00000000000E+00 -0.29087283786E+03  0.29087283786E+03  0.00000000000E+00 0. -1.
      99926    2    1    2    0    0  0.71054273576E-14  0.00000000000E+00 -0.10521171299E+03  0.47653396272E+03  0.46477426034E+03 0.  0.
      99925    2    3    3    0    0  0.57355863866E+02  0.88473320991E+02 -0.12878965779E+03  0.31124436466E+03  0.26300010443E+03 0.  0.
         25    1    4    4    0    0  0.49573848798E+02  0.10047467964E+02 -0.51593745162E+02  0.14445740112E+03  0.12509000000E+03 0.  0.
         25    1    4    4    0    0  0.77820150675E+01  0.78425853027E+02 -0.77195912628E+02  0.16678696354E+03  0.12509000000E+03 0.  0.
         25    1    3    3    0    0 -0.57355863866E+02 -0.88473320991E+02  0.23577944799E+02  0.16528959806E+03  0.12509000000E+03 0.  0.
<mgrwt>
<rscale>  2 0.46477426E+03</rscale>
<asrwt>0</asrwt>
<pdfrwt beam="1">  1       21 0.27303107E-01 0.46477426E+03</pdfrwt>
<pdfrwt beam="2">  1       21 0.42775416E-01 0.46477426E+03</pdfrwt>
<totfact> 0.62003532E+04</totfact>
</mgrwt>
</event>
<event>
 7    0  0.4737014E-002  0.4584974E+03  0.7546771E-02  0.1025218E+00
         21   -1    0    0  502  501  0.00000000000E+00  0.00000000000E+00  0.31605018591E+02  0.31605018591E+02  0.00000000000E+00 0. -1.
         21   -1    0    0  501  502 -0.00000000000E+00 -0.00000000000E+00 -0.16628676677E+04  0.16628676677E+04  0.00000000000E+00 0. -1.
      99926    2    1    2    0    0  0.00000000000E+00  0.00000000000E+00 -0.16312626491E+04  0.16944726863E+04  0.45849738736E+03 0.  0.
      99925    2    3    3    0    0 -0.10793359773E+03 -0.23905359492E+02 -0.88843975255E+03  0.93312224695E+03  0.26300343365E+03 0.  0.
         25    1    4    4    0    0 -0.63110568348E+02 -0.51967682789E+02 -0.47395800420E+03  0.49695802814E+03  0.12509000000E+03 0.  0.
         25    1    4    4    0    0 -0.44823029387E+02  0.28062323296E+02 -0.41448174835E+03  0.43616421881E+03  0.12509000000E+03 0.  0.
         25    1    3    3    0    0  0.10793359773E+03  0.23905359492E+02 -0.74282289658E+03  0.76135043937E+03  0.12509000000E+03 0.  0.
<mgrwt>
<rscale>  2 0.45849739E+03</rscale>
<asrwt>0</asrwt>
<pdfrwt beam="1">  1       21 0.46477979E-02 0.45849739E+03</pdfrwt>
<pdfrwt beam="2">  1       21 0.24453931E+00 0.45849739E+03</pdfrwt>
<totfact> 0.18859514E+04</totfact>
</mgrwt>
</event>
<event>
 7    0  0.4737014E-002  0.4567556E+03  0.7546771E-02  0.1025726E+00
         21   -1    0    0  502  501  0.00000000000E+00  0.00000000000E+00  0.98988871804E+02  0.98988871804E+02  0.00000000000E+00 0. -1.
         21   -1    0    0  501  502 -0.00000000000E+00 -0.00000000000E+00 -0.52689164041E+03  0.52689164041E+03  0.00000000000E+00 0. -1.
      99926    2    1    2    0    0  0.00000000000E+00  0.00000000000E+00 -0.42790276861E+03  0.62588051221E+03  0.45675555409E+03 0.  0.
      99925    2    3    3    0    0  0.75165384196E+02 -0.80046069917E+02 -0.31476898710E+03  0.42462453365E+03  0.26300051530E+03 0.  0.
         25    1    4    4    0    0  0.68916424317E+02 -0.48086411106E+02 -0.20867968092E+03  0.25740336790E+03  0.12509000000E+03 0.  0.
         25    1    3    3    0    0 -0.75165384196E+02  0.80046069917E+02 -0.11313378150E+03  0.20125597856E+03  0.12509000000E+03 0.  0.
         25    1    4    4    0    0  0.62489598795E+01 -0.31959658811E+02 -0.10608930618E+03  0.16722116576E+03  0.12509000000E+03 0.  0.
<mgrwt>
<rscale>  2 0.45675555E+03</rscale>
<asrwt>0</asrwt>
<pdfrwt beam="1">  1       21 0.14557187E-01 0.45675555E+03</pdfrwt>
<pdfrwt beam="2">  1       21 0.77484066E-01 0.45675555E+03</pdfrwt>
<totfact> 0.56328075E+04</totfact>
</mgrwt>
</event>
<event>
 7    0  0.4737014E-002  0.4501642E+03  0.7546771E-02  0.1027673E+00
         21   -1    0    0  502  501  0.00000000000E+00  0.00000000000E+00  0.94248684816E+02  0.94248684816E+02  0.00000000000E+00 0. -1.
         21   -1    0    0  501  502 -0.00000000000E+00 -0.00000000000E+00 -0.53753475399E+03  0.53753475399E+03  0.00000000000E+00 0. -1.
      99926    2    1    2    0    0 -0.14210854715E-13  0.14210854715E-13 -0.44328606918E+03  0.63178343881E+03  0.45016416386E+03 0.  0.
      99925    2    3    3    0    0  0.91240334706E+02 -0.58635997719E+02 -0.28645416607E+03  0.40373359154E+03  0.26302441859E+03 0.  0.
         25    1    3    3    0    0 -0.91240334706E+02  0.58635997719E+02 -0.15683190311E+03  0.22804984727E+03  0.12509000000E+03 0.  0.
         25    1    4    4    0    0  0.58000798722E+02 -0.69869224906E+02 -0.15351200522E+03  0.21785142893E+03  0.12509000000E+03 0.  0.
         25    1    4    4    0    0  0.33239535984E+02  0.11233227188E+02 -0.13294216085E+03  0.18588216261E+03  0.12509000000E+03 0.  0.
<mgrwt>
<rscale>  2 0.45016416E+03</rscale>
<asrwt>0</asrwt>
<pdfrwt beam="1">  1       21 0.13860101E-01 0.45016416E+03</pdfrwt>
<pdfrwt beam="2">  1       21 0.79049229E-01 0.45016416E+03</pdfrwt>
<totfact> 0.58982731E+04</totfact>
</mgrwt>
</event>
<event>
 7    0  0.4737014E-002  0.4252189E+03  0.7546771E-02  0.1035381E+00
         21   -1    0    0  502  501  0.00000000000E+00  0.00000000000E+00  0.50430896039E+02  0.50430896039E+02  0.00000000000E+00 0. -1.
         21   -1    0    0  501  502 -0.00000000000E+00 -0.00000000000E+00 -0.89633108907E+03  0.89633108907E+03  0.00000000000E+00 0. -1.
      99926    2    1    2    0    0  0.00000000000E+00  0.71054273576E-14 -0.84590019303E+03  0.94676198510E+03  0.42521890818E+03 0.  0.
      99925    2    3    3    0    0 -0.55266437137E+02  0.56971618303E+02 -0.50198691175E+03  0.57229703681E+03  0.26312144421E+03 0.  0.
         25    1    4    4    0    0 -0.16078221617E+02  0.67950089957E+02 -0.25748839536E+03  0.29465828646E+03  0.12509000000E+03 0.  0.
         25    1    3    3    0    0  0.55266437137E+02 -0.56971618303E+02 -0.34391328127E+03  0.37446494830E+03  0.12509000000E+03 0.  0.
         25    1    4    4    0    0 -0.39188215519E+02 -0.10978471654E+02 -0.24449851640E+03  0.27763875035E+03  0.12509000000E+03 0.  0.
<mgrwt>
<rscale>  2 0.42521891E+03</rscale>
<asrwt>0</asrwt>
<pdfrwt beam="1">  1       21 0.74163073E-02 0.42521891E+03</pdfrwt>
<pdfrwt beam="2">  1       21 0.13181341E+00 0.42521891E+03</pdfrwt>
<totfact> 0.52466180E+04</totfact>
</mgrwt>
</event>
<event>
 7    0  0.4737014E-002  0.4496447E+03  0.7546771E-02  0.1027828E+00
         21   -1    0    0  502  501  0.00000000000E+00  0.00000000000E+00  0.11687379933E+03  0.11687379933E+03  0.00000000000E+00 0. -1.
         21   -1    0    0  501  502 -0.00000000000E+00 -0.00000000000E+00 -0.43247583388E+03  0.43247583388E+03  0.00000000000E+00 0. -1.
      99926    2    1    2    0    0  0.14210854715E-13  0.00000000000E+00 -0.31560203455E+03  0.54934963321E+03  0.44964472119E+03 0.  0.
      99925    2    3    3    0    0  0.10043106228E+03  0.27070674577E+02 -0.23569808259E+03  0.36810016609E+03  0.26291619662E+03 0.  0.
         25    1    3    3    0    0 -0.10043106228E+03 -0.27070674577E+02 -0.79903951963E+02  0.18124946712E+03  0.12509000000E+03 0.  0.
         25    1    4    4    0    0  0.64536662551E+02 -0.72119120407E+01 -0.16176297457E+03  0.21455013524E+03  0.12509000000E+03 0.  0.
         25    1    4    4    0    0  0.35894399727E+02  0.34282586618E+02 -0.73935108013E+02  0.15355003085E+03  0.12509000000E+03 0.  0.
<mgrwt>
<rscale>  2 0.44964472E+03</rscale>
<asrwt>0</asrwt>
<pdfrwt beam="1">  1       21 0.17187324E-01 0.44964472E+03</pdfrwt>
<pdfrwt beam="2">  1       21 0.63599386E-01 0.44964472E+03</pdfrwt>
<totfact> 0.64603607E+04</totfact>
</mgrwt>
</event>
<event>
 7    0  0.4737014E-002  0.4608902E+03  0.7546771E-02  0.1024523E+00
         21   -1    0    0  502  501  0.00000000000E+00  0.00000000000E+00  0.12393949161E+03  0.12393949161E+03  0.00000000000E+00 0.  1.
         21   -1    0    0  501  502 -0.00000000000E+00 -0.00000000000E+00 -0.42847482492E+03  0.42847482492E+03  0.00000000000E+00 0.  1.
      99926    2    1    2    0    0  0.00000000000E+00  0.17763568394E-14 -0.30453533331E+03  0.55241431653E+03  0.46089023408E+03 0.  0.
      99925    2    3    3    0    0 -0.11601228090E+03 -0.46613515261E+01 -0.16126722899E+03  0.32958291090E+03  0.26293953391E+03 0.  0.
         25    1    4    4    0    0 -0.73487000803E+02 -0.25224235185E+02 -0.11906715954E+03  0.18937026670E+03  0.12509000000E+03 0.  0.
         25    1    3    3    0    0  0.11601228090E+03  0.46613515261E+01 -0.14326810432E+03  0.22283140563E+03  0.12509000000E+03 0.  0.
         25    1    4    4    0    0 -0.42525280098E+02  0.20562883659E+02 -0.42200069446E+02  0.14021264420E+03  0.12509000000E+03 0.  0.
<mgrwt>
<rscale>  2 0.46089023E+03</rscale>
<asrwt>0</asrwt>
<pdfrwt beam="1">  1       21 0.18226396E-01 0.46089023E+03</pdfrwt>
<pdfrwt beam="2">  1       21 0.63011003E-01 0.46089023E+03</pdfrwt>
<totfact> 0.58913463E+04</totfact>
</mgrwt>
</event>
<event>
 7    0  0.4737014E-002  0.4134204E+03  0.7546771E-02  0.1039229E+00
         21   -1    0    0  502  501  0.00000000000E+00  0.00000000000E+00  0.74222134275E+02  0.74222134275E+02  0.00000000000E+00 0. -1.
         21   -1    0    0  501  502 -0.00000000000E+00 -0.00000000000E+00 -0.57569213054E+03  0.57569213054E+03  0.00000000000E+00 0. -1.
      99926    2    1    2    0    0  0.13322676296E-14 -0.71054273576E-14 -0.50146999626E+03  0.64991426481E+03  0.41342036048E+03 0.  0.
      99925    2    3    3    0    0  0.14492809316E+01  0.62762312180E+02 -0.36682327864E+03  0.45570186842E+03  0.26298986080E+03 0.  0.
         25    1    4    4    0    0  0.34386506443E+02  0.47752163452E+02 -0.16173384743E+03  0.21276288785E+03  0.12509000000E+03 0.  0.
         25    1    4    4    0    0 -0.32937225511E+02  0.15010148728E+02 -0.20508943121E+03  0.24293898058E+03  0.12509000000E+03 0.  0.
         25    1    3    3    0    0 -0.14492809316E+01 -0.62762312180E+02 -0.13464671762E+03  0.19421239639E+03  0.12509000000E+03 0.  0.
<mgrwt>
<rscale>  2 0.41342036E+03</rscale>
<asrwt>0</asrwt>
<pdfrwt beam="1">  1       21 0.10915020E-01 0.41342036E+03</pdfrwt>
<pdfrwt beam="2">  1       21 0.84660608E-01 0.41342036E+03</pdfrwt>
<totfact> 0.78417386E+04</totfact>
</mgrwt>
</event>
<event>
 7    0  0.4737014E-002  0.4576082E+03  0.7546771E-02  0.1025477E+00
         21   -1    0    0  502  501  0.00000000000E+00  0.00000000000E+00  0.28130124163E+03  0.28130124163E+03  0.00000000000E+00 0.  1.
         21   -1    0    0  501  502 -0.00000000000E+00 -0.00000000000E+00 -0.18610413466E+03  0.18610413466E+03  0.00000000000E+00 0.  1.
      99926    2    1    2    0    0  0.17763568394E-14  0.00000000000E+00  0.95197106971E+02  0.46740537629E+03  0.45760823485E+03 0.  0.
      99925    2    3    3    0    0 -0.14257168419E+02 -0.11184843156E+03  0.33503276172E+02  0.28805383502E+03  0.26294334725E+03 0.  0.
         25    1    4    4    0    0 -0.43994985913E+02 -0.73505458444E+02  0.11022661239E+02  0.15201190206E+03  0.12509000000E+03 0.  0.
         25    1    4    4    0    0  0.29737817493E+02 -0.38342973121E+02  0.22480614933E+02  0.13604193296E+03  0.12509000000E+03 0.  0.
         25    1    3    3    0    0  0.14257168419E+02  0.11184843156E+03  0.61693830799E+02  0.17935154126E+03  0.12509000000E+03 0.  0.
<mgrwt>
<rscale>  2 0.45760823E+03</rscale>
<asrwt>0</asrwt>
<pdfrwt beam="1">  1       21 0.41367830E-01 0.45760823E+03</pdfrwt>
<pdfrwt beam="2">  1       21 0.27368255E-01 0.45760823E+03</pdfrwt>
<totfact> 0.66247890E+04</totfact>
</mgrwt>
</event>
<event>
 7    0  0.4737014E-002  0.4113791E+03  0.7546771E-02  0.1039909E+00
         21   -1    0    0  502  501  0.00000000000E+00  0.00000000000E+00  0.19827051373E+03  0.19827051373E+03  0.00000000000E+00 0.  1.
         21   -1    0    0  501  502 -0.00000000000E+00 -0.00000000000E+00 -0.21338618761E+03  0.21338618761E+03  0.00000000000E+00 0.  1.
      99926    2    1    2    0    0 -0.71054273576E-14  0.71054273576E-14 -0.15115673874E+02  0.41165670134E+03  0.41137909057E+03 0.  0.
      99925    2    3    3    0    0 -0.41862570275E+02  0.46922525617E+02 -0.23079361131E+02  0.27142429918E+03  0.26302907648E+03 0.  0.
         25    1    4    4    0    0 -0.25539997570E+02  0.39551536842E+02  0.25454221612E+02  0.13605896163E+03  0.12509000000E+03 0.  0.
         25    1    4    4    0    0 -0.16322572705E+02  0.73709887746E+01 -0.48533582743E+02  0.13536533755E+03  0.12509000000E+03 0.  0.
         25    1    3    3    0    0  0.41862570275E+02 -0.46922525617E+02  0.79636872571E+01  0.14023240216E+03  0.12509000000E+03 0.  0.
<mgrwt>
<rscale>  2 0.41137909E+03</rscale>
<asrwt>0</asrwt>
<pdfrwt beam="1">  1       21 0.29157429E-01 0.41137909E+03</pdfrwt>
<pdfrwt beam="2">  1       21 0.31380321E-01 0.41137909E+03</pdfrwt>
<totfact> 0.10341921E+05</totfact>
</mgrwt>
</event>
<event>
 7    0  0.4737014E-002  0.4547547E+03  0.7546771E-02  0.1026314E+00
         21   -1    0    0  502  501  0.00000000000E+00  0.00000000000E+00  0.13703805640E+03  0.13703805640E+03  0.00000000000E+00 0.  1.
         21   -1    0    0  501  502 -0.00000000000E+00 -0.00000000000E+00 -0.37727087234E+03  0.37727087234E+03  0.00000000000E+00 0.  1.
      99926    2    1    2    0    0 -0.35527136788E-14  0.00000000000E+00 -0.24023281594E+03  0.51430892874E+03  0.45475473426E+03 0.  0.
      99925    2    3    3    0    0 -0.25190851557E+02  0.10235229733E+03 -0.10605579594E+03  0.30273966688E+03  0.26323545026E+03 0.  0.
         25    1    4    4    0    0  0.78029508539E+01  0.12333585316E+02 -0.48438450004E+02  0.13493255689E+03  0.12509000000E+03 0.  0.
         25    1    3    3    0    0  0.25190851557E+02 -0.10235229733E+03 -0.13417701999E+03  0.21156926187E+03  0.12509000000E+03 0.  0.
         25    1    4    4    0    0 -0.32993802410E+02  0.90018712017E+02 -0.57617345938E+02  0.16780710999E+03  0.12509000000E+03 0.  0.
<mgrwt>
<rscale>  2 0.45475473E+03</rscale>
<asrwt>0</asrwt>
<pdfrwt beam="1">  1       21 0.20152655E-01 0.45475473E+03</pdfrwt>
<pdfrwt beam="2">  1       21 0.55481011E-01 0.45475473E+03</pdfrwt>
<totfact> 0.64401912E+04</totfact>
</mgrwt>
</event>
<event>
 7    0  0.4737014E-002  0.4134331E+03  0.7546771E-02  0.1039225E+00
         21   -1    0    0  502  501  0.00000000000E+00  0.00000000000E+00  0.55334437812E+03  0.55334437812E+03  0.00000000000E+00 0. -1.
         21   -1    0    0  501  502 -0.00000000000E+00 -0.00000000000E+00 -0.77224485558E+02  0.77224485558E+02  0.00000000000E+00 0. -1.
      99926    2    1    2    0    0  0.17763568394E-14  0.00000000000E+00  0.47611989256E+03  0.63056886367E+03  0.41343311399E+03 0.  0.
      99925    2    3    3    0    0  0.13811397034E+02 -0.34117018121E+02  0.39852683819E+03  0.47883582245E+03  0.26287901873E+03 0.  0.
         25    1    4    4    0    0 -0.52870078376E+01 -0.33408902418E+02  0.13858763396E+03  0.18973177805E+03  0.12509000000E+03 0.  0.
         25    1    3    3    0    0 -0.13811397034E+02  0.34117018121E+02  0.77593054370E+02  0.15173304123E+03  0.12509000000E+03 0.  0.
         25    1    4    4    0    0  0.19098404872E+02 -0.70811570343E+00  0.25993920422E+03  0.28910404440E+03  0.12509000000E+03 0.  0.
<mgrwt>
<rscale>  2 0.41343311E+03</rscale>
<asrwt>0</asrwt>
<pdfrwt beam="1">  1       21 0.81374171E-01 0.41343311E+03</pdfrwt>
<pdfrwt beam="2">  1       21 0.11356542E-01 0.41343311E+03</pdfrwt>
<totfact> 0.80019751E+04</totfact>
</mgrwt>
</event>
<event>
 7    0  0.4737014E-002  0.4550513E+03  0.7546771E-02  0.1026226E+00
         21   -1    0    0  502  501  0.00000000000E+00  0.00000000000E+00  0.89435548963E+03  0.89435548963E+03  0.00000000000E+00 0. -1.
         21   -1    0    0  501  502 -0.00000000000E+00 -0.00000000000E+00 -0.57882940498E+02  0.57882940498E+02  0.00000000000E+00 0. -1.
      99926    2    1    2    0    0  0.00000000000E+00  0.00000000000E+00  0.83647254913E+03  0.95223843013E+03  0.45505131838E+03 0.  0.
      99925    2    3    3    0    0  0.67841252873E+02  0.90577346319E+02  0.51844728073E+03  0.59224638758E+03  0.26298575902E+03 0.  0.
         25    1    3    3    0    0 -0.67841252873E+02 -0.90577346319E+02  0.31802526840E+03  0.35999204255E+03  0.12509000000E+03 0.  0.
         25    1    4    4    0    0  0.48474558313E+02  0.77625749338E+02  0.33348965777E+03  0.36774773922E+03  0.12509000000E+03 0.  0.
         25    1    4    4    0    0  0.19366694561E+02  0.12951596981E+02  0.18495762296E+03  0.22449864836E+03  0.12509000000E+03 0.  0.
<mgrwt>
<rscale>  2 0.45505132E+03</rscale>
<asrwt>0</asrwt>
<pdfrwt beam="1">  1       21 0.13152286E+00 0.45505132E+03</pdfrwt>
<pdfrwt beam="2">  1       21 0.85121977E-02 0.45505132E+03</pdfrwt>
<totfact> 0.41033838E+04</totfact>
</mgrwt>
</event>
<event>
 7    0  0.4737014E-002  0.4530086E+03  0.7546771E-02  0.1026829E+00
         21   -1    0    0  502  501  0.00000000000E+00  0.00000000000E+00  0.23610274481E+03  0.23610274481E+03  0.00000000000E+00 0.  1.
         21   -1    0    0  501  502 -0.00000000000E+00 -0.00000000000E+00 -0.21729606201E+03  0.21729606201E+03  0.00000000000E+00 0.  1.
      99926    2    1    2    0    0  0.00000000000E+00 -0.11102230246E-15  0.18806682792E+02  0.45339880682E+03  0.45300859452E+03 0.  0.
      99925    2    3    3    0    0 -0.42599800664E+02  0.69592610738E+00 -0.90952106800E+02  0.28161485145E+03  0.26309582189E+03 0.  0.
         25    1    4    4    0    0 -0.78181537958E+01  0.83078944306E+01 -0.84519279975E+02  0.15139736268E+03  0.12509000000E+03 0.  0.
         25    1    3    3    0    0  0.42599800664E+02 -0.69592610738E+00  0.10975878959E+03  0.17178395537E+03  0.12509000000E+03 0.  0.
         25    1    4    4    0    0 -0.34781646869E+02 -0.76119683232E+01 -0.64328268255E+01  0.13021748877E+03  0.12509000000E+03 0.  0.
<mgrwt>
<rscale>  2 0.45300859E+03</rscale>
<asrwt>0</asrwt>
<pdfrwt beam="1">  1       21 0.34720992E-01 0.45300859E+03</pdfrwt>
<pdfrwt beam="2">  1       21 0.31955303E-01 0.45300859E+03</pdfrwt>
<totfact> 0.69765216E+04</totfact>
</mgrwt>
</event>
<event>
 7    0  0.4737014E-002  0.4586871E+03  0.7546771E-02  0.1025163E+00
         21   -1    0    0  502  501  0.00000000000E+00  0.00000000000E+00  0.36162135805E+03  0.36162135805E+03  0.00000000000E+00 0. -1.
         21   -1    0    0  501  502 -0.00000000000E+00 -0.00000000000E+00 -0.14545179356E+03  0.14545179356E+03  0.00000000000E+00 0. -1.
      99926    2    1    2    0    0  0.00000000000E+00  0.17763568394E-14  0.21616956449E+03  0.50707315160E+03  0.45868714879E+03 0.  0.
      99925    2    3    3    0    0 -0.74327529277E+02  0.12143476613E+02  0.37350888307E+02  0.27621459602E+03  0.26311094345E+03 0.  0.
         25    1    4    4    0    0 -0.68128163448E+02  0.19687755721E+02 -0.47418939877E+01  0.14387163737E+03  0.12509000000E+03 0.  0.
         25    1    3    3    0    0  0.74327529277E+02 -0.12143476613E+02  0.17881867618E+03  0.23085855558E+03  0.12509000000E+03 0.  0.
         25    1    4    4    0    0 -0.61993658289E+01 -0.75442791082E+01  0.42092782294E+02  0.13234295865E+03  0.12509000000E+03 0.  0.
<mgrwt>
<rscale>  2 0.45868715E+03</rscale>
<asrwt>0</asrwt>
<pdfrwt beam="1">  1       21 0.53179611E-01 0.45868715E+03</pdfrwt>
<pdfrwt beam="2">  1       21 0.21389970E-01 0.45868715E+03</pdfrwt>
<totfact> 0.62915024E+04</totfact>
</mgrwt>
</event>
<event>
 7    0  0.4737014E-002  0.4608180E+03  0.7546771E-02  0.1024544E+00
         21   -1    0    0  502  501  0.00000000000E+00  0.00000000000E+00  0.12278613683E+03  0.12278613683E+03  0.00000000000E+00 0.  1.
         21   -1    0    0  501  502 -0.00000000000E+00 -0.00000000000E+00 -0.43236406323E+03  0.43236406323E+03  0.00000000000E+00 0.  1.
      99926    2    1    2    0    0  0.00000000000E+00  0.00000000000E+00 -0.30957792640E+03  0.55515020006E+03  0.46081802494E+03 0.  0.
      99925    2    3    3    0    0 -0.61113308403E+02  0.27457741017E+02 -0.31156343833E+03  0.41323397701E+03  0.26306231134E+03 0.  0.
         25    1    4    4    0    0 -0.27135542455E+01  0.42107127750E+02 -0.13793687747E+03  0.19093052100E+03  0.12509000000E+03 0.  0.
         25    1    4    4    0    0 -0.58399754158E+02 -0.14649386732E+02 -0.17362656086E+03  0.22230345601E+03  0.12509000000E+03 0.  0.
         25    1    3    3    0    0  0.61113308403E+02 -0.27457741017E+02  0.19855119308E+01  0.14191622305E+03  0.12509000000E+03 0.  0.
<mgrwt>
<rscale>  2 0.46081802E+03</rscale>
<asrwt>0</asrwt>
<pdfrwt beam="1">  1       21 0.18056785E-01 0.46081802E+03</pdfrwt>
<pdfrwt beam="2">  1       21 0.63582950E-01 0.46081802E+03</pdfrwt>
<totfact> 0.58775182E+04</totfact>
</mgrwt>
</event>
<event>
 7    0  0.4737014E-002  0.4295411E+03  0.7546771E-02  0.1034005E+00
         21   -1    0    0  502  501  0.00000000000E+00  0.00000000000E+00  0.17268390203E+04  0.17268390203E+04  0.00000000000E+00 0.  1.
         21   -1    0    0  501  502 -0.00000000000E+00 -0.00000000000E+00 -0.26711459751E+02  0.26711459751E+02  0.00000000000E+00 0.  1.
      99926    2    1    2    0    0 -0.44408920985E-15  0.00000000000E+00  0.17001275605E+04  0.17535504800E+04  0.42954110856E+03 0.  0.
      99925    2    3    3    0    0 -0.87500105569E+00 -0.56057162558E+02  0.13694148444E+04  0.13955538602E+04  0.26292658588E+03 0.  0.
         25    1    3    3    0    0  0.87500105569E+00  0.56057162558E+02  0.33071271619E+03  0.35799661989E+03  0.12509000000E+03 0.  0.
         25    1    4    4    0    0  0.31840474040E+02 -0.59597965758E+01  0.71954101442E+03  0.73105137610E+03  0.12509000000E+03 0.  0.
         25    1    4    4    0    0 -0.32715475096E+02 -0.50097365982E+02  0.64987382994E+03  0.66450248407E+03  0.12509000000E+03 0.  0.
<mgrwt>
<rscale>  2 0.42954111E+03</rscale>
<asrwt>0</asrwt>
<pdfrwt beam="1">  1       21 0.25394684E+00 0.42954111E+03</pdfrwt>
<pdfrwt beam="2">  1       21 0.39281570E-02 0.42954111E+03</pdfrwt>
<totfact> 0.22252318E+04</totfact>
</mgrwt>
</event>
<event>
 7    0  0.4737014E-002  0.4509900E+03  0.7546771E-02  0.1027427E+00
         21   -1    0    0  502  501  0.00000000000E+00  0.00000000000E+00  0.28263605226E+02  0.28263605226E+02  0.00000000000E+00 0.  1.
         21   -1    0    0  501  502 -0.00000000000E+00 -0.00000000000E+00 -0.17990629874E+04  0.17990629874E+04  0.00000000000E+00 0.  1.
      99926    2    1    2    0    0  0.00000000000E+00 -0.14210854715E-13 -0.17707993822E+04  0.18273265927E+04  0.45099004891E+03 0.  0.
      99925    2    3    3    0    0 -0.44269731547E+01 -0.85632470506E+02 -0.84247521829E+03  0.88669607035E+03  0.26289334270E+03 0.  0.
         25    1    3    3    0    0  0.44269731547E+01  0.85632470506E+02 -0.92832416391E+03  0.94063052231E+03  0.12509000000E+03 0.  0.
         25    1    4    4    0    0 -0.29868584736E+02 -0.19802528745E+02 -0.33828692142E+03  0.36244975073E+03  0.12509000000E+03 0.  0.
         25    1    4    4    0    0  0.25441611581E+02 -0.65829941761E+02 -0.50418829687E+03  0.52424631962E+03  0.12509000000E+03 0.  0.
<mgrwt>
<rscale>  2 0.45099005E+03</rscale>
<asrwt>0</asrwt>
<pdfrwt beam="1">  1       21 0.41564110E-02 0.45099005E+03</pdfrwt>
<pdfrwt beam="2">  1       21 0.26456818E+00 0.45099005E+03</pdfrwt>
<totfact> 0.17271521E+04</totfact>
</mgrwt>
</event>
<event>
 7    0  0.4737014E-002  0.4466348E+03  0.7546771E-02  0.1028730E+00
         21   -1    0    0  502  501  0.00000000000E+00  0.00000000000E+00  0.39648510596E+03  0.39648510596E+03  0.00000000000E+00 0.  1.
         21   -1    0    0  501  502 -0.00000000000E+00 -0.00000000000E+00 -0.12578193822E+03  0.12578193822E+03  0.00000000000E+00 0.  1.
      99926    2    1    2    0    0  0.00000000000E+00  0.00000000000E+00  0.27070316773E+03  0.52226704418E+03  0.44663481774E+03 0.  0.
      99925    2    3    3    0    0 -0.87290564298E+02  0.51375182572E+02  0.20488180449E+03  0.34837336414E+03  0.26292279291E+03 0.  0.
         25    1    3    3    0    0  0.87290564298E+02 -0.51375182572E+02  0.65821363239E+02  0.17389368004E+03  0.12509000000E+03 0.  0.
         25    1    4    4    0    0 -0.16010939022E+01  0.26040765363E+02  0.10030417375E+03  0.16244728478E+03  0.12509000000E+03 0.  0.
         25    1    4    4    0    0 -0.85689470396E+02  0.25334417209E+02  0.10457763075E+03  0.18592607936E+03  0.12509000000E+03 0.  0.
<mgrwt>
<rscale>  2 0.44663482E+03</rscale>
<asrwt>0</asrwt>
<pdfrwt beam="1">  1       21 0.58306633E-01 0.44663482E+03</pdfrwt>
<pdfrwt beam="2">  1       21 0.18497344E-01 0.44663482E+03</pdfrwt>
<totfact> 0.68139150E+04</totfact>
</mgrwt>
</event>
<event>
 7    0  0.4737014E-002  0.4589503E+03  0.7546771E-02  0.1025086E+00
         21   -1    0    0  502  501  0.00000000000E+00  0.00000000000E+00  0.20255287097E+03  0.20255287097E+03  0.00000000000E+00 0.  1.
         21   -1    0    0  501  502 -0.00000000000E+00 -0.00000000000E+00 -0.25997574829E+03  0.25997574829E+03  0.00000000000E+00 0.  1.
      99926    2    1    2    0    0  0.00000000000E+00  0.00000000000E+00 -0.57422877317E+02  0.46252861925E+03  0.45895025525E+03 0.  0.
      99925    2    3    3    0    0  0.45002064365E+02 -0.14762038248E+02 -0.14377426869E+03  0.30332065946E+03  0.26284839461E+03 0.  0.
         25    1    3    3    0    0 -0.45002064365E+02  0.14762038248E+02  0.86351391370E+02  0.15920795979E+03  0.12509000000E+03 0.  0.
         25    1    4    4    0    0  0.52758624496E+02  0.12810610374E+02 -0.94265398804E+02  0.16577411652E+03  0.12509000000E+03 0.  0.
         25    1    4    4    0    0 -0.77565601315E+01 -0.27572648622E+02 -0.49508869883E+02  0.13754654294E+03  0.12509000000E+03 0.  0.
<mgrwt>
<rscale>  2 0.45895026E+03</rscale>
<asrwt>0</asrwt>
<pdfrwt beam="1">  1       21 0.29787187E-01 0.45895026E+03</pdfrwt>
<pdfrwt beam="2">  1       21 0.38231727E-01 0.45895026E+03</pdfrwt>
<totfact> 0.65896135E+04</totfact>
</mgrwt>
</event>
<event>
 7    0  0.4737014E-002  0.4689046E+03  0.7546771E-02  0.1022230E+00
         21   -1    0    0  502  501  0.00000000000E+00  0.00000000000E+00  0.18504080464E+03  0.18504080464E+03  0.00000000000E+00 0.  1.
         21   -1    0    0  501  502 -0.00000000000E+00 -0.00000000000E+00 -0.29705810755E+03  0.29705810755E+03  0.00000000000E+00 0.  1.
      99926    2    1    2    0    0  0.00000000000E+00  0.00000000000E+00 -0.11201730290E+03  0.48209891219E+03  0.46890455850E+03 0.  0.
      99925    2    3    3    0    0  0.10817086803E+03 -0.26095841656E+02 -0.10671531392E+02  0.28639402430E+03  0.26367731402E+03 0.  0.
         25    1    4    4    0    0  0.20538861828E+02 -0.32054989488E+01  0.21570749593E+02  0.12862707882E+03  0.12509000000E+03 0.  0.
         25    1    3    3    0    0 -0.10817086803E+03  0.26095841656E+02 -0.10134577151E+03  0.19570488789E+03  0.12509000000E+03 0.  0.
         25    1    4    4    0    0  0.87632006205E+02 -0.22890342707E+02 -0.32242280985E+02  0.15776694547E+03  0.12509000000E+03 0.  0.
<mgrwt>
<rscale>  2 0.46890456E+03</rscale>
<asrwt>0</asrwt>
<pdfrwt beam="1">  1       21 0.27211883E-01 0.46890456E+03</pdfrwt>
<pdfrwt beam="2">  1       21 0.43685015E-01 0.46890456E+03</pdfrwt>
<totfact> 0.59685305E+04</totfact>
</mgrwt>
</event>
<event>
 7    0  0.4737014E-002  0.4360285E+03  0.7546771E-02  0.1031972E+00
         21   -1    0    0  502  501  0.00000000000E+00  0.00000000000E+00  0.62981617416E+03  0.62981617416E+03  0.00000000000E+00 0.  1.
         21   -1    0    0  501  502 -0.00000000000E+00 -0.00000000000E+00 -0.75466805984E+02  0.75466805984E+02  0.00000000000E+00 0.  1.
      99926    2    1    2    0    0  0.00000000000E+00  0.00000000000E+00  0.55434936818E+03  0.70528298015E+03  0.43602850834E+03 0.  0.
      99925    2    3    3    0    0 -0.10059606240E+02  0.52524267544E+02  0.22951399768E+03  0.35311040826E+03  0.26296442903E+03 0.  0.
         25    1    4    4    0    0 -0.22510687724E+02  0.80641398506E+00  0.14600009714E+03  0.19357406290E+03  0.12509000000E+03 0.  0.
         25    1    4    4    0    0  0.12451081485E+02  0.51717853559E+02  0.83513900540E+02  0.15953634536E+03  0.12509000000E+03 0.  0.
         25    1    3    3    0    0  0.10059606240E+02 -0.52524267544E+02  0.32483537050E+03  0.35217257189E+03  0.12509000000E+03 0.  0.
<mgrwt>
<rscale>  2 0.43602851E+03</rscale>
<asrwt>0</asrwt>
<pdfrwt beam="1">  1       21 0.92620023E-01 0.43602851E+03</pdfrwt>
<pdfrwt beam="2">  1       21 0.11098060E-01 0.43602851E+03</pdfrwt>
<totfact> 0.61262688E+04</totfact>
</mgrwt>
</event>
<event>
 7    0  0.4737014E-002  0.4573742E+03  0.7546771E-02  0.1025546E+00
         21   -1    0    0  502  501  0.00000000000E+00  0.00000000000E+00  0.75779331010E+02  0.75779331010E+02  0.00000000000E+00 0.  1.
         21   -1    0    0  501  502 -0.00000000000E+00 -0.00000000000E+00 -0.69013266030E+03  0.69013266030E+03  0.00000000000E+00 0.  1.
      99926    2    1    2    0    0  0.14210854715E-13 -0.71054273576E-14 -0.61435332929E+03  0.76591199131E+03  0.45737420699E+03 0.  0.
      99925    2    3    3    0    0 -0.76243361565E+02  0.50715952996E+02 -0.50337201531E+03  0.57525649513E+03  0.26296671143E+03 0.  0.
         25    1    4    4    0    0 -0.12483894659E+02  0.37813780855E+02 -0.18284879488E+03  0.22509313525E+03  0.12509000000E+03 0.  0.
         25    1    3    3    0    0  0.76243361565E+02 -0.50715952996E+02 -0.11098131398E+03  0.19065549618E+03  0.12509000000E+03 0.  0.
         25    1    4    4    0    0 -0.63759466906E+02  0.12902172141E+02 -0.32052322043E+03  0.35016335988E+03  0.12509000000E+03 0.  0.
<mgrwt>
<rscale>  2 0.45737421E+03</rscale>
<asrwt>0</asrwt>
<pdfrwt beam="1">  1       21 0.11144019E-01 0.45737421E+03</pdfrwt>
<pdfrwt beam="2">  1       21 0.10149010E+00 0.45737421E+03</pdfrwt>
<totfact> 0.48546438E+04</totfact>
</mgrwt>
</event>
<event>
 7    0  0.4737014E-002  0.4521032E+03  0.7546771E-02  0.1027097E+00
         21   -1    0    0  502  501  0.00000000000E+00  0.00000000000E+00  0.27765383417E+02  0.27765383417E+02  0.00000000000E+00 0.  1.
         21   -1    0    0  501  502 -0.00000000000E+00 -0.00000000000E+00 -0.18403971155E+04  0.18403971155E+04  0.00000000000E+00 0.  1.
      99926    2    1    2    0    0  0.17763568394E-14  0.00000000000E+00 -0.18126317321E+04  0.18681624989E+04  0.45210322516E+03 0.  0.
      99925    2    3    3    0    0  0.13384317248E+02 -0.97143703943E+02 -0.93388758987E+03  0.97515924319E+03  0.26300851679E+03 0.  0.
         25    1    3    3    0    0 -0.13384317248E+02  0.97143703943E+02 -0.87874414219E+03  0.89300325570E+03  0.12509000000E+03 0.  0.
         25    1    4    4    0    0 -0.84326380498E+01 -0.83307004737E+02 -0.56843497767E+03  0.58802805916E+03  0.12509000000E+03 0.  0.
         25    1    4    4    0    0  0.21816955298E+02 -0.13836699206E+02 -0.36545261220E+03  0.38713118403E+03  0.12509000000E+03 0.  0.
<mgrwt>
<rscale>  2 0.45210323E+03</rscale>
<asrwt>0</asrwt>
<pdfrwt beam="1">  1       21 0.40831436E-02 0.45210323E+03</pdfrwt>
<pdfrwt beam="2">  1       21 0.27064670E+00 0.45210323E+03</pdfrwt>
<totfact> 0.16348509E+04</totfact>
</mgrwt>
</event>
<event>
 7    0  0.4737014E-002  0.4479667E+03  0.7546771E-02  0.1028330E+00
         21   -1    0    0  502  501  0.00000000000E+00  0.00000000000E+00  0.52671944761E+03  0.52671944761E+03  0.00000000000E+00 0.  1.
         21   -1    0    0  501  502 -0.00000000000E+00 -0.00000000000E+00 -0.95247191843E+02  0.95247191843E+02  0.00000000000E+00 0.  1.
      99926    2    1    2    0    0  0.00000000000E+00  0.71054273576E-14  0.43147225577E+03  0.62196663945E+03  0.44796673213E+03 0.  0.
      99925    2    3    3    0    0 -0.88082655089E+02  0.56338802031E+02  0.30190895909E+03  0.41371974107E+03  0.26283529030E+03 0.  0.
         25    1    3    3    0    0  0.88082655089E+02 -0.56338802031E+02  0.12956329667E+03  0.20824689838E+03  0.12509000000E+03 0.  0.
         25    1    4    4    0    0 -0.79623869618E+02  0.14732335756E+02  0.18291214702E+03  0.23592660714E+03  0.12509000000E+03 0.  0.
         25    1    4    4    0    0 -0.84587854716E+01  0.41606466275E+02  0.11899681207E+03  0.17779313392E+03  0.12509000000E+03 0.  0.
<mgrwt>
<rscale>  2 0.44796673E+03</rscale>
<asrwt>0</asrwt>
<pdfrwt beam="1">  1       21 0.77458741E-01 0.44796673E+03</pdfrwt>
<pdfrwt beam="2">  1       21 0.14006940E-01 0.44796673E+03</pdfrwt>
<totfact> 0.60644347E+04</totfact>
</mgrwt>
</event>
<event>
 7    0  0.4737014E-002  0.4553193E+03  0.7546771E-02  0.1026148E+00
         21   -1    0    0  502  501  0.00000000000E+00  0.00000000000E+00  0.17576144786E+04  0.17576144786E+04  0.00000000000E+00 0.  1.
         21   -1    0    0  501  502 -0.00000000000E+00 -0.00000000000E+00 -0.29488222607E+02  0.29488222607E+02  0.00000000000E+00 0.  1.
      99926    2    1    2    0    0  0.00000000000E+00  0.00000000000E+00  0.17281262560E+04  0.17871027012E+04  0.45531934728E+03 0.  0.
      99925    2    3    3    0    0 -0.23882894990E+02  0.48122990560E+02  0.14793515478E+04  0.15035139524E+04  0.26303419605E+03 0.  0.
         25    1    3    3    0    0  0.23882894990E+02 -0.48122990560E+02  0.24877470817E+03  0.28358874875E+03  0.12509000000E+03 0.  0.
         25    1    4    4    0    0 -0.14345609000E+02  0.26715268377E+01  0.91365243059E+03  0.92229128023E+03  0.12509000000E+03 0.  0.
         25    1    4    4    0    0 -0.95372859903E+01  0.45451463722E+02  0.56569911722E+03  0.58122267222E+03  0.12509000000E+03 0.  0.
<mgrwt>
<rscale>  2 0.45531935E+03</rscale>
<asrwt>0</asrwt>
<pdfrwt beam="1">  1       21 0.25847265E+00 0.45531935E+03</pdfrwt>
<pdfrwt beam="2">  1       21 0.43365045E-02 0.45531935E+03</pdfrwt>
<totfact> 0.17465247E+04</totfact>
</mgrwt>
</event>
<event>
 7    0  0.4737014E-002  0.4563669E+03  0.7546771E-02  0.1025840E+00
         21   -1    0    0  502  501  0.00000000000E+00  0.00000000000E+00  0.69067572993E+02  0.69067572993E+02  0.00000000000E+00 0.  1.
         21   -1    0    0  501  502 -0.00000000000E+00 -0.00000000000E+00 -0.75386572995E+03  0.75386572995E+03  0.00000000000E+00 0.  1.
      99926    2    1    2    0    0 -0.71054273576E-14  0.00000000000E+00 -0.68479815695E+03  0.82293330294E+03  0.45636685388E+03 0.  0.
      99925    2    3    3    0    0 -0.52377612989E+02  0.90805379488E+02 -0.51338355769E+03  0.58624890500E+03  0.26293738803E+03 0.  0.
         25    1    3    3    0    0  0.52377612989E+02 -0.90805379488E+02 -0.17141459926E+03  0.23668439794E+03  0.12509000000E+03 0.  0.
         25    1    4    4    0    0 -0.65077395399E+01  0.57925964545E+02 -0.18891839022E+03  0.23395605208E+03  0.12509000000E+03 0.  0.
         25    1    4    4    0    0 -0.45869873449E+02  0.32879414943E+02 -0.32446516747E+03  0.35229285292E+03  0.12509000000E+03 0.  0.
<mgrwt>
<rscale>  2 0.45636685E+03</rscale>
<asrwt>0</asrwt>
<pdfrwt beam="1">  1       21 0.10156996E-01 0.45636685E+03</pdfrwt>
<pdfrwt beam="2">  1       21 0.11086261E+00 0.45636685E+03</pdfrwt>
<totfact> 0.46178222E+04</totfact>
</mgrwt>
</event>
<event>
 7    0  0.4737014E-002  0.4526787E+03  0.7546771E-02  0.1026926E+00
         21   -1    0    0  502  501  0.00000000000E+00  0.00000000000E+00  0.29383922407E+02  0.29383922407E+02  0.00000000000E+00 0.  1.
         21   -1    0    0  501  502 -0.00000000000E+00 -0.00000000000E+00 -0.17434537908E+04  0.17434537908E+04  0.00000000000E+00 0.  1.
      99926    2    1    2    0    0  0.00000000000E+00 -0.44408920985E-15 -0.17140698684E+04  0.17728377132E+04  0.45267874219E+03 0.  0.
      99925    2    3    3    0    0 -0.77215830931E+02  0.38033092584E+01 -0.13946080069E+04  0.14211558417E+04  0.26225118443E+03 0.  0.
         25    1    3    3    0    0  0.77215830931E+02 -0.38033092584E+01 -0.31946186147E+03  0.35168187150E+03  0.12509000000E+03 0.  0.
         25    1    4    4    0    0 -0.59501729149E+02  0.74765568809E+01 -0.55426892865E+03  0.57136495171E+03  0.12509000000E+03 0.  0.
         25    1    4    4    0    0 -0.17714101782E+02 -0.36732476225E+01 -0.84033907823E+03  0.84979088995E+03  0.12509000000E+03 0.  0.
<mgrwt>
<rscale>  2 0.45267874E+03</rscale>
<asrwt>0</asrwt>
<pdfrwt beam="1">  1       21 0.43211646E-02 0.45267874E+03</pdfrwt>
<pdfrwt beam="2">  1       21 0.25639029E+00 0.45267874E+03</pdfrwt>
<totfact> 0.18111440E+04</totfact>
</mgrwt>
</event>
<event>
 7    0  0.4737014E-002  0.4393160E+03  0.7546771E-02  0.1030957E+00
         21   -1    0    0  502  501  0.00000000000E+00  0.00000000000E+00  0.35422704140E+03  0.35422704140E+03  0.00000000000E+00 0.  1.
         21   -1    0    0  501  502 -0.00000000000E+00 -0.00000000000E+00 -0.13621102776E+03  0.13621102776E+03  0.00000000000E+00 0.  1.
      99926    2    1    2    0    0  0.00000000000E+00  0.00000000000E+00  0.21801601364E+03  0.49043806915E+03  0.43931596542E+03 0.  0.
      99925    2    3    3    0    0  0.13836365023E+02  0.40648139821E+02  0.41286934627E+02  0.26970204641E+03  0.26304156820E+03 0.  0.
         25    1    3    3    0    0 -0.13836365023E+02 -0.40648139821E+02  0.17672907901E+03  0.22073602274E+03  0.12509000000E+03 0.  0.
         25    1    4    4    0    0 -0.78747734080E+01  0.58489668761E+02  0.20876995947E+02  0.13987998594E+03  0.12509000000E+03 0.  0.
         25    1    4    4    0    0  0.21711138431E+02 -0.17841528940E+02  0.20409938680E+02  0.12982206047E+03  0.12509000000E+03 0.  0.
<mgrwt>
<rscale>  2 0.43931597E+03</rscale>
<asrwt>0</asrwt>
<pdfrwt beam="1">  1       21 0.52092212E-01 0.43931597E+03</pdfrwt>
<pdfrwt beam="2">  1       21 0.20031034E-01 0.43931597E+03</pdfrwt>
<totfact> 0.74840336E+04</totfact>
</mgrwt>
</event>
<event>
 7    0  0.4737014E-002  0.4561208E+03  0.7546771E-02  0.1025912E+00
         21   -1    0    0  502  501  0.00000000000E+00  0.00000000000E+00  0.20026647837E+03  0.20026647837E+03  0.00000000000E+00 0.  1.
         21   -1    0    0  501  502 -0.00000000000E+00 -0.00000000000E+00 -0.25971167596E+03  0.25971167596E+03  0.00000000000E+00 0.  1.
      99926    2    1    2    0    0  0.14210854715E-13  0.00000000000E+00 -0.59445197590E+02  0.45997815433E+03  0.45612078548E+03 0.  0.
      99925    2    3    3    0    0  0.75109578890E+02 -0.75267500537E+01  0.49070885832E+02  0.27798543670E+03  0.26300161668E+03 0.  0.
         25    1    4    4    0    0  0.59911132049E+02 -0.12973599947E+02 -0.80316099578E+01  0.13953376974E+03  0.12509000000E+03 0.  0.
         25    1    4    4    0    0  0.15198446841E+02  0.54468498928E+01  0.57102495790E+02  0.13845166697E+03  0.12509000000E+03 0.  0.
         25    1    3    3    0    0 -0.75109578890E+02  0.75267500537E+01 -0.10851608342E+03  0.18199271763E+03  0.12509000000E+03 0.  0.
<mgrwt>
<rscale>  2 0.45612079E+03</rscale>
<asrwt>0</asrwt>
<pdfrwt beam="1">  1       21 0.29450953E-01 0.45612079E+03</pdfrwt>
<pdfrwt beam="2">  1       21 0.38192893E-01 0.45612079E+03</pdfrwt>
<totfact> 0.67576123E+04</totfact>
</mgrwt>
</event>
<event>
 7    0  0.4737014E-002  0.4574914E+03  0.7546771E-02  0.1025511E+00
         21   -1    0    0  502  501  0.00000000000E+00  0.00000000000E+00  0.16514183683E+03  0.16514183683E+03  0.00000000000E+00 0.  1.
         21   -1    0    0  501  502 -0.00000000000E+00 -0.00000000000E+00 -0.31684633997E+03  0.31684633997E+03  0.00000000000E+00 0.  1.
      99926    2    1    2    0    0  0.00000000000E+00 -0.71054273576E-14 -0.15170450313E+03  0.48198817680E+03  0.45749136200E+03 0.  0.
      99925    2    3    3    0    0  0.65518533092E+02 -0.63618835235E+02 -0.20841714626E+02  0.27922572492E+03  0.26304485172E+03 0.  0.
         25    1    4    4    0    0  0.61158058381E+02 -0.28280095291E+01 -0.83627784478E+01  0.13951971153E+03  0.12509000000E+03 0.  0.
         25    1    3    3    0    0 -0.65518533092E+02  0.63618835235E+02 -0.13086278851E+03  0.20276245188E+03  0.12509000000E+03 0.  0.
         25    1    4    4    0    0  0.43604747108E+01 -0.60790825706E+02 -0.12478936178E+02  0.13970601339E+03  0.12509000000E+03 0.  0.
<mgrwt>
<rscale>  2 0.45749136E+03</rscale>
<asrwt>0</asrwt>
<pdfrwt beam="1">  1       21 0.24285564E-01 0.45749136E+03</pdfrwt>
<pdfrwt beam="2">  1       21 0.46595050E-01 0.45749136E+03</pdfrwt>
<totfact> 0.65255624E+04</totfact>
</mgrwt>
</event>
<event>
 6    0  0.4737014E-002  0.4553717E+03  0.7546771E-02  0.1026132E+00
         21   -1    0    0  502  501  0.00000000000E+00  0.00000000000E+00  0.87962484932E+02  0.87962484932E+02  0.00000000000E+00 0.  1.
         21   -1    0    0  501  502 -0.00000000000E+00 -0.00000000000E+00 -0.58935175168E+03  0.58935175168E+03  0.00000000000E+00 0.  1.
      99926    2    1    2    0    0  0.00000000000E+00  0.00000000000E+00 -0.50138926675E+03  0.67731423661E+03  0.45537169247E+03 0.  0.
         25    1    3    3    0    0 -0.42023992246E+02 -0.83849245575E+02 -0.29386140681E+03  0.33286445653E+03  0.12509000000E+03 0.  0.
         25    1    3    3    0    0  0.23038382265E+02  0.52001132113E+02 -0.14500846854E+03  0.19977449499E+03  0.12509000000E+03 0.  0.
         25    1    3    3    0    0  0.18985609980E+02  0.31848113462E+02 -0.62519391399E+02  0.14467528510E+03  0.12509000000E+03 0.  0.
<mgrwt>
<rscale>  2 0.45537169E+03</rscale>
<asrwt>0</asrwt>
<pdfrwt beam="1">  1       21 0.12935659E-01 0.45537169E+03</pdfrwt>
<pdfrwt beam="2">  1       21 0.86669376E-01 0.45537169E+03</pdfrwt>
<totfact> 0.53994276E+04</totfact>
</mgrwt>
</event>
<event>
 7    0  0.4737014E-002  0.4521434E+03  0.7546771E-02  0.1027085E+00
         21   -1    0    0  502  501  0.00000000000E+00  0.00000000000E+00  0.83295841711E+02  0.83295841711E+02  0.00000000000E+00 0. -1.
         21   -1    0    0  501  502 -0.00000000000E+00 -0.00000000000E+00 -0.61357693953E+03  0.61357693953E+03  0.00000000000E+00 0. -1.
      99926    2    1    2    0    0  0.00000000000E+00  0.00000000000E+00 -0.53028109782E+03  0.69687278124E+03  0.45214337387E+03 0.  0.
      99925    2    3    3    0    0  0.19112284883E+02 -0.95209492759E+02 -0.25331760607E+03  0.37783295488E+03  0.26297871644E+03 0.  0.
         25    1    4    4    0    0  0.80459994372E+01 -0.11266368930E+02 -0.86068730625E+02  0.15246968114E+03  0.12509000000E+03 0.  0.
         25    1    3    3    0    0 -0.19112284883E+02  0.95209492759E+02 -0.27696349175E+03  0.31903982636E+03  0.12509000000E+03 0.  0.
         25    1    4    4    0    0  0.11066285446E+02 -0.83943123829E+02 -0.16724887545E+03  0.22536327374E+03  0.12509000000E+03 0.  0.
<mgrwt>
<rscale>  2 0.45214337E+03</rscale>
<asrwt>0</asrwt>
<pdfrwt beam="1">  1       21 0.12249388E-01 0.45214337E+03</pdfrwt>
<pdfrwt beam="2">  1       21 0.90231903E-01 0.45214337E+03</pdfrwt>
<totfact> 0.54283272E+04</totfact>
</mgrwt>
</event>
<event>
 7    0  0.4737014E-002  0.4641199E+03  0.7546771E-02  0.1023593E+00
         21   -1    0    0  502  501  0.00000000000E+00  0.00000000000E+00  0.43862767049E+03  0.43862767049E+03  0.00000000000E+00 0.  1.
         21   -1    0    0  501  502 -0.00000000000E+00 -0.00000000000E+00 -0.12277344220E+03  0.12277344220E+03  0.00000000000E+00 0.  1.
      99926    2    1    2    0    0  0.00000000000E+00  0.00000000000E+00  0.31585422829E+03  0.56140111268E+03  0.46411993686E+03 0.  0.
      99925    2    3    3    0    0 -0.87854085807E+02  0.87466863152E+01  0.95865903279E+02  0.29337645681E+03  0.26283955008E+03 0.  0.
         25    1    4    4    0    0 -0.85756438342E+02  0.46347496275E+00  0.46574836927E+02  0.15865404206E+03  0.12509000000E+03 0.  0.
         25    1    4    4    0    0 -0.20976474653E+01  0.82832113524E+01  0.49291066353E+02  0.13472241475E+03  0.12509000000E+03 0.  0.
         25    1    3    3    0    0  0.87854085807E+02 -0.87466863152E+01  0.21998832501E+03  0.26802465587E+03  0.12509000000E+03 0.  0.
<mgrwt>
<rscale>  2 0.46411994E+03</rscale>
<asrwt>0</asrwt>
<pdfrwt beam="1">  1       21 0.64504069E-01 0.46411994E+03</pdfrwt>
<pdfrwt beam="2">  1       21 0.18054918E-01 0.46411994E+03</pdfrwt>
<totfact> 0.56902160E+04</totfact>
</mgrwt>
</event>
<event>
 7    0  0.4737014E-002  0.4489533E+03  0.7546771E-02  0.1028035E+00
         21   -1    0    0  502  501  0.00000000000E+00  0.00000000000E+00  0.20605234083E+04  0.20605234083E+04  0.00000000000E+00 0.  1.
         21   -1    0    0  501  502 -0.00000000000E+00 -0.00000000000E+00 -0.24454834276E+02  0.24454834276E+02  0.00000000000E+00 0.  1.
      99926    2    1    2    0    0  0.00000000000E+00  0.00000000000E+00  0.20360685740E+04  0.20849782426E+04  0.44895326470E+03 0.  0.
      99925    2    3    3    0    0 -0.34447711460E+02 -0.84523349437E+02  0.15511528074E+04  0.15759383126E+04  0.26301272211E+03 0.  0.
         25    1    4    4    0    0 -0.28707421987E+01 -0.42828659578E+02  0.55163407484E+03  0.56726554264E+03  0.12509000000E+03 0.  0.
         25    1    3    3    0    0  0.34447711460E+02  0.84523349437E+02  0.48491576667E+03  0.50903992995E+03  0.12509000000E+03 0.  0.
         25    1    4    4    0    0 -0.31576969262E+02 -0.41694689859E+02  0.99951873254E+03  0.10086727700E+04  0.12509000000E+03 0.  0.
<mgrwt>
<rscale>  2 0.44895326E+03</rscale>
<asrwt>0</asrwt>
<pdfrwt beam="1">  1       21 0.30301803E+00 0.44895326E+03</pdfrwt>
<pdfrwt beam="2">  1       21 0.35963006E-02 0.44895326E+03</pdfrwt>
<totfact> 0.12969953E+04</totfact>
</mgrwt>
</event>
<event>
 7    0  0.4737014E-002  0.4555799E+03  0.7546771E-02  0.1026071E+00
         21   -1    0    0  502  501  0.00000000000E+00  0.00000000000E+00  0.48577266966E+02  0.48577266966E+02  0.00000000000E+00 0. -1.
         21   -1    0    0  501  502 -0.00000000000E+00 -0.00000000000E+00 -0.10681593994E+04  0.10681593994E+04  0.00000000000E+00 0. -1.
      99926    2    1    2    0    0 -0.14210854715E-13  0.00000000000E+00 -0.10195821324E+04  0.11167366663E+04  0.45557991310E+03 0.  0.
      99925    2    3    3    0    0 -0.11340443548E+03  0.85344350829E+01 -0.64069758345E+03  0.70184582273E+03  0.26298433961E+03 0.  0.
         25    1    3    3    0    0  0.11340443548E+03 -0.85344350829E+01 -0.37888454894E+03  0.41489084359E+03  0.12509000000E+03 0.  0.
         25    1    4    4    0    0 -0.22891172405E+02  0.79677268892E+00 -0.22682038436E+03  0.26003775780E+03  0.12509000000E+03 0.  0.
         25    1    4    4    0    0 -0.90513263076E+02  0.77376623940E+01 -0.41387719908E+03  0.44180806492E+03  0.12509000000E+03 0.  0.
<mgrwt>
<rscale>  2 0.45557991E+03</rscale>
<asrwt>0</asrwt>
<pdfrwt beam="1">  1       21 0.71437154E-02 0.45557991E+03</pdfrwt>
<pdfrwt beam="2">  1       21 0.15708227E+00 0.45557991E+03</pdfrwt>
<totfact> 0.34755125E+04</totfact>
</mgrwt>
</event>
<event>
 7    0  0.4737014E-002  0.4440118E+03  0.7546771E-02  0.1029523E+00
         21   -1    0    0  502  501  0.00000000000E+00  0.00000000000E+00  0.60285527327E+02  0.60285527327E+02  0.00000000000E+00 0. -1.
         21   -1    0    0  501  502 -0.00000000000E+00 -0.00000000000E+00 -0.81755308581E+03  0.81755308581E+03  0.00000000000E+00 0. -1.
      99926    2    1    2    0    0  0.00000000000E+00  0.00000000000E+00 -0.75726755848E+03  0.87783861313E+03  0.44401179667E+03 0.  0.
      99925    2    3    3    0    0 -0.96878487163E+02  0.32719974443E+02 -0.46200054790E+03  0.54125852811E+03  0.26279316959E+03 0.  0.
         25    1    4    4    0    0 -0.66391788027E+01  0.16670302242E+02 -0.19086265083E+03  0.22890617565E+03  0.12509000000E+03 0.  0.
         25    1    4    4    0    0 -0.90239308360E+02  0.16049672201E+02 -0.27113789708E+03  0.31235235245E+03  0.12509000000E+03 0.  0.
         25    1    3    3    0    0  0.96878487163E+02 -0.32719974443E+02 -0.29526701058E+03  0.33658008503E+03  0.12509000000E+03 0.  0.
<mgrwt>
<rscale>  2 0.44401180E+03</rscale>
<asrwt>0</asrwt>
<pdfrwt beam="1">  1       21 0.88655185E-02 0.44401180E+03</pdfrwt>
<pdfrwt beam="2">  1       21 0.12022840E+00 0.44401180E+03</pdfrwt>
<totfact> 0.48223730E+04</totfact>
</mgrwt>
</event>
<event>
 7    0  0.4737014E-002  0.4533880E+03  0.7546771E-02  0.1026717E+00
         21   -1    0    0  502  501  0.00000000000E+00  0.00000000000E+00  0.11113991054E+04  0.11113991054E+04  0.00000000000E+00 0. -1.
         21   -1    0    0  501  502 -0.00000000000E+00 -0.00000000000E+00 -0.46239164380E+02  0.46239164380E+02  0.00000000000E+00 0. -1.
      99926    2    1    2    0    0  0.00000000000E+00 -0.71054273576E-14  0.10651599410E+04  0.11576382697E+04  0.45338798363E+03 0.  0.
      99925    2    3    3    0    0  0.10128270880E+03  0.39840953967E+02  0.60728009543E+03  0.67066090910E+03  0.26296663662E+03 0.  0.
         25    1    4    4    0    0  0.40136622818E+02  0.15796667210E+02  0.38665540247E+03  0.40866904892E+03  0.12509000000E+03 0.  0.
         25    1    3    3    0    0 -0.10128270880E+03 -0.39840953967E+02  0.45787984555E+03  0.48697736064E+03  0.12509000000E+03 0.  0.
         25    1    4    4    0    0  0.61146085982E+02  0.24044286756E+02  0.22062469296E+03  0.26199186018E+03  0.12509000000E+03 0.  0.
<mgrwt>
<rscale>  2 0.45338798E+03</rscale>
<asrwt>0</asrwt>
<pdfrwt beam="1">  1       21 0.16344103E+00 0.45338798E+03</pdfrwt>
<pdfrwt beam="2">  1       21 0.67998778E-02 0.45338798E+03</pdfrwt>
<totfact> 0.33952899E+04</totfact>
</mgrwt>
</event>
<event>
 7    0  0.4737014E-002  0.4617360E+03  0.7546771E-02  0.1024279E+00
         21   -1    0    0  502  501  0.00000000000E+00  0.00000000000E+00  0.97201104540E+02  0.97201104540E+02  0.00000000000E+00 0.  1.
         21   -1    0    0  501  502 -0.00000000000E+00 -0.00000000000E+00 -0.54834795078E+03  0.54834795078E+03  0.00000000000E+00 0.  1.
      99926    2    1    2    0    0  0.17763568394E-14  0.00000000000E+00 -0.45114684624E+03  0.64554905532E+03  0.46173596996E+03 0.  0.
      99925    2    3    3    0    0  0.55092501023E+01  0.10642998974E+03 -0.35756272565E+03  0.45643747376E+03  0.26291894212E+03 0.  0.
         25    1    4    4    0    0 -0.10970778232E+02  0.12554214544E+02 -0.14993725912E+03  0.19597616194E+03  0.12509000000E+03 0.  0.
         25    1    4    4    0    0  0.16480028335E+02  0.93875775195E+02 -0.20762546653E+03  0.26046131182E+03  0.12509000000E+03 0.  0.
         25    1    3    3    0    0 -0.55092501023E+01 -0.10642998974E+03 -0.93584120593E+02  0.18911158156E+03  0.12509000000E+03 0.  0.
<mgrwt>
<rscale>  2 0.46173597E+03</rscale>
<asrwt>0</asrwt>
<pdfrwt beam="1">  1       21 0.14294280E-01 0.46173597E+03</pdfrwt>
<pdfrwt beam="2">  1       21 0.80639404E-01 0.46173597E+03</pdfrwt>
<totfact> 0.53080612E+04</totfact>
</mgrwt>
</event>
<event>
 7    0  0.4737014E-002  0.4380773E+03  0.7546771E-02  0.1031338E+00
         21   -1    0    0  502  501  0.00000000000E+00  0.00000000000E+00  0.17697459109E+03  0.17697459109E+03  0.00000000000E+00 0.  1.
         21   -1    0    0  501  502 -0.00000000000E+00 -0.00000000000E+00 -0.27110065231E+03  0.27110065231E+03  0.00000000000E+00 0.  1.
      99926    2    1    2    0    0 -0.14210854715E-13  0.00000000000E+00 -0.94126061220E+02  0.44807524340E+03  0.43807728582E+03 0.  0.
      99925    2    3    3    0    0  0.96444858204E+02 -0.22128201595E+01 -0.59158015469E+02  0.28628284689E+03  0.26296708992E+03 0.  0.
         25    1    4    4    0    0  0.65350124478E+01 -0.13171092265E+01 -0.15901180760E+02  0.12627270811E+03  0.12509000000E+03 0.  0.
         25    1    3    3    0    0 -0.96444858204E+02  0.22128201595E+01 -0.34968045750E+02  0.16179239652E+03  0.12509000000E+03 0.  0.
         25    1    4    4    0    0  0.89909845756E+02 -0.89571093296E+00 -0.43256834709E+02  0.16001013878E+03  0.12509000000E+03 0.  0.
<mgrwt>
<rscale>  2 0.43807729E+03</rscale>
<asrwt>0</asrwt>
<pdfrwt beam="1">  1       21 0.26025675E-01 0.43807729E+03</pdfrwt>
<pdfrwt beam="2">  1       21 0.39867743E-01 0.43807729E+03</pdfrwt>
<totfact> 0.79212001E+04</totfact>
</mgrwt>
</event>
<event>
 7    0  0.4737014E-002  0.4423688E+03  0.7546771E-02  0.1030022E+00
         21   -1    0    0  502  501  0.00000000000E+00  0.00000000000E+00  0.45508113034E+03  0.45508113034E+03  0.00000000000E+00 0. -1.
         21   -1    0    0  501  502 -0.00000000000E+00 -0.00000000000E+00 -0.10750287964E+03  0.10750287964E+03  0.00000000000E+00 0. -1.
      99926    2    1    2    0    0  0.14210854715E-13  0.00000000000E+00  0.34757825070E+03  0.56258400999E+03  0.44236876917E+03 0.  0.
      99925    2    3    3    0    0 -0.91566886398E+02 -0.10859735001E+02  0.27325939267E+03  0.39032481781E+03  0.26302155652E+03 0.  0.
         25    1    3    3    0    0  0.91566886398E+02  0.10859735001E+02  0.74318858033E+02  0.17225919217E+03  0.12509000000E+03 0.  0.
         25    1    4    4    0    0 -0.57091133571E+02  0.18647747849E+02  0.96240188368E+02  0.16886923340E+03  0.12509000000E+03 0.  0.
         25    1    4    4    0    0 -0.34475752828E+02 -0.29507482850E+02  0.17701920430E+03  0.22145558441E+03  0.12509000000E+03 0.  0.
<mgrwt>
<rscale>  2 0.44236877E+03</rscale>
<asrwt>0</asrwt>
<pdfrwt beam="1">  1       21 0.66923695E-01 0.44236877E+03</pdfrwt>
<pdfrwt beam="2">  1       21 0.15809247E-01 0.44236877E+03</pdfrwt>
<totfact> 0.67541388E+04</totfact>
</mgrwt>
</event>
<event>
 7    0  0.4737014E-002  0.4531712E+03  0.7546771E-02  0.1026781E+00
         21   -1    0    0  502  501  0.00000000000E+00  0.00000000000E+00  0.40251976977E+03  0.40251976977E+03  0.00000000000E+00 0.  1.
         21   -1    0    0  501  502 -0.00000000000E+00 -0.00000000000E+00 -0.12754911422E+03  0.12754911422E+03  0.00000000000E+00 0.  1.
      99926    2    1    2    0    0  0.00000000000E+00  0.00000000000E+00  0.27497065555E+03  0.53006888400E+03  0.45317122632E+03 0.  0.
      99925    2    3    3    0    0  0.14864060998E+02  0.11020604840E+03  0.16569255604E+03  0.33018010356E+03  0.26305619979E+03 0.  0.
         25    1    4    4    0    0 -0.24296517591E+02  0.76438001690E+02  0.10433328114E+03  0.18156549927E+03  0.12509000000E+03 0.  0.
         25    1    3    3    0    0 -0.14864060998E+02 -0.11020604840E+03  0.10927809951E+03  0.19988878044E+03  0.12509000000E+03 0.  0.
         25    1    4    4    0    0  0.39160578589E+02  0.33768046705E+02  0.61359274900E+02  0.14861460430E+03  0.12509000000E+03 0.  0.
<mgrwt>
<rscale>  2 0.45317123E+03</rscale>
<asrwt>0</asrwt>
<pdfrwt beam="1">  1       21 0.59194084E-01 0.45317123E+03</pdfrwt>
<pdfrwt beam="2">  1       21 0.18757223E-01 0.45317123E+03</pdfrwt>
<totfact> 0.64126289E+04</totfact>
</mgrwt>
</event>
<event>
 7    0  0.4737014E-002  0.4557279E+03  0.7546771E-02  0.1026028E+00
         21   -1    0    0  502  501  0.00000000000E+00  0.00000000000E+00  0.65927469100E+02  0.65927469100E+02  0.00000000000E+00 0.  1.
         21   -1    0    0  501  502 -0.00000000000E+00 -0.00000000000E+00 -0.78756223593E+03  0.78756223593E+03  0.00000000000E+00 0.  1.
      99926    2    1    2    0    0  0.00000000000E+00 -0.35527136788E-14 -0.72163476683E+03  0.85348970503E+03  0.45572792310E+03 0.  0.
      99925    2    3    3    0    0  0.10524653260E+03  0.31686474165E+02 -0.50883798586E+03  0.58328451751E+03  0.26310428968E+03 0.  0.
         25    1    4    4    0    0  0.21997127590E+02  0.93379355932E+01 -0.29163464793E+03  0.31822845039E+03  0.12509000000E+03 0.  0.
         25    1    3    3    0    0 -0.10524653260E+03 -0.31686474165E+02 -0.21279678097E+03  0.27020518752E+03  0.12509000000E+03 0.  0.
         25    1    4    4    0    0  0.83249405013E+02  0.22348538572E+02 -0.21720333793E+03  0.26505606712E+03  0.12509000000E+03 0.  0.
<mgrwt>
<rscale>  2 0.45572792E+03</rscale>
<asrwt>0</asrwt>
<pdfrwt beam="1">  1       21 0.96952168E-02 0.45572792E+03</pdfrwt>
<pdfrwt beam="2">  1       21 0.11581797E+00 0.45572792E+03</pdfrwt>
<totfact> 0.45026021E+04</totfact>
</mgrwt>
</event>
<event>
 7    0  0.4737014E-002  0.4510587E+03  0.7546771E-02  0.1027407E+00
         21   -1    0    0  502  501  0.00000000000E+00  0.00000000000E+00  0.15827122599E+03  0.15827122599E+03  0.00000000000E+00 0. -1.
         21   -1    0    0  501  502 -0.00000000000E+00 -0.00000000000E+00 -0.32136907329E+03  0.32136907329E+03  0.00000000000E+00 0. -1.
      99926    2    1    2    0    0  0.00000000000E+00  0.00000000000E+00 -0.16309784730E+03  0.47964029929E+03  0.45105865351E+03 0.  0.
      99925    2    3    3    0    0 -0.53817314392E+02  0.32774272621E+02 -0.19860668546E+03  0.33514517147E+03  0.26250183653E+03 0.  0.
         25    1    4    4    0    0  0.49986021956E+01 -0.19954828691E+01 -0.11438174957E+03  0.16958673507E+03  0.12509000000E+03 0.  0.
         25    1    3    3    0    0  0.53817314392E+02 -0.32774272621E+02  0.35508838155E+02  0.14449512781E+03  0.12509000000E+03 0.  0.
         25    1    4    4    0    0 -0.58815916587E+02  0.34769755491E+02 -0.84224935888E+02  0.16555843641E+03  0.12509000000E+03 0.  0.
<mgrwt>
<rscale>  2 0.45105865E+03</rscale>
<asrwt>0</asrwt>
<pdfrwt beam="1">  1       21 0.23275180E-01 0.45105865E+03</pdfrwt>
<pdfrwt beam="2">  1       21 0.47260158E-01 0.45105865E+03</pdfrwt>
<totfact> 0.68855409E+04</totfact>
</mgrwt>
</event>
<event>
 7    0  0.4737014E-002  0.4574324E+03  0.7546771E-02  0.1025529E+00
         21   -1    0    0  502  501  0.00000000000E+00  0.00000000000E+00  0.59674834034E+03  0.59674834034E+03  0.00000000000E+00 0. -1.
         21   -1    0    0  501  502 -0.00000000000E+00 -0.00000000000E+00 -0.87660238530E+02  0.87660238530E+02  0.00000000000E+00 0. -1.
      99926    2    1    2    0    0  0.00000000000E+00 -0.14210854715E-13  0.50908810181E+03  0.68440857887E+03  0.45743240749E+03 0.  0.
      99925    2    3    3    0    0 -0.89331699360E+02 -0.73097562319E+02  0.32527393041E+03  0.43389198494E+03  0.26293671988E+03 0.  0.
         25    1    3    3    0    0  0.89331699360E+02  0.73097562319E+02  0.18381417140E+03  0.25051659393E+03  0.12509000000E+03 0.  0.
         25    1    4    4    0    0 -0.76502043081E+02 -0.20134334653E+02  0.19881747229E+03  0.24785852702E+03  0.12509000000E+03 0.  0.
         25    1    4    4    0    0 -0.12829656279E+02 -0.52963227666E+02  0.12645645812E+03  0.18603345792E+03  0.12509000000E+03 0.  0.
<mgrwt>
<rscale>  2 0.45743241E+03</rscale>
<asrwt>0</asrwt>
<pdfrwt beam="1">  1       21 0.87757107E-01 0.45743241E+03</pdfrwt>
<pdfrwt beam="2">  1       21 0.12891212E-01 0.45743241E+03</pdfrwt>
<totfact> 0.52740606E+04</totfact>
</mgrwt>
</event>
<event>
 7    0  0.4737014E-002  0.4387279E+03  0.7546771E-02  0.1031138E+00
         21   -1    0    0  502  501  0.00000000000E+00  0.00000000000E+00  0.37344580623E+03  0.37344580623E+03  0.00000000000E+00 0.  1.
         21   -1    0    0  501  502 -0.00000000000E+00 -0.00000000000E+00 -0.12885550766E+03  0.12885550766E+03  0.00000000000E+00 0.  1.
      99926    2    1    2    0    0  0.00000000000E+00 -0.17763568394E-14  0.24459029857E+03  0.50230131389E+03  0.43872792911E+03 0.  0.
      99925    2    3    3    0    0 -0.85190363289E+02 -0.11702496904E+02  0.10415098451E+03  0.29550417787E+03  0.26283254200E+03 0.  0.
         25    1    3    3    0    0  0.85190363289E+02  0.11702496904E+02  0.14043931405E+03  0.20679713601E+03  0.12509000000E+03 0.  0.
         25    1    4    4    0    0 -0.55055843455E+02 -0.30464507667E+02  0.85710614772E+02  0.16417383991E+03  0.12509000000E+03 0.  0.
         25    1    4    4    0    0 -0.30134519834E+02  0.18762010763E+02  0.18440369739E+02  0.13133033796E+03  0.12509000000E+03 0.  0.
<mgrwt>
<rscale>  2 0.43872793E+03</rscale>
<asrwt>0</asrwt>
<pdfrwt beam="1">  1       21 0.54918501E-01 0.43872793E+03</pdfrwt>
<pdfrwt beam="2">  1       21 0.18949339E-01 0.43872793E+03</pdfrwt>
<totfact> 0.74243130E+04</totfact>
</mgrwt>
</event>
<event>
 7    0  0.4737014E-002  0.4670569E+03  0.7546771E-02  0.1022754E+00
         21   -1    0    0  502  501  0.00000000000E+00  0.00000000000E+00  0.45033510988E+03  0.45033510988E+03  0.00000000000E+00 0.  1.
         21   -1    0    0  501  502 -0.00000000000E+00 -0.00000000000E+00 -0.12109990876E+03  0.12109990876E+03  0.00000000000E+00 0.  1.
      99926    2    1    2    0    0  0.00000000000E+00  0.00000000000E+00  0.32923520112E+03  0.57143501864E+03  0.46705691610E+03 0.  0.
      99925    2    3    3    0    0 -0.10417820186E+03 -0.56201932899E+01  0.12269024471E+03  0.30838937349E+03  0.26299510494E+03 0.  0.
         25    1    4    4    0    0 -0.27524687030E+02 -0.12226005850E+02  0.92493529966E+02  0.15846023098E+03  0.12509000000E+03 0.  0.
         25    1    4    4    0    0 -0.76653514825E+02  0.66058125600E+01  0.30196714746E+02  0.14992914252E+03  0.12509000000E+03 0.  0.
         25    1    3    3    0    0  0.10417820186E+03  0.56201932899E+01  0.20654495641E+03  0.26304564515E+03  0.12509000000E+03 0.  0.
<mgrwt>
<rscale>  2 0.46705692E+03</rscale>
<asrwt>0</asrwt>
<pdfrwt beam="1">  1       21 0.66225751E-01 0.46705692E+03</pdfrwt>
<pdfrwt beam="2">  1       21 0.17808810E-01 0.46705692E+03</pdfrwt>
<totfact> 0.55034011E+04</totfact>
</mgrwt>
</event>
<event>
 7    0  0.4737014E-002  0.4476085E+03  0.7546771E-02  0.1028438E+00
         21   -1    0    0  502  501  0.00000000000E+00  0.00000000000E+00  0.37033807632E+03  0.37033807632E+03  0.00000000000E+00 0. -1.
         21   -1    0    0  501  502 -0.00000000000E+00 -0.00000000000E+00 -0.13525033167E+03  0.13525033167E+03  0.00000000000E+00 0. -1.
      99926    2    1    2    0    0  0.00000000000E+00  0.00000000000E+00  0.23508774465E+03  0.50558840798E+03  0.44760852383E+03 0.  0.
      99925    2    3    3    0    0 -0.68402995279E+02  0.35423483592E+02  0.23125838339E+03  0.35863275120E+03  0.26306504403E+03 0.  0.
         25    1    4    4    0    0 -0.47733633547E+02  0.53147070140E+02  0.14414884343E+03  0.20378789954E+03  0.12509000000E+03 0.  0.
         25    1    3    3    0    0  0.68402995279E+02 -0.35423483592E+02  0.38293612649E+01  0.14695565678E+03  0.12509000000E+03 0.  0.
         25    1    4    4    0    0 -0.20669361733E+02 -0.17723586548E+02  0.87109539961E+02  0.15484485166E+03  0.12509000000E+03 0.  0.
<mgrwt>
<rscale>  2 0.44760852E+03</rscale>
<asrwt>0</asrwt>
<pdfrwt beam="1">  1       21 0.54461482E-01 0.44760852E+03</pdfrwt>
<pdfrwt beam="2">  1       21 0.19889755E-01 0.44760852E+03</pdfrwt>
<totfact> 0.68829677E+04</totfact>
</mgrwt>
</event>
<event>
 7    0  0.4737014E-002  0.4603021E+03  0.7546771E-02  0.1024694E+00
         21   -1    0    0  502  501  0.00000000000E+00  0.00000000000E+00  0.10595224758E+03  0.10595224758E+03  0.00000000000E+00 0.  1.
         21   -1    0    0  501  502 -0.00000000000E+00 -0.00000000000E+00 -0.49993764614E+03  0.49993764614E+03  0.00000000000E+00 0.  1.
      99926    2    1    2    0    0  0.00000000000E+00  0.00000000000E+00 -0.39398539857E+03  0.60588989372E+03  0.46030214971E+03 0.  0.
      99925    2    3    3    0    0 -0.10447425021E+03 -0.53763617682E+02 -0.26156149070E+03  0.38912044242E+03  0.26304925346E+03 0.  0.
         25    1    4    4    0    0 -0.62721374451E+02 -0.64434762659E+01 -0.85496088475E+02  0.16411148176E+03  0.12509000000E+03 0.  0.
         25    1    3    3    0    0  0.10447425021E+03  0.53763617682E+02 -0.13242390786E+03  0.21676945130E+03  0.12509000000E+03 0.  0.
         25    1    4    4    0    0 -0.41752875762E+02 -0.47320141416E+02 -0.17606540223E+03  0.22500896066E+03  0.12509000000E+03 0.  0.
<mgrwt>
<rscale>  2 0.46030215E+03</rscale>
<asrwt>0</asrwt>
<pdfrwt beam="1">  1       21 0.15581213E-01 0.46030215E+03</pdfrwt>
<pdfrwt beam="2">  1       21 0.73520242E-01 0.46030215E+03</pdfrwt>
<totfact> 0.55937038E+04</totfact>
</mgrwt>
</event>
<event>
 7    0  0.4737014E-002  0.4563950E+03  0.7546771E-02  0.1025832E+00
         21   -1    0    0  502  501  0.00000000000E+00  0.00000000000E+00  0.53806937367E+02  0.53806937367E+02  0.00000000000E+00 0. -1.
         21   -1    0    0  501  502 -0.00000000000E+00 -0.00000000000E+00 -0.96779528620E+03  0.96779528620E+03  0.00000000000E+00 0. -1.
      99926    2    1    2    0    0  0.00000000000E+00  0.71054273576E-14 -0.91398834883E+03  0.10216022236E+04  0.45639500588E+03 0.  0.
      99925    2    3    3    0    0 -0.13747496600E+02 -0.37606912016E+02 -0.33352191670E+03  0.42646185321E+03  0.26273478991E+03 0.  0.
         25    1    3    3    0    0  0.13747496600E+02  0.37606912016E+02 -0.58046643214E+03  0.59514037036E+03  0.12509000000E+03 0.  0.
         25    1    4    4    0    0  0.18097434581E+01  0.16564714336E+02 -0.18832008787E+03  0.22669280652E+03  0.12509000000E+03 0.  0.
         25    1    4    4    0    0 -0.15557240058E+02 -0.54171626352E+02 -0.14520182882E+03  0.19976904669E+03  0.12509000000E+03 0.  0.
<mgrwt>
<rscale>  2 0.45639501E+03</rscale>
<asrwt>0</asrwt>
<pdfrwt beam="1">  1       21 0.79127855E-02 0.45639501E+03</pdfrwt>
<pdfrwt beam="2">  1       21 0.14232283E+00 0.45639501E+03</pdfrwt>
<totfact> 0.37922214E+04</totfact>
</mgrwt>
</event>
<event>
 7    0  0.4737014E-002  0.4370819E+03  0.7546771E-02  0.1031646E+00
         21   -1    0    0  502  501  0.00000000000E+00  0.00000000000E+00  0.13393282842E+03  0.13393282842E+03  0.00000000000E+00 0. -1.
         21   -1    0    0  501  502 -0.00000000000E+00 -0.00000000000E+00 -0.35659782632E+03  0.35659782632E+03  0.00000000000E+00 0. -1.
      99926    2    1    2    0    0 -0.55511151231E-16 -0.14210854715E-13 -0.22266499790E+03  0.49053065474E+03  0.43708193963E+03 0.  0.
      99925    2    3    3    0    0  0.37072059081E+00  0.95006746335E+02 -0.15229450215E+03  0.31840879659E+03  0.26299073572E+03 0.  0.
         25    1    4    4    0    0  0.21923741498E+01  0.10281967189E+02 -0.92428009291E+02  0.15588768507E+03  0.12509000000E+03 0.  0.
         25    1    4    4    0    0 -0.18216535590E+01  0.84724779146E+02 -0.59866492858E+02  0.16252111152E+03  0.12509000000E+03 0.  0.
         25    1    3    3    0    0 -0.37072059081E+00 -0.95006746335E+02 -0.70370495750E+02  0.17212185816E+03  0.12509000000E+03 0.  0.
<mgrwt>
<rscale>  2 0.43708194E+03</rscale>
<asrwt>0</asrwt>
<pdfrwt beam="1">  1       21 0.19696004E-01 0.43708194E+03</pdfrwt>
<pdfrwt beam="2">  1       21 0.52440856E-01 0.43708194E+03</pdfrwt>
<totfact> 0.76218417E+04</totfact>
</mgrwt>
</event>
<event>
 7    0  0.4737014E-002  0.4523418E+03  0.7546771E-02  0.1027026E+00
         21   -1    0    0  502  501  0.00000000000E+00  0.00000000000E+00  0.76981250856E+03  0.76981250856E+03  0.00000000000E+00 0. -1.
         21   -1    0    0  501  502 -0.00000000000E+00 -0.00000000000E+00 -0.66449008526E+02  0.66449008526E+02  0.00000000000E+00 0. -1.
      99926    2    1    2    0    0 -0.14210854715E-13 -0.71054273576E-14  0.70336350004E+03  0.83626151709E+03  0.45234180857E+03 0.  0.
      99925    2    3    3    0    0 -0.91567368398E+02 -0.39532111697E+02  0.35482416253E+03  0.45275852010E+03  0.26295003403E+03 0.  0.
         25    1    4    4    0    0 -0.29642425220E+02  0.18447352316E+02  0.15514151159E+03  0.20232492407E+03  0.12509000000E+03 0.  0.
         25    1    3    3    0    0  0.91567368398E+02  0.39532111697E+02  0.34853933751E+03  0.38350299699E+03  0.12509000000E+03 0.  0.
         25    1    4    4    0    0 -0.61924943178E+02 -0.57979464013E+02  0.19968265095E+03  0.25043359604E+03  0.12509000000E+03 0.  0.
<mgrwt>
<rscale>  2 0.45234181E+03</rscale>
<asrwt>0</asrwt>
<pdfrwt beam="1">  1       21 0.11320772E+00 0.45234181E+03</pdfrwt>
<pdfrwt beam="2">  1       21 0.97719135E-02 0.45234181E+03</pdfrwt>
<totfact> 0.47033589E+04</totfact>
</mgrwt>
</event>
<event>
 7    0  0.4737014E-002  0.4542430E+03  0.7546771E-02  0.1026464E+00
         21   -1    0    0  502  501  0.00000000000E+00  0.00000000000E+00  0.73277007118E+02  0.73277007118E+02  0.00000000000E+00 0.  1.
         21   -1    0    0  501  502 -0.00000000000E+00 -0.00000000000E+00 -0.70396141393E+03  0.70396141393E+03  0.00000000000E+00 0.  1.
      99926    2    1    2    0    0  0.14210854715E-13  0.00000000000E+00 -0.63068440682E+03  0.77723842105E+03  0.45424304305E+03 0.  0.
      99925    2    3    3    0    0 -0.10209084904E+03 -0.23132399085E+01 -0.47762487289E+03  0.55474657499E+03  0.26304058760E+03 0.  0.
         25    1    4    4    0    0 -0.35740864980E+02 -0.34189352628E+02 -0.19298965768E+03  0.23524208240E+03  0.12509000000E+03 0.  0.
         25    1    3    3    0    0  0.10209084904E+03  0.23132399085E+01 -0.15305953393E+03  0.22249184606E+03  0.12509000000E+03 0.  0.
         25    1    4    4    0    0 -0.66349984063E+02  0.31876112720E+02 -0.28463521521E+03  0.31950449259E+03  0.12509000000E+03 0.  0.
<mgrwt>
<rscale>  2 0.45424304E+03</rscale>
<asrwt>0</asrwt>
<pdfrwt beam="1">  1       21 0.10776031E-01 0.45424304E+03</pdfrwt>
<pdfrwt beam="2">  1       21 0.10352373E+00 0.45424304E+03</pdfrwt>
<totfact> 0.49177042E+04</totfact>
</mgrwt>
</event>
<event>
 7    0  0.4737014E-002  0.4760246E+03  0.7546771E-02  0.1020233E+00
         21   -1    0    0  502  501  0.00000000000E+00  0.00000000000E+00  0.22613437178E+04  0.22613437178E+04  0.00000000000E+00 0.  1.
         21   -1    0    0  501  502 -0.00000000000E+00 -0.00000000000E+00 -0.25051417183E+02  0.25051417183E+02  0.00000000000E+00 0.  1.
      99926    2    1    2    0    0  0.00000000000E+00  0.00000000000E+00  0.22362923006E+04  0.22863951350E+04  0.47602464167E+03 0.  0.
      99925    2    3    3    0    0  0.87875944353E+02  0.44929546130E+02  0.18023033876E+04  0.18240805987E+04  0.26311914409E+03 0.  0.
         25    1    4    4    0    0  0.14999527182E+01  0.23011056481E+02  0.85384736397E+03  0.86326970735E+03  0.12509000000E+03 0.  0.
         25    1    4    4    0    0  0.86375991635E+02  0.21918489648E+02  0.94845602363E+03  0.96081089137E+03  0.12509000000E+03 0.  0.
         25    1    3    3    0    0 -0.87875944353E+02 -0.44929546130E+02  0.43398891300E+03  0.46231453624E+03  0.12509000000E+03 0.  0.
<mgrwt>
<rscale>  2 0.47602464E+03</rscale>
<asrwt>0</asrwt>
<pdfrwt beam="1">  1       21 0.33255041E+00 0.47602464E+03</pdfrwt>
<pdfrwt beam="2">  1       21 0.36840335E-02 0.47602464E+03</pdfrwt>
<totfact> 0.81562947E+03</totfact>
</mgrwt>
</event>
<event>
 7    0  0.4737014E-002  0.4548504E+03  0.7546771E-02  0.1026285E+00
         21   -1    0    0  502  501  0.00000000000E+00  0.00000000000E+00  0.27916141140E+02  0.27916141140E+02  0.00000000000E+00 0. -1.
         21   -1    0    0  501  502 -0.00000000000E+00 -0.00000000000E+00 -0.18527715535E+04  0.18527715535E+04  0.00000000000E+00 0. -1.
      99926    2    1    2    0    0  0.00000000000E+00  0.00000000000E+00 -0.18248554123E+04  0.18806876946E+04  0.45485044657E+03 0.  0.
      99925    2    3    3    0    0  0.12681494186E+02  0.70137169231E+02 -0.78549537822E+03  0.83140373333E+03  0.26296223261E+03 0.  0.
         25    1    4    4    0    0 -0.22525968999E+02  0.63420465053E+02 -0.39107518016E+03  0.41607316581E+03  0.12509000000E+03 0.  0.
         25    1    4    4    0    0  0.35207463185E+02  0.67167041777E+01 -0.39442019806E+03  0.41533056752E+03  0.12509000000E+03 0.  0.
         25    1    3    3    0    0 -0.12681494186E+02 -0.70137169231E+02 -0.10393600341E+04  0.10492839613E+04  0.12509000000E+03 0.  0.
<mgrwt>
<rscale>  2 0.45485045E+03</rscale>
<asrwt>0</asrwt>
<pdfrwt beam="1">  1       21 0.41053145E-02 0.45485045E+03</pdfrwt>
<pdfrwt beam="2">  1       21 0.27246643E+00 0.45485045E+03</pdfrwt>
<totfact> 0.15775450E+04</totfact>
</mgrwt>
</event>
<event>
 7    0  0.4737014E-002  0.4547934E+03  0.7546771E-02  0.1026302E+00
         21   -1    0    0  502  501  0.00000000000E+00  0.00000000000E+00  0.22800419612E+03  0.22800419612E+03  0.00000000000E+00 0. -1.
         21   -1    0    0  501  502 -0.00000000000E+00 -0.00000000000E+00 -0.22679082231E+03  0.22679082231E+03  0.00000000000E+00 0. -1.
      99926    2    1    2    0    0  0.00000000000E+00  0.00000000000E+00  0.12133738167E+01  0.45479501843E+03  0.45479339981E+03 0.  0.
      99925    2    3    3    0    0  0.61159123763E+01  0.94238986716E+02  0.62779249574E+02  0.28640185895E+03  0.26299505629E+03 0.  0.
         25    1    4    4    0    0 -0.95166057730E+01  0.66738078200E+01  0.21483593889E+02  0.12745257315E+03  0.12509000000E+03 0.  0.
         25    1    4    4    0    0  0.15632518149E+02  0.87565178896E+02  0.41295655685E+02  0.15894928580E+03  0.12509000000E+03 0.  0.
         25    1    3    3    0    0 -0.61159123763E+01 -0.94238986716E+02 -0.61565875757E+02  0.16839315948E+03  0.12509000000E+03 0.  0.
<mgrwt>
<rscale>  2 0.45479340E+03</rscale>
<asrwt>0</asrwt>
<pdfrwt beam="1">  1       21 0.33530029E-01 0.45479340E+03</pdfrwt>
<pdfrwt beam="2">  1       21 0.33351591E-01 0.45479340E+03</pdfrwt>
<totfact> 0.68673945E+04</totfact>
</mgrwt>
</event>
<event>
 7    0  0.4737014E-002  0.4514463E+03  0.7546771E-02  0.1027292E+00
         21   -1    0    0  502  501  0.00000000000E+00  0.00000000000E+00  0.28551362484E+02  0.28551362484E+02  0.00000000000E+00 0.  1.
         21   -1    0    0  501  502 -0.00000000000E+00 -0.00000000000E+00 -0.17845361387E+04  0.17845361387E+04  0.00000000000E+00 0.  1.
      99926    2    1    2    0    0 -0.17763568394E-14 -0.71054273576E-14 -0.17559847763E+04  0.18130875012E+04  0.45144628988E+03 0.  0.
      99925    2    3    3    0    0 -0.12876081787E+02 -0.61517768642E+02 -0.74779314039E+03  0.79522301512E+03  0.26312512921E+03 0.  0.
         25    1    3    3    0    0  0.12876081787E+02  0.61517768642E+02 -0.10081916359E+04  0.10178644861E+04  0.12509000000E+03 0.  0.
         25    1    4    4    0    0  0.12173998833E+02  0.66632933059E+01 -0.34313894304E+03  0.36549206292E+03  0.12509000000E+03 0.  0.
         25    1    4    4    0    0 -0.25050080620E+02 -0.68181061948E+02 -0.40465419735E+03  0.42973095221E+03  0.12509000000E+03 0.  0.
<mgrwt>
<rscale>  2 0.45144629E+03</rscale>
<asrwt>0</asrwt>
<pdfrwt beam="1">  1       21 0.41987289E-02 0.45144629E+03</pdfrwt>
<pdfrwt beam="2">  1       21 0.26243184E+00 0.45144629E+03</pdfrwt>
<totfact> 0.17486744E+04</totfact>
</mgrwt>
</event>
<event>
 7    0  0.4737014E-002  0.4533812E+03  0.7546771E-02  0.1026718E+00
         21   -1    0    0  502  501  0.00000000000E+00  0.00000000000E+00  0.53301363223E+03  0.53301363223E+03  0.00000000000E+00 0.  1.
         21   -1    0    0  501  502 -0.00000000000E+00 -0.00000000000E+00 -0.96411488248E+02  0.96411488248E+02  0.00000000000E+00 0.  1.
      99926    2    1    2    0    0  0.00000000000E+00  0.00000000000E+00  0.43660214398E+03  0.62942512048E+03  0.45338124152E+03 0.  0.
      99925    2    3    3    0    0 -0.24633982388E+02 -0.41767801410E+01  0.42617245645E+03  0.50143853891E+03  0.26304632117E+03 0.  0.
         25    1    4    4    0    0 -0.11428037760E+02 -0.23564343533E+02  0.14806564877E+03  0.19559351415E+03  0.12509000000E+03 0.  0.
         25    1    4    4    0    0 -0.13205944629E+02  0.19387563392E+02  0.27810680768E+03  0.30584502475E+03  0.12509000000E+03 0.  0.
         25    1    3    3    0    0  0.24633982388E+02  0.41767801410E+01  0.10429687531E+02  0.12798658157E+03  0.12509000000E+03 0.  0.
<mgrwt>
<rscale>  2 0.45338124E+03</rscale>
<asrwt>0</asrwt>
<pdfrwt beam="1">  1       21 0.78384356E-01 0.45338124E+03</pdfrwt>
<pdfrwt beam="2">  1       21 0.14178160E-01 0.45338124E+03</pdfrwt>
<totfact> 0.57635646E+04</totfact>
</mgrwt>
</event>
<event>
 7    0  0.4737014E-002  0.4526450E+03  0.7546771E-02  0.1026936E+00
         21   -1    0    0  502  501  0.00000000000E+00  0.00000000000E+00  0.64548695758E+02  0.64548695758E+02  0.00000000000E+00 0.  1.
         21   -1    0    0  501  502 -0.00000000000E+00 -0.00000000000E+00 -0.79353855840E+03  0.79353855840E+03  0.00000000000E+00 0.  1.
      99926    2    1    2    0    0  0.00000000000E+00  0.71054273576E-14 -0.72898986264E+03  0.85808725416E+03  0.45264502197E+03 0.  0.
      99925    2    3    3    0    0  0.95064892908E+02  0.57908811483E+02 -0.44406565024E+03  0.52760264147E+03  0.26225842456E+03 0.  0.
         25    1    3    3    0    0 -0.95064892908E+02 -0.57908811483E+02 -0.28492421240E+03  0.33048461269E+03  0.12509000000E+03 0.  0.
         25    1    4    4    0    0  0.55601609741E+02 -0.94887731466E+01 -0.20380612668E+03  0.24569497592E+03  0.12509000000E+03 0.  0.
         25    1    4    4    0    0  0.39463283167E+02  0.67397584630E+02 -0.24025952356E+03  0.28190766555E+03  0.12509000000E+03 0.  0.
<mgrwt>
<rscale>  2 0.45264502E+03</rscale>
<asrwt>0</asrwt>
<pdfrwt beam="1">  1       21 0.94924554E-02 0.45264502E+03</pdfrwt>
<pdfrwt beam="2">  1       21 0.11669684E+00 0.45264502E+03</pdfrwt>
<totfact> 0.45922128E+04</totfact>
</mgrwt>
</event>
<event>
 7    0  0.4737014E-002  0.4494786E+03  0.7546771E-02  0.1027878E+00
         21   -1    0    0  502  501  0.00000000000E+00  0.00000000000E+00  0.26521549160E+03  0.26521549160E+03  0.00000000000E+00 0.  1.
         21   -1    0    0  501  502 -0.00000000000E+00 -0.00000000000E+00 -0.19044041339E+03  0.19044041339E+03  0.00000000000E+00 0.  1.
      99926    2    1    2    0    0  0.00000000000E+00  0.00000000000E+00  0.74775078201E+02  0.45565590499E+03  0.44947857728E+03 0.  0.
      99925    2    3    3    0    0 -0.16438322078E+02 -0.59073078403E+02  0.13725430979E+03  0.30297647119E+03  0.26305160998E+03 0.  0.
         25    1    4    4    0    0  0.17642798245E+02 -0.43675209387E+02  0.37969088216E+02  0.13895305684E+03  0.12509000000E+03 0.  0.
         25    1    4    4    0    0 -0.34081120323E+02 -0.15397869016E+02  0.99285221576E+02  0.16402341435E+03  0.12509000000E+03 0.  0.
         25    1    3    3    0    0  0.16438322078E+02  0.59073078403E+02 -0.62479231591E+02  0.15267943380E+03  0.12509000000E+03 0.  0.
<mgrwt>
<rscale>  2 0.44947858E+03</rscale>
<asrwt>0</asrwt>
<pdfrwt beam="1">  1       21 0.39002278E-01 0.44947858E+03</pdfrwt>
<pdfrwt beam="2">  1       21 0.28005943E-01 0.44947858E+03</pdfrwt>
<totfact> 0.71599225E+04</totfact>
</mgrwt>
</event>
<event>
 7    0  0.4737014E-002  0.4455095E+03  0.7546771E-02  0.1029070E+00
         21   -1    0    0  502  501  0.00000000000E+00  0.00000000000E+00  0.13813205806E+03  0.13813205806E+03  0.00000000000E+00 0.  1.
         21   -1    0    0  501  502 -0.00000000000E+00 -0.00000000000E+00 -0.35921910941E+03  0.35921910941E+03  0.00000000000E+00 0.  1.
      99926    2    1    2    0    0  0.00000000000E+00  0.83266726847E-15 -0.22108705134E+03  0.49735116747E+03  0.44550948307E+03 0.  0.
      99925    2    3    3    0    0 -0.64699535837E+02 -0.39861679421E+00 -0.49350256917E+02  0.27525383859E+03  0.26295063980E+03 0.  0.
         25    1    4    4    0    0 -0.30582077101E+02 -0.34802815587E+02 -0.45877247771E+02  0.14106285612E+03  0.12509000000E+03 0.  0.
         25    1    3    3    0    0  0.64699535837E+02  0.39861679421E+00 -0.17173679443E+03  0.22209732887E+03  0.12509000000E+03 0.  0.
         25    1    4    4    0    0 -0.34117458737E+02  0.34404198793E+02 -0.34730091457E+01  0.13419098248E+03  0.12509000000E+03 0.  0.
<mgrwt>
<rscale>  2 0.44550948E+03</rscale>
<asrwt>0</asrwt>
<pdfrwt beam="1">  1       21 0.20313539E-01 0.44550948E+03</pdfrwt>
<pdfrwt beam="2">  1       21 0.52826338E-01 0.44550948E+03</pdfrwt>
<totfact> 0.70629753E+04</totfact>
</mgrwt>
</event>
<event>
 7    0  0.4737014E-002  0.4525571E+03  0.7546771E-02  0.1026962E+00
         21   -1    0    0  502  501  0.00000000000E+00  0.00000000000E+00  0.74206233586E+03  0.74206233586E+03  0.00000000000E+00 0.  1.
         21   -1    0    0  501  502 -0.00000000000E+00 -0.00000000000E+00 -0.68999571737E+02  0.68999571737E+02  0.00000000000E+00 0.  1.
      99926    2    1    2    0    0  0.00000000000E+00  0.00000000000E+00  0.67306276412E+03  0.81106190759E+03  0.45255710524E+03 0.  0.
      99925    2    3    3    0    0  0.46580064261E+02  0.10047406656E+03  0.41254909191E+03  0.50157907778E+03  0.26290697518E+03 0.  0.
         25    1    4    4    0    0  0.78777195681E+01  0.83267115752E+02  0.25405022618E+03  0.29527020939E+03  0.12509000000E+03 0.  0.
         25    1    3    3    0    0 -0.46580064261E+02 -0.10047406656E+03  0.26051367221E+03  0.30948282981E+03  0.12509000000E+03 0.  0.
         25    1    4    4    0    0  0.38702344693E+02  0.17206950807E+02  0.15849886572E+03  0.20630886839E+03  0.12509000000E+03 0.  0.
<mgrwt>
<rscale>  2 0.45255711E+03</rscale>
<asrwt>0</asrwt>
<pdfrwt beam="1">  1       21 0.10912681E+00 0.45255711E+03</pdfrwt>
<pdfrwt beam="2">  1       21 0.10146996E-01 0.45255711E+03</pdfrwt>
<totfact> 0.48150838E+04</totfact>
</mgrwt>
</event>
<event>
 7    0  0.4737014E-002  0.4559357E+03  0.7546771E-02  0.1025967E+00
         21   -1    0    0  502  501  0.00000000000E+00  0.00000000000E+00  0.18554416614E+04  0.18554416614E+04  0.00000000000E+00 0.  1.
         21   -1    0    0  501  502 -0.00000000000E+00 -0.00000000000E+00 -0.28009146805E+02  0.28009146805E+02  0.00000000000E+00 0.  1.
      99926    2    1    2    0    0  0.00000000000E+00 -0.71054273576E-14  0.18274325146E+04  0.18834508082E+04  0.45593568793E+03 0.  0.
      99925    2    3    3    0    0 -0.95105073243E+02  0.47974813035E+02  0.13177065499E+04  0.13479000405E+04  0.26293993572E+03 0.  0.
         25    1    3    3    0    0  0.95105073243E+02 -0.47974813035E+02  0.50972596474E+03  0.53555076778E+03  0.12509000000E+03 0.  0.
         25    1    4    4    0    0 -0.73087160878E+02  0.16596515809E+02  0.84181977234E+03  0.85435660858E+03  0.12509000000E+03 0.  0.
         25    1    4    4    0    0 -0.22017912365E+02  0.31378297226E+02  0.47588677755E+03  0.49354343187E+03  0.12509000000E+03 0.  0.
<mgrwt>
<rscale>  2 0.45593569E+03</rscale>
<asrwt>0</asrwt>
<pdfrwt beam="1">  1       21 0.27285899E+00 0.45593569E+03</pdfrwt>
<pdfrwt beam="2">  1       21 0.41189934E-02 0.45593569E+03</pdfrwt>
<totfact> 0.15593881E+04</totfact>
</mgrwt>
</event>
<event>
 7    0  0.4737014E-002  0.4526360E+03  0.7546771E-02  0.1026939E+00
         21   -1    0    0  502  501  0.00000000000E+00  0.00000000000E+00  0.64595402616E+03  0.64595402616E+03  0.00000000000E+00 0. -1.
         21   -1    0    0  501  502 -0.00000000000E+00 -0.00000000000E+00 -0.79293309515E+02  0.79293309515E+02  0.00000000000E+00 0. -1.
      99926    2    1    2    0    0  0.14210854715E-13 -0.14210854715E-13  0.56666071665E+03  0.72524733568E+03  0.45263597970E+03 0.  0.
      99925    2    3    3    0    0 -0.82427334754E+02  0.74231334467E+02  0.35940949730E+03  0.45896715888E+03  0.26300401072E+03 0.  0.
         25    1    4    4    0    0 -0.62595806511E+02  0.69037057278E+02  0.16664337453E+03  0.22825834628E+03  0.12509000000E+03 0.  0.
         25    1    3    3    0    0  0.82427334754E+02 -0.74231334467E+02  0.20725121935E+03  0.26628017679E+03  0.12509000000E+03 0.  0.
         25    1    4    4    0    0 -0.19831528243E+02  0.51942771889E+01  0.19276612277E+03  0.23070881261E+03  0.12509000000E+03 0.  0.
<mgrwt>
<rscale>  2 0.45263598E+03</rscale>
<asrwt>0</asrwt>
<pdfrwt beam="1">  1       21 0.94993236E-01 0.45263598E+03</pdfrwt>
<pdfrwt beam="2">  1       21 0.11660781E-01 0.45263598E+03</pdfrwt>
<totfact> 0.52523288E+04</totfact>
</mgrwt>
</event>
<event>
 7    0  0.4737014E-002  0.4515207E+03  0.7546771E-02  0.1027270E+00
         21   -1    0    0  502  501  0.00000000000E+00  0.00000000000E+00  0.78495905463E+02  0.78495905463E+02  0.00000000000E+00 0. -1.
         21   -1    0    0  501  502 -0.00000000000E+00 -0.00000000000E+00 -0.64930448857E+03  0.64930448857E+03  0.00000000000E+00 0. -1.
      99926    2    1    2    0    0  0.00000000000E+00 -0.71054273576E-14 -0.57080858310E+03  0.72780039403E+03  0.45152073596E+03 0.  0.
      99925    2    3    3    0    0 -0.89724418902E+02 -0.60627049620E+02 -0.39025924909E+03  0.48290923329E+03  0.26300748204E+03 0.  0.
         25    1    4    4    0    0 -0.63055723046E+02 -0.69190888377E+02 -0.21425231221E+03  0.26516969026E+03  0.12509000000E+03 0.  0.
         25    1    3    3    0    0  0.89724418902E+02  0.60627049620E+02 -0.18054933401E+03  0.24489116073E+03  0.12509000000E+03 0.  0.
         25    1    4    4    0    0 -0.26668695855E+02  0.85638387576E+01 -0.17600693688E+03  0.21773954304E+03  0.12509000000E+03 0.  0.
<mgrwt>
<rscale>  2 0.45152074E+03</rscale>
<asrwt>0</asrwt>
<pdfrwt beam="1">  1       21 0.11543515E-01 0.45152074E+03</pdfrwt>
<pdfrwt beam="2">  1       21 0.95485958E-01 0.45152074E+03</pdfrwt>
<totfact> 0.52850726E+04</totfact>
</mgrwt>
</event>
<event>
 7    0  0.4737014E-002  0.4522784E+03  0.7546771E-02  0.1027045E+00
         21   -1    0    0  502  501  0.00000000000E+00  0.00000000000E+00  0.30907303195E+04  0.30907303195E+04  0.00000000000E+00 0. -1.
         21   -1    0    0  501  502 -0.00000000000E+00 -0.00000000000E+00 -0.16545909224E+02  0.16545909224E+02  0.00000000000E+00 0. -1.
      99926    2    1    2    0    0 -0.14210854715E-13 -0.17763568394E-14  0.30741844102E+04  0.31072762287E+04  0.45227842443E+03 0.  0.
      99925    2    3    3    0    0  0.93027073613E+02 -0.13883772873E+02  0.15399129840E+04  0.15650430708E+04  0.26302285040E+03 0.  0.
         25    1    4    4    0    0  0.51687870666E+02  0.14725021839E+02  0.58336092857E+03  0.59903751412E+03  0.12509000000E+03 0.  0.
         25    1    4    4    0    0  0.41339202947E+02 -0.28608794711E+02  0.95655205540E+03  0.96600555672E+03  0.12509000000E+03 0.  0.
         25    1    3    3    0    0 -0.93027073613E+02  0.13883772873E+02  0.15342714263E+04  0.15422331578E+04  0.12509000000E+03 0.  0.
<mgrwt>
<rscale>  2 0.45227842E+03</rscale>
<asrwt>0</asrwt>
<pdfrwt beam="1">  1       21 0.45451876E+00 0.45227842E+03</pdfrwt>
<pdfrwt beam="2">  1       21 0.24332241E-02 0.45227842E+03</pdfrwt>
<totfact> 0.27511007E+03</totfact>
</mgrwt>
</event>
<event>
 7    0  0.4737014E-002  0.4574932E+03  0.7546771E-02  0.1025511E+00
         21   -1    0    0  502  501  0.00000000000E+00  0.00000000000E+00  0.27397003533E+03  0.27397003533E+03  0.00000000000E+00 0.  1.
         21   -1    0    0  501  502 -0.00000000000E+00 -0.00000000000E+00 -0.19098804887E+03  0.19098804887E+03  0.00000000000E+00 0.  1.
      99926    2    1    2    0    0  0.00000000000E+00 -0.14210854715E-13  0.82981986453E+02  0.46495808420E+03  0.45749318026E+03 0.  0.
      99925    2    3    3    0    0  0.70926015120E+02 -0.75091139426E+02 -0.44408936243E+00  0.28253934320E+03  0.26298118640E+03 0.  0.
         25    1    3    3    0    0 -0.70926015120E+02  0.75091139426E+02  0.83426075815E+02  0.18241874100E+03  0.12509000000E+03 0.  0.
         25    1    4    4    0    0  0.12852026125E+02 -0.35783312386E+02 -0.34354189517E+02  0.13517891277E+03  0.12509000000E+03 0.  0.
         25    1    4    4    0    0  0.58073988995E+02 -0.39307827040E+02  0.33910100154E+02  0.14736043043E+03  0.12509000000E+03 0.  0.
<mgrwt>
<rscale>  2 0.45749318E+03</rscale>
<asrwt>0</asrwt>
<pdfrwt beam="1">  1       21 0.40289711E-01 0.45749318E+03</pdfrwt>
<pdfrwt beam="2">  1       21 0.28086478E-01 0.45749318E+03</pdfrwt>
<totfact> 0.66485756E+04</totfact>
</mgrwt>
</event>
<event>
 7    0  0.4737014E-002  0.4531648E+03  0.7546771E-02  0.1026782E+00
         21   -1    0    0  502  501  0.00000000000E+00  0.00000000000E+00  0.42325795306E+03  0.42325795306E+03  0.00000000000E+00 0. -1.
         21   -1    0    0  501  502 -0.00000000000E+00 -0.00000000000E+00 -0.12129622340E+03  0.12129622340E+03  0.00000000000E+00 0. -1.
      99926    2    1    2    0    0  0.00000000000E+00  0.00000000000E+00  0.30196172966E+03  0.54455417647E+03  0.45316483196E+03 0.  0.
      99925    2    3    3    0    0 -0.99391738262E+02 -0.39610392893E+01  0.25048210213E+03  0.37664924022E+03  0.26311396618E+03 0.  0.
         25    1    4    4    0    0 -0.11349955187E+02 -0.58465437328E+01  0.13850588561E+03  0.18706788074E+03  0.12509000000E+03 0.  0.
         25    1    3    3    0    0  0.99391738262E+02  0.39610392893E+01  0.51479627526E+02  0.16790493625E+03  0.12509000000E+03 0.  0.
         25    1    4    4    0    0 -0.88041783075E+02  0.18855044435E+01  0.11197621653E+03  0.18958135948E+03  0.12509000000E+03 0.  0.
<mgrwt>
<rscale>  2 0.45316483E+03</rscale>
<asrwt>0</asrwt>
<pdfrwt beam="1">  1       21 0.62243816E-01 0.45316483E+03</pdfrwt>
<pdfrwt beam="2">  1       21 0.17837680E-01 0.45316483E+03</pdfrwt>
<totfact> 0.63139726E+04</totfact>
</mgrwt>
</event>
<event>
 6    0  0.4737014E-002  0.4644928E+03  0.7546771E-02  0.1023486E+00
         21   -1    0    0  502  501  0.00000000000E+00  0.00000000000E+00  0.15795182863E+03  0.15795182863E+03  0.00000000000E+00 0. -1.
         21   -1    0    0  501  502 -0.00000000000E+00 -0.00000000000E+00 -0.34148634477E+03  0.34148634477E+03  0.00000000000E+00 0. -1.
      99926    2    1    2    0    0  0.00000000000E+00  0.00000000000E+00 -0.18353451614E+03  0.49943817339E+03  0.46449280987E+03 0.  0.
         25    1    3    3    0    0 -0.56885335183E+02 -0.99393634259E+01 -0.43733696717E+02  0.14455060233E+03  0.12509000000E+03 0.  0.
         25    1    3    3    0    0 -0.46238960451E+02  0.60080605259E+02 -0.10900610700E+03  0.18242138048E+03  0.12509000000E+03 0.  0.
         25    1    3    3    0    0  0.10312429563E+03 -0.50141241833E+02 -0.30794712422E+02  0.17246619059E+03  0.12509000000E+03 0.  0.
<mgrwt>
<rscale>  2 0.46449281E+03</rscale>
<asrwt>0</asrwt>
<pdfrwt beam="1">  1       21 0.23228210E-01 0.46449281E+03</pdfrwt>
<pdfrwt beam="2">  1       21 0.50218580E-01 0.46449281E+03</pdfrwt>
<totfact> 0.60612078E+04</totfact>
</mgrwt>
</event>
<event>
 7    0  0.4737014E-002  0.4434739E+03  0.7546771E-02  0.1029686E+00
         21   -1    0    0  502  501  0.00000000000E+00  0.00000000000E+00  0.21762370725E+03  0.21762370725E+03  0.00000000000E+00 0.  1.
         21   -1    0    0  501  502 -0.00000000000E+00 -0.00000000000E+00 -0.22592796060E+03  0.22592796060E+03  0.00000000000E+00 0.  1.
      99926    2    1    2    0    0  0.14210854715E-13  0.17763568394E-14 -0.83042533505E+01  0.44355166786E+03  0.44347392419E+03 0.  0.
      99925    2    3    3    0    0 -0.93268293176E+02 -0.11510749444E+02 -0.44879252191E+02  0.28287587470E+03  0.26300787317E+03 0.  0.
         25    1    4    4    0    0 -0.55252407484E+02 -0.18599115177E+02 -0.61128586294E+02  0.15094027885E+03  0.12509000000E+03 0.  0.
         25    1    4    4    0    0 -0.38015885693E+02  0.70883657326E+01  0.16249334103E+02  0.13193559585E+03  0.12509000000E+03 0.  0.
         25    1    3    3    0    0  0.93268293176E+02  0.11510749444E+02  0.36574998840E+02  0.16067579315E+03  0.12509000000E+03 0.  0.
<mgrwt>
<rscale>  2 0.44347392E+03</rscale>
<asrwt>0</asrwt>
<pdfrwt beam="1">  1       21 0.32003487E-01 0.44347392E+03</pdfrwt>
<pdfrwt beam="2">  1       21 0.33224700E-01 0.44347392E+03</pdfrwt>
<totfact> 0.76159530E+04</totfact>
</mgrwt>
</event>
<event>
 7    0  0.4737014E-002  0.4544112E+03  0.7546771E-02  0.1026415E+00
         21   -1    0    0  502  501  0.00000000000E+00  0.00000000000E+00  0.17511927195E+03  0.17511927195E+03  0.00000000000E+00 0. -1.
         21   -1    0    0  501  502 -0.00000000000E+00 -0.00000000000E+00 -0.29478412479E+03  0.29478412479E+03  0.00000000000E+00 0. -1.
      99926    2    1    2    0    0  0.00000000000E+00 -0.71054273576E-14 -0.11966485283E+03  0.46990339674E+03  0.45441118523E+03 0.  0.
      99925    2    3    3    0    0  0.35704854883E+02 -0.37538105301E+02 -0.17878526020E+03  0.32216485512E+03  0.26294881366E+03 0.  0.
         25    1    4    4    0    0  0.67305580989E+01 -0.21427051887E+01 -0.44309545732E+02  0.13289370015E+03  0.12509000000E+03 0.  0.
         25    1    4    4    0    0  0.28974296785E+02 -0.35395400112E+02 -0.13447571446E+03  0.18927115497E+03  0.12509000000E+03 0.  0.
         25    1    3    3    0    0 -0.35704854883E+02  0.37538105301E+02  0.59120407364E+02  0.14773854162E+03  0.12509000000E+03 0.  0.
<mgrwt>
<rscale>  2 0.45441119E+03</rscale>
<asrwt>0</asrwt>
<pdfrwt beam="1">  1       21 0.25752835E-01 0.45441119E+03</pdfrwt>
<pdfrwt beam="2">  1       21 0.43350606E-01 0.45441119E+03</pdfrwt>
<totfact> 0.67758854E+04</totfact>
</mgrwt>
</event>
<event>
 7    0  0.4737014E-002  0.4553200E+03  0.7546771E-02  0.1026147E+00
         21   -1    0    0  502  501  0.00000000000E+00  0.00000000000E+00  0.88218722018E+02  0.88218722018E+02  0.00000000000E+00 0.  1.
         21   -1    0    0  501  502 -0.00000000000E+00 -0.00000000000E+00 -0.58750664224E+03  0.58750664224E+03  0.00000000000E+00 0.  1.
      99926    2    1    2    0    0  0.00000000000E+00  0.71054273576E-14 -0.49928792022E+03  0.67572536426E+03  0.45532004197E+03 0.  0.
      99925    2    3    3    0    0  0.71136157819E+02 -0.52227114083E+02 -0.42004770090E+03  0.50334629113E+03  0.26292469144E+03 0.  0.
         25    1    4    4    0    0  0.62905101654E+02  0.27907236808E+01 -0.19899756059E+03  0.24333593481E+03  0.12509000000E+03 0.  0.
         25    1    3    3    0    0 -0.71136157819E+02  0.52227114083E+02 -0.79240219321E+02  0.17237907313E+03  0.12509000000E+03 0.  0.
         25    1    4    4    0    0  0.82310561648E+01 -0.55017837764E+02 -0.22105014031E+03  0.26001035631E+03  0.12509000000E+03 0.  0.
<mgrwt>
<rscale>  2 0.45532004E+03</rscale>
<asrwt>0</asrwt>
<pdfrwt beam="1">  1       21 0.12973342E-01 0.45532004E+03</pdfrwt>
<pdfrwt beam="2">  1       21 0.86398033E-01 0.45532004E+03</pdfrwt>
<totfact> 0.54104688E+04</totfact>
</mgrwt>
</event>
<event>
 7    0  0.4737014E-002  0.4611844E+03  0.7546771E-02  0.1024438E+00
         21   -1    0    0  502  501  0.00000000000E+00  0.00000000000E+00  0.14509096936E+03  0.14509096936E+03  0.00000000000E+00 0. -1.
         21   -1    0    0  501  502 -0.00000000000E+00 -0.00000000000E+00 -0.36647872455E+03  0.36647872455E+03  0.00000000000E+00 0. -1.
      99926    2    1    2    0    0  0.00000000000E+00 -0.71054273576E-14 -0.22138775519E+03  0.51156969392E+03  0.46118435965E+03 0.  0.
      99925    2    3    3    0    0 -0.20320604012E+02  0.60754495863E+02 -0.27554409249E+02  0.27214766107E+03  0.26306095917E+03 0.  0.
         25    1    3    3    0    0  0.20320604012E+02 -0.60754495863E+02 -0.19383334594E+03  0.23942203285E+03  0.12509000000E+03 0.  0.
         25    1    4    4    0    0 -0.84030622483E-01  0.53270591734E+02 -0.46736918251E+02  0.14376929656E+03  0.12509000000E+03 0.  0.
         25    1    4    4    0    0 -0.20236573390E+02  0.74839041286E+01  0.19182509001E+02  0.12837836451E+03  0.12509000000E+03 0.  0.
<mgrwt>
<rscale>  2 0.46118436E+03</rscale>
<asrwt>0</asrwt>
<pdfrwt beam="1">  1       21 0.21336908E-01 0.46118436E+03</pdfrwt>
<pdfrwt beam="2">  1       21 0.53893929E-01 0.46118436E+03</pdfrwt>
<totfact> 0.61395942E+04</totfact>
</mgrwt>
</event>
<event>
 7    0  0.4737014E-002  0.4563727E+03  0.7546771E-02  0.1025839E+00
         21   -1    0    0  502  501  0.00000000000E+00  0.00000000000E+00  0.95421432674E+02  0.95421432674E+02  0.00000000000E+00 0. -1.
         21   -1    0    0  501  502 -0.00000000000E+00 -0.00000000000E+00 -0.54567407017E+03  0.54567407017E+03  0.00000000000E+00 0. -1.
      99926    2    1    2    0    0  0.00000000000E+00  0.00000000000E+00 -0.45025263750E+03  0.64109550285E+03  0.45637266153E+03 0.  0.
      99925    2    3    3    0    0  0.71777354476E+02 -0.88924358399E+01 -0.15824914285E+03  0.31529707895E+03  0.26294180487E+03 0.  0.
         25    1    4    4    0    0  0.38258205327E+02  0.29203338128E+02 -0.53012289897E+02  0.14413305038E+03  0.12509000000E+03 0.  0.
         25    1    3    3    0    0 -0.71777354476E+02  0.88924358399E+01 -0.29200349465E+03  0.32579842390E+03  0.12509000000E+03 0.  0.
         25    1    4    4    0    0  0.33519149149E+02 -0.38095773968E+02 -0.10523685296E+03  0.17116402856E+03  0.12509000000E+03 0.  0.
<mgrwt>
<rscale>  2 0.45637266E+03</rscale>
<asrwt>0</asrwt>
<pdfrwt beam="1">  1       21 0.14032563E-01 0.45637266E+03</pdfrwt>
<pdfrwt beam="2">  1       21 0.80246188E-01 0.45637266E+03</pdfrwt>
<totfact> 0.55612556E+04</totfact>
</mgrwt>
</event>
<event>
 7    0  0.4737014E-002  0.4338785E+03  0.7546771E-02  0.1032642E+00
         21   -1    0    0  502  501  0.00000000000E+00  0.00000000000E+00  0.24611828469E+03  0.24611828469E+03  0.00000000000E+00 0.  1.
         21   -1    0    0  501  502 -0.00000000000E+00 -0.00000000000E+00 -0.19121958300E+03  0.19121958300E+03  0.00000000000E+00 0.  1.
      99926    2    1    2    0    0 -0.44408920985E-15  0.14210854715E-13  0.54898701687E+02  0.43733786768E+03  0.43387848882E+03 0.  0.
      99925    2    3    3    0    0  0.22738114700E+01 -0.88257306793E+02  0.61171733029E+02  0.28410150959E+03  0.26301552123E+03 0.  0.
         25    1    3    3    0    0 -0.22738114700E+01  0.88257306793E+02 -0.62730313423E+01  0.15323635810E+03  0.12509000000E+03 0.  0.
         25    1    4    4    0    0  0.14967977133E+02 -0.84130565780E+02  0.38014570058E+02  0.15618773343E+03  0.12509000000E+03 0.  0.
         25    1    4    4    0    0 -0.12694165663E+02 -0.41267410129E+01  0.23157162971E+02  0.12791377615E+03  0.12509000000E+03 0.  0.
<mgrwt>
<rscale>  2 0.43387849E+03</rscale>
<asrwt>0</asrwt>
<pdfrwt beam="1">  1       21 0.36193866E-01 0.43387849E+03</pdfrwt>
<pdfrwt beam="2">  1       21 0.28120527E-01 0.43387849E+03</pdfrwt>
<totfact> 0.82986585E+04</totfact>
</mgrwt>
</event>
<event>
 7    0  0.4737014E-002  0.4544532E+03  0.7546771E-02  0.1026402E+00
         21   -1    0    0  502  501  0.00000000000E+00  0.00000000000E+00  0.50369931647E+02  0.50369931647E+02  0.00000000000E+00 0. -1.
         21   -1    0    0  501  502 -0.00000000000E+00 -0.00000000000E+00 -0.10250545025E+04  0.10250545025E+04  0.00000000000E+00 0. -1.
      99926    2    1    2    0    0  0.71054273576E-14  0.00000000000E+00 -0.97468457083E+03  0.10754244341E+04  0.45445318889E+03 0.  0.
      99925    2    3    3    0    0  0.36393358814E+02  0.93594168398E+02 -0.49294339646E+03  0.56767802881E+03  0.26302244649E+03 0.  0.
         25    1    3    3    0    0 -0.36393358814E+02 -0.93594168398E+02 -0.48174117437E+03  0.50774640532E+03  0.12509000000E+03 0.  0.
         25    1    4    4    0    0  0.17628265313E+02  0.45823519404E+02 -0.16395771145E+03  0.21199101376E+03  0.12509000000E+03 0.  0.
         25    1    4    4    0    0  0.18765093501E+02  0.47770648994E+02 -0.32898568501E+03  0.35568701506E+03  0.12509000000E+03 0.  0.
<mgrwt>
<rscale>  2 0.45445319E+03</rscale>
<asrwt>0</asrwt>
<pdfrwt beam="1">  1       21 0.74073440E-02 0.45445319E+03</pdfrwt>
<pdfrwt beam="2">  1       21 0.15074329E+00 0.45445319E+03</pdfrwt>
<totfact> 0.36513656E+04</totfact>
</mgrwt>
</event>
<event>
 7    0  0.4737014E-002  0.4500274E+03  0.7546771E-02  0.1027714E+00
         21   -1    0    0  502  501  0.00000000000E+00  0.00000000000E+00  0.32771956824E+02  0.32771956824E+02  0.00000000000E+00 0.  1.
         21   -1    0    0  501  502 -0.00000000000E+00 -0.00000000000E+00 -0.15449540276E+04  0.15449540276E+04  0.00000000000E+00 0.  1.
      99926    2    1    2    0    0  0.00000000000E+00  0.71054273576E-14 -0.15121820708E+04  0.15777259844E+04  0.45002740666E+03 0.  0.
      99925    2    3    3    0    0  0.38693369602E+02 -0.53436519930E+02 -0.65944570349E+03  0.71334212369E+03  0.26388579170E+03 0.  0.
         25    1    3    3    0    0 -0.38693369602E+02  0.53436519930E+02 -0.85273636726E+03  0.86438386071E+03  0.12509000000E+03 0.  0.
         25    1    4    4    0    0  0.85664065885E+01 -0.64569511815E+02 -0.38527568383E+03  0.41027730357E+03  0.12509000000E+03 0.  0.
         25    1    4    4    0    0  0.30126963013E+02  0.11132991884E+02 -0.27417001967E+03  0.30306482012E+03  0.12509000000E+03 0.  0.
<mgrwt>
<rscale>  2 0.45002741E+03</rscale>
<asrwt>0</asrwt>
<pdfrwt beam="1">  1       21 0.48194045E-02 0.45002741E+03</pdfrwt>
<pdfrwt beam="2">  1       21 0.22719917E+00 0.45002741E+03</pdfrwt>
<totfact> 0.22804852E+04</totfact>
</mgrwt>
</event>
<event>
 7    0  0.4737014E-002  0.4524281E+03  0.7546771E-02  0.1027000E+00
         21   -1    0    0  502  501  0.00000000000E+00  0.00000000000E+00  0.19107434521E+03  0.19107434521E+03  0.00000000000E+00 0. -1.
         21   -1    0    0  501  502 -0.00000000000E+00 -0.00000000000E+00 -0.26781620523E+03  0.26781620523E+03  0.00000000000E+00 0. -1.
      99926    2    1    2    0    0  0.00000000000E+00 -0.14210854715E-13 -0.76741860025E+02  0.45889055044E+03  0.45242814258E+03 0.  0.
      99925    2    3    3    0    0 -0.40188820825E+02  0.10070338078E+03 -0.25302614582E+02  0.28554172208E+03  0.26294018431E+03 0.  0.
         25    1    3    3    0    0  0.40188820825E+02 -0.10070338078E+03 -0.51439245444E+02  0.17334882836E+03  0.12509000000E+03 0.  0.
         25    1    4    4    0    0 -0.26692493748E+02  0.40926846520E+02  0.26578648517E+02  0.13689933764E+03  0.12509000000E+03 0.  0.
         25    1    4    4    0    0 -0.13496327078E+02  0.59776534264E+02 -0.51881263099E+02  0.14864238445E+03  0.12509000000E+03 0.  0.
<mgrwt>
<rscale>  2 0.45242814E+03</rscale>
<asrwt>0</asrwt>
<pdfrwt beam="1">  1       21 0.28099168E-01 0.45242814E+03</pdfrwt>
<pdfrwt beam="2">  1       21 0.39384736E-01 0.45242814E+03</pdfrwt>
<totfact> 0.69679525E+04</totfact>
</mgrwt>
</event>
<event>
 7    0  0.4737014E-002  0.4528147E+03  0.7546771E-02  0.1026886E+00
         21   -1    0    0  502  501  0.00000000000E+00  0.00000000000E+00  0.11800309827E+03  0.11800309827E+03  0.00000000000E+00 0.  1.
         21   -1    0    0  501  502 -0.00000000000E+00 -0.00000000000E+00 -0.43439780310E+03  0.43439780310E+03  0.00000000000E+00 0.  1.
      99926    2    1    2    0    0 -0.14210854715E-13  0.00000000000E+00 -0.31639470483E+03  0.55240090137E+03  0.45281469343E+03 0.  0.
      99925    2    3    3    0    0 -0.80479846189E+02 -0.22553924657E+02 -0.11010434100E+03  0.29707971645E+03  0.26295951563E+03 0.  0.
         25    1    4    4    0    0 -0.29137996453E+02 -0.17017045574E+02 -0.95519863151E+02  0.16096631646E+03  0.12509000000E+03 0.  0.
         25    1    3    3    0    0  0.80479846189E+02  0.22553924657E+02 -0.20629036382E+03  0.25532118492E+03  0.12509000000E+03 0.  0.
         25    1    4    4    0    0 -0.51341849736E+02 -0.55368790834E+01 -0.14584477853E+02  0.13611340000E+03  0.12509000000E+03 0.  0.
<mgrwt>
<rscale>  2 0.45281469E+03</rscale>
<asrwt>0</asrwt>
<pdfrwt beam="1">  1       21 0.17353397E-01 0.45281469E+03</pdfrwt>
<pdfrwt beam="2">  1       21 0.63882030E-01 0.45281469E+03</pdfrwt>
<totfact> 0.62786621E+04</totfact>
</mgrwt>
</event>
<event>
 7    0  0.4737014E-002  0.4711220E+03  0.7546771E-02  0.1021604E+00
         21   -1    0    0  502  501  0.00000000000E+00  0.00000000000E+00  0.30205472643E+03  0.30205472643E+03  0.00000000000E+00 0.  1.
         21   -1    0    0  501  502 -0.00000000000E+00 -0.00000000000E+00 -0.18370504457E+03  0.18370504457E+03  0.00000000000E+00 0.  1.
      99926    2    1    2    0    0  0.00000000000E+00  0.00000000000E+00  0.11834968185E+03  0.48575977100E+03  0.47112196714E+03 0.  0.
      99925    2    3    3    0    0 -0.32478219110E+02  0.10428539854E+03  0.14137732919E+03  0.31810518649E+03  0.26319779899E+03 0.  0.
         25    1    4    4    0    0 -0.29681066903E+02  0.60580455005E+02  0.30616559648E+02  0.14538170134E+03  0.12509000000E+03 0.  0.
         25    1    3    3    0    0  0.32478219110E+02 -0.10428539854E+03 -0.23027647335E+02  0.16765458451E+03  0.12509000000E+03 0.  0.
         25    1    4    4    0    0 -0.27971522070E+01  0.43704943538E+02  0.11076076954E+03  0.17272348514E+03  0.12509000000E+03 0.  0.
<mgrwt>
<rscale>  2 0.47112197E+03</rscale>
<asrwt>0</asrwt>
<pdfrwt beam="1">  1       21 0.44419813E-01 0.47112197E+03</pdfrwt>
<pdfrwt beam="2">  1       21 0.27015448E-01 0.47112197E+03</pdfrwt>
<totfact> 0.58440368E+04</totfact>
</mgrwt>
</event>
<event>
 7    0  0.4737014E-002  0.4511305E+03  0.7546771E-02  0.1027385E+00
         21   -1    0    0  502  501  0.00000000000E+00  0.00000000000E+00  0.15667188105E+03  0.15667188105E+03  0.00000000000E+00 0. -1.
         21   -1    0    0  501  502 -0.00000000000E+00 -0.00000000000E+00 -0.32475306585E+03  0.32475306585E+03  0.00000000000E+00 0. -1.
      99926    2    1    2    0    0  0.71054273576E-14  0.14210854715E-13 -0.16808118480E+03  0.48142494690E+03  0.45113046319E+03 0.  0.
      99925    2    3    3    0    0 -0.47593965880E+02 -0.98620480336E+02 -0.10618495991E+03  0.30402755265E+03  0.26299490933E+03 0.  0.
         25    1    4    4    0    0 -0.13343783824E+02 -0.76384317294E+02 -0.24639162820E+02  0.14922203906E+03  0.12509000000E+03 0.  0.
         25    1    4    4    0    0 -0.34250182056E+02 -0.22236163042E+02 -0.81545797086E+02  0.15480551360E+03  0.12509000000E+03 0.  0.
         25    1    3    3    0    0  0.47593965880E+02  0.98620480336E+02 -0.61896224898E+02  0.17739739425E+03  0.12509000000E+03 0.  0.
<mgrwt>
<rscale>  2 0.45113046E+03</rscale>
<asrwt>0</asrwt>
<pdfrwt beam="1">  1       21 0.23039982E-01 0.45113046E+03</pdfrwt>
<pdfrwt beam="2">  1       21 0.47757804E-01 0.45113046E+03</pdfrwt>
<totfact> 0.68682111E+04</totfact>
</mgrwt>
</event>
<event>
 7    0  0.4737014E-002  0.4672297E+03  0.7546771E-02  0.1022705E+00
         21   -1    0    0  502  501  0.00000000000E+00  0.00000000000E+00  0.30487353256E+03  0.30487353256E+03  0.00000000000E+00 0.  1.
         21   -1    0    0  501  502 -0.00000000000E+00 -0.00000000000E+00 -0.17901156925E+03  0.17901156925E+03  0.00000000000E+00 0.  1.
      99926    2    1    2    0    0  0.00000000000E+00  0.35527136788E-14  0.12586196331E+03  0.48388510181E+03  0.46722966295E+03 0.  0.
      99925    2    3    3    0    0 -0.85902344893E+02 -0.12949511547E+02  0.17019073159E+03  0.32526779347E+03  0.26322490316E+03 0.  0.
         25    1    4    4    0    0 -0.63949726236E+02 -0.42530769429E+02  0.89327200243E+02  0.17182924849E+03  0.12509000000E+03 0.  0.
         25    1    4    4    0    0 -0.21952618658E+02  0.29581257882E+02  0.80863531344E+02  0.15343854498E+03  0.12509000000E+03 0.  0.
         25    1    3    3    0    0  0.85902344893E+02  0.12949511547E+02 -0.44328768276E+02  0.15861730834E+03  0.12509000000E+03 0.  0.
<mgrwt>
<rscale>  2 0.46722966E+03</rscale>
<asrwt>0</asrwt>
<pdfrwt beam="1">  1       21 0.44834343E-01 0.46722966E+03</pdfrwt>
<pdfrwt beam="2">  1       21 0.26325231E-01 0.46722966E+03</pdfrwt>
<totfact> 0.60345185E+04</totfact>
</mgrwt>
</event>
<event>
 7    0  0.4737014E-002  0.4588090E+03  0.7546771E-02  0.1025127E+00
         21   -1    0    0  502  501  0.00000000000E+00  0.00000000000E+00  0.15810785511E+03  0.15810785511E+03  0.00000000000E+00 0.  1.
         21   -1    0    0  501  502 -0.00000000000E+00 -0.00000000000E+00 -0.33285147123E+03  0.33285147123E+03  0.00000000000E+00 0.  1.
      99926    2    1    2    0    0  0.00000000000E+00 -0.14210854715E-13 -0.17474361612E+03  0.49095932634E+03  0.45880903298E+03 0.  0.
      99925    2    3    3    0    0 -0.65101764387E+02  0.96680324659E+02 -0.10304170206E+03  0.30555706777E+03  0.26298708029E+03 0.  0.
         25    1    3    3    0    0  0.65101764387E+02 -0.96680324659E+02 -0.71701914057E+02  0.18540225857E+03  0.12509000000E+03 0.  0.
         25    1    4    4    0    0 -0.57119703426E+02  0.15788610237E+02 -0.46450227588E+02  0.14600367282E+03  0.12509000000E+03 0.  0.
         25    1    4    4    0    0 -0.79820609619E+01  0.80891714422E+02 -0.56591474476E+02  0.15955339496E+03  0.12509000000E+03 0.  0.
<mgrwt>
<rscale>  2 0.45880903E+03</rscale>
<asrwt>0</asrwt>
<pdfrwt beam="1">  1       21 0.23251155E-01 0.45880903E+03</pdfrwt>
<pdfrwt beam="2">  1       21 0.48948745E-01 0.45880903E+03</pdfrwt>
<totfact> 0.63954696E+04</totfact>
</mgrwt>
</event>
<event>
 7    0  0.4737014E-002  0.4551379E+03  0.7546771E-02  0.1026201E+00
         21   -1    0    0  502  501  0.00000000000E+00  0.00000000000E+00  0.23479865547E+03  0.23479865547E+03  0.00000000000E+00 0. -1.
         21   -1    0    0  501  502 -0.00000000000E+00 -0.00000000000E+00 -0.22056184568E+03  0.22056184568E+03  0.00000000000E+00 0. -1.
      99926    2    1    2    0    0  0.00000000000E+00  0.00000000000E+00  0.14236809786E+02  0.45536050116E+03  0.45513789038E+03 0.  0.
      99925    2    3    3    0    0 -0.10547665045E+03 -0.30628302325E+02 -0.19513227838E+02  0.28550765357E+03  0.26281255201E+03 0.  0.
         25    1    3    3    0    0  0.10547665045E+03  0.30628302325E+02  0.33750037625E+02  0.16985284759E+03  0.12509000000E+03 0.  0.
         25    1    4    4    0    0 -0.92021799607E+02  0.16784362300E+00 -0.88564540383E+01  0.15554415660E+03  0.12509000000E+03 0.  0.
         25    1    4    4    0    0 -0.13454850845E+02 -0.30796145948E+02 -0.10656773800E+02  0.12996349697E+03  0.12509000000E+03 0.  0.
<mgrwt>
<rscale>  2 0.45513789E+03</rscale>
<asrwt>0</asrwt>
<pdfrwt beam="1">  1       21 0.34529214E-01 0.45513789E+03</pdfrwt>
<pdfrwt beam="2">  1       21 0.32435566E-01 0.45513789E+03</pdfrwt>
<totfact> 0.68444067E+04</totfact>
</mgrwt>
</event>
<event>
 7    0  0.4737014E-002  0.4543101E+03  0.7546771E-02  0.1026444E+00
         21   -1    0    0  502  501  0.00000000000E+00  0.00000000000E+00  0.72246463181E+02  0.72246463181E+02  0.00000000000E+00 0. -1.
         21   -1    0    0  501  502 -0.00000000000E+00 -0.00000000000E+00 -0.71421373904E+03  0.71421373904E+03  0.00000000000E+00 0. -1.
      99926    2    1    2    0    0 -0.88817841970E-15  0.00000000000E+00 -0.64196727586E+03  0.78646020223E+03  0.45431009939E+03 0.  0.
      99925    2    3    3    0    0 -0.63290252261E+01  0.96602350537E+02 -0.50338331329E+03  0.57616257154E+03  0.26305223446E+03 0.  0.
         25    1    4    4    0    0 -0.42475234268E+02  0.56631940663E+02 -0.27312181882E+03  0.30863304788E+03  0.12509000000E+03 0.  0.
         25    1    3    3    0    0  0.63290252261E+01 -0.96602350537E+02 -0.13858396258E+03  0.21029763069E+03  0.12509000000E+03 0.  0.
         25    1    4    4    0    0  0.36146209042E+02  0.39970409873E+02 -0.23026149447E+03  0.26752952366E+03  0.12509000000E+03 0.  0.
<mgrwt>
<rscale>  2 0.45431010E+03</rscale>
<asrwt>0</asrwt>
<pdfrwt beam="1">  1       21 0.10624480E-01 0.45431010E+03</pdfrwt>
<pdfrwt beam="2">  1       21 0.10503143E+00 0.45431010E+03</pdfrwt>
<totfact> 0.48689828E+04</totfact>
</mgrwt>
</event>
<event>
 7    0  0.4737014E-002  0.4400028E+03  0.7546771E-02  0.1030746E+00
         21   -1    0    0  502  501  0.00000000000E+00  0.00000000000E+00  0.47220606849E+03  0.47220606849E+03  0.00000000000E+00 0.  1.
         21   -1    0    0  501  502 -0.00000000000E+00 -0.00000000000E+00 -0.10249891819E+03  0.10249891819E+03  0.00000000000E+00 0.  1.
      99926    2    1    2    0    0  0.00000000000E+00  0.00000000000E+00  0.36970715030E+03  0.57470498668E+03  0.44000277810E+03 0.  0.
      99925    2    3    3    0    0  0.33967069461E+02 -0.43492572458E+02  0.34241777310E+03  0.43528625095E+03  0.26301867474E+03 0.  0.
         25    1    4    4    0    0 -0.87034672197E+01 -0.51523202133E+02  0.18966500865E+03  0.23313239652E+03  0.12509000000E+03 0.  0.
         25    1    3    3    0    0 -0.33967069461E+02  0.43492572458E+02  0.27289377205E+02  0.13941873574E+03  0.12509000000E+03 0.  0.
         25    1    4    4    0    0  0.42670536681E+02  0.80306296756E+01  0.15275276445E+03  0.20215385443E+03  0.12509000000E+03 0.  0.
<mgrwt>
<rscale>  2 0.44000278E+03</rscale>
<asrwt>0</asrwt>
<pdfrwt beam="1">  1       21 0.69442068E-01 0.44000278E+03</pdfrwt>
<pdfrwt beam="2">  1       21 0.15073371E-01 0.44000278E+03</pdfrwt>
<totfact> 0.67971148E+04</totfact>
</mgrwt>
</event>
<event>
 7    0  0.4737014E-002  0.4409027E+03  0.7546771E-02  0.1030470E+00
         21   -1    0    0  502  501  0.00000000000E+00  0.00000000000E+00  0.55828715066E+03  0.55828715066E+03  0.00000000000E+00 0.  1.
         21   -1    0    0  501  502 -0.00000000000E+00 -0.00000000000E+00 -0.87049830923E+02  0.87049830923E+02  0.00000000000E+00 0.  1.
      99926    2    1    2    0    0  0.00000000000E+00  0.00000000000E+00  0.47123731974E+03  0.64533698159E+03  0.44090271975E+03 0.  0.
      99925    2    3    3    0    0 -0.53545843269E+02  0.10792910806E+02  0.17888240030E+03  0.32268771183E+03  0.26295399212E+03 0.  0.
         25    1    3    3    0    0  0.53545843269E+02 -0.10792910806E+02  0.29235491944E+03  0.32264926976E+03  0.12509000000E+03 0.  0.
         25    1    4    4    0    0 -0.18915410800E+02 -0.26955728849E+02  0.59649741020E+02  0.14244298434E+03  0.12509000000E+03 0.  0.
         25    1    4    4    0    0 -0.34630432469E+02  0.37748639654E+02  0.11923265928E+03  0.18024472749E+03  0.12509000000E+03 0.  0.
<mgrwt>
<rscale>  2 0.44090272E+03</rscale>
<asrwt>0</asrwt>
<pdfrwt beam="1">  1       21 0.82101050E-01 0.44090272E+03</pdfrwt>
<pdfrwt beam="2">  1       21 0.12801446E-01 0.44090272E+03</pdfrwt>
<totfact> 0.62653009E+04</totfact>
</mgrwt>
</event>
<event>
 7    0  0.4737014E-002  0.4487662E+03  0.7546771E-02  0.1028091E+00
         21   -1    0    0  502  501  0.00000000000E+00  0.00000000000E+00  0.59390133905E+02  0.59390133905E+02  0.00000000000E+00 0. -1.
         21   -1    0    0  501  502 -0.00000000000E+00 -0.00000000000E+00 -0.84774645134E+03  0.84774645134E+03  0.00000000000E+00 0. -1.
      99926    2    1    2    0    0  0.00000000000E+00 -0.14210854715E-13 -0.78835631743E+03  0.90713658524E+03  0.44876619865E+03 0.  0.
      99925    2    3    3    0    0  0.85151771507E+02 -0.64698993270E+02 -0.48461775681E+03  0.56167833128E+03  0.26304257012E+03 0.  0.
         25    1    4    4    0    0  0.35110001987E+02  0.45216339072E+01 -0.18723130788E+03  0.22793908872E+03  0.12509000000E+03 0.  0.
         25    1    3    3    0    0 -0.85151771507E+02  0.64698993270E+02 -0.30373856062E+03  0.34545825396E+03  0.12509000000E+03 0.  0.
         25    1    4    4    0    0  0.50041769520E+02 -0.69220627177E+02 -0.29738644893E+03  0.33373924256E+03  0.12509000000E+03 0.  0.
<mgrwt>
<rscale>  2 0.44876620E+03</rscale>
<asrwt>0</asrwt>
<pdfrwt beam="1">  1       21 0.87338431E-02 0.44876620E+03</pdfrwt>
<pdfrwt beam="2">  1       21 0.12466860E+00 0.44876620E+03</pdfrwt>
<totfact> 0.45086096E+04</totfact>
</mgrwt>
</event>
<event>
 7    0  0.4737014E-002  0.4522006E+03  0.7546771E-02  0.1027068E+00
         21   -1    0    0  502  501  0.00000000000E+00  0.00000000000E+00  0.62600847609E+02  0.62600847609E+02  0.00000000000E+00 0. -1.
         21   -1    0    0  501  502 -0.00000000000E+00 -0.00000000000E+00 -0.81662393677E+03  0.81662393677E+03  0.00000000000E+00 0. -1.
      99926    2    1    2    0    0  0.00000000000E+00  0.00000000000E+00 -0.75402308916E+03  0.87922478438E+03  0.45220062193E+03 0.  0.
      99925    2    3    3    0    0  0.57967402876E+02  0.38558596650E+02 -0.30884845837E+03  0.41159785490E+03  0.26301794378E+03 0.  0.
         25    1    4    4    0    0  0.66082603667E+01  0.34713295805E+02 -0.19725360714E+03  0.23623119108E+03  0.12509000000E+03 0.  0.
         25    1    4    4    0    0  0.51359142509E+02  0.38453008446E+01 -0.11159485123E+03  0.17536666382E+03  0.12509000000E+03 0.  0.
         25    1    3    3    0    0 -0.57967402876E+02 -0.38558596650E+02 -0.44517463079E+03  0.46762692948E+03  0.12509000000E+03 0.  0.
<mgrwt>
<rscale>  2 0.45220062E+03</rscale>
<asrwt>0</asrwt>
<pdfrwt beam="1">  1       21 0.92060069E-02 0.45220062E+03</pdfrwt>
<pdfrwt beam="2">  1       21 0.12009176E+00 0.45220062E+03</pdfrwt>
<totfact> 0.45125412E+04</totfact>
</mgrwt>
</event>
<event>
 7    0  0.4737014E-002  0.4505765E+03  0.7546771E-02  0.1027550E+00
         21   -1    0    0  502  501  0.00000000000E+00  0.00000000000E+00  0.63391363020E+02  0.63391363020E+02  0.00000000000E+00 0. -1.
         21   -1    0    0  501  502 -0.00000000000E+00 -0.00000000000E+00 -0.80065793495E+03  0.80065793495E+03  0.00000000000E+00 0. -1.
      99926    2    1    2    0    0  0.00000000000E+00  0.71054273576E-14 -0.73726657193E+03  0.86404929797E+03  0.45057650986E+03 0.  0.
      99925    2    3    3    0    0  0.12637853095E+02  0.63868901764E+02 -0.63341947877E+03  0.68891883574E+03  0.26296382680E+03 0.  0.
         25    1    4    4    0    0  0.96845758708E+01  0.23408278032E+02 -0.21195427873E+03  0.24741435460E+03  0.12509000000E+03 0.  0.
         25    1    3    3    0    0 -0.12637853095E+02 -0.63868901764E+02 -0.10384709315E+03  0.17513046223E+03  0.12509000000E+03 0.  0.
         25    1    4    4    0    0  0.29532772240E+01  0.40460623733E+02 -0.42146520005E+03  0.44150448114E+03  0.12509000000E+03 0.  0.
<mgrwt>
<rscale>  2 0.45057651E+03</rscale>
<asrwt>0</asrwt>
<pdfrwt beam="1">  1       21 0.93222587E-02 0.45057651E+03</pdfrwt>
<pdfrwt beam="2">  1       21 0.11774382E+00 0.45057651E+03</pdfrwt>
<totfact> 0.46406380E+04</totfact>
</mgrwt>
</event>
<event>
 7    0  0.4737014E-002  0.4556163E+03  0.7546771E-02  0.1026060E+00
         21   -1    0    0  502  501  0.00000000000E+00  0.00000000000E+00  0.28503458185E+03  0.28503458185E+03  0.00000000000E+00 0. -1.
         21   -1    0    0  501  502 -0.00000000000E+00 -0.00000000000E+00 -0.18207109797E+03  0.18207109797E+03  0.00000000000E+00 0. -1.
      99926    2    1    2    0    0  0.00000000000E+00  0.00000000000E+00  0.10296348388E+03  0.46710567982E+03  0.45561632664E+03 0.  0.
      99925    2    3    3    0    0  0.18761924330E+02  0.11221321011E+03  0.64476572943E+02  0.29369124921E+03  0.26297054413E+03 0.  0.
         25    1    4    4    0    0 -0.85445136225E+01  0.27146452345E+02  0.35419189703E+01  0.12833546617E+03  0.12509000000E+03 0.  0.
         25    1    3    3    0    0 -0.18761924330E+02 -0.11221321011E+03  0.38486910939E+02  0.17341443060E+03  0.12509000000E+03 0.  0.
         25    1    4    4    0    0  0.27306437952E+02  0.85066757763E+02  0.60934653973E+02  0.16535578304E+03  0.12509000000E+03 0.  0.
<mgrwt>
<rscale>  2 0.45561633E+03</rscale>
<asrwt>0</asrwt>
<pdfrwt beam="1">  1       21 0.41916850E-01 0.45561633E+03</pdfrwt>
<pdfrwt beam="2">  1       21 0.26775161E-01 0.45561633E+03</pdfrwt>
<totfact> 0.67322193E+04</totfact>
</mgrwt>
</event>
<event>
 7    0  0.4737014E-002  0.4621264E+03  0.7546771E-02  0.1024166E+00
         21   -1    0    0  502  501  0.00000000000E+00  0.00000000000E+00  0.26047936262E+03  0.26047936262E+03  0.00000000000E+00 0. -1.
         21   -1    0    0  501  502 -0.00000000000E+00 -0.00000000000E+00 -0.20496900355E+03  0.20496900355E+03  0.00000000000E+00 0. -1.
      99926    2    1    2    0    0  0.88817841970E-15  0.00000000000E+00  0.55510359063E+02  0.46544836617E+03  0.46212636974E+03 0.  0.
      99925    2    3    3    0    0 -0.44444584791E+01  0.11889734841E+03  0.24662480264E+02  0.29007609813E+03  0.26340002297E+03 0.  0.
         25    1    4    4    0    0  0.75414182849E+01  0.38126888437E+02 -0.23586267730E+02  0.13309527691E+03  0.12509000000E+03 0.  0.
         25    1    3    3    0    0  0.44444584791E+01 -0.11889734841E+03  0.30847878799E+02  0.17537226804E+03  0.12509000000E+03 0.  0.
         25    1    4    4    0    0 -0.11985876764E+02  0.80770459974E+02  0.48248747995E+02  0.15698082121E+03  0.12509000000E+03 0.  0.
<mgrwt>
<rscale>  2 0.46212637E+03</rscale>
<asrwt>0</asrwt>
<pdfrwt beam="1">  1       21 0.38305789E-01 0.46212637E+03</pdfrwt>
<pdfrwt beam="2">  1       21 0.30142500E-01 0.46212637E+03</pdfrwt>
<totfact> 0.64066076E+04</totfact>
</mgrwt>
</event>
<event>
 7    0  0.4737014E-002  0.4544001E+03  0.7546771E-02  0.1026418E+00
         21   -1    0    0  502  501  0.00000000000E+00  0.00000000000E+00  0.20423320269E+03  0.20423320269E+03  0.00000000000E+00 0.  1.
         21   -1    0    0  501  502 -0.00000000000E+00 -0.00000000000E+00 -0.25274964691E+03  0.25274964691E+03  0.00000000000E+00 0.  1.
      99926    2    1    2    0    0  0.00000000000E+00  0.00000000000E+00 -0.48516444217E+02  0.45698284960E+03  0.45440013146E+03 0.  0.
      99925    2    3    3    0    0  0.23823280163E+02 -0.73187684816E+02 -0.11318246603E+03  0.29650484997E+03  0.26302256473E+03 0.  0.
         25    1    4    4    0    0  0.13297882803E+02 -0.75345622235E+02 -0.78147826035E+02  0.16615771812E+03  0.12509000000E+03 0.  0.
         25    1    3    3    0    0 -0.23823280163E+02  0.73187684816E+02  0.64666021809E+02  0.16047799962E+03  0.12509000000E+03 0.  0.
         25    1    4    4    0    0  0.10525397360E+02  0.21579374184E+01 -0.35034639991E+02  0.13034713185E+03  0.12509000000E+03 0.  0.
<mgrwt>
<rscale>  2 0.45440013E+03</rscale>
<asrwt>0</asrwt>
<pdfrwt beam="1">  1       21 0.30034295E-01 0.45440013E+03</pdfrwt>
<pdfrwt beam="2">  1       21 0.37169065E-01 0.45440013E+03</pdfrwt>
<totfact> 0.68729090E+04</totfact>
</mgrwt>
</event>
<event>
 7    0  0.4737014E-002  0.4574591E+03  0.7546771E-02  0.1025521E+00
         21   -1    0    0  502  501  0.00000000000E+00  0.00000000000E+00  0.70898130508E+03  0.70898130508E+03  0.00000000000E+00 0.  1.
         21   -1    0    0  501  502 -0.00000000000E+00 -0.00000000000E+00 -0.73792087133E+02  0.73792087133E+02  0.00000000000E+00 0.  1.
      99926    2    1    2    0    0  0.13322676296E-14  0.00000000000E+00  0.63518921794E+03  0.78277339221E+03  0.45745911398E+03 0.  0.
      99925    2    3    3    0    0 -0.29713747687E+01  0.80648349548E+02  0.54009136393E+03  0.60612658276E+03  0.26301666787E+03 0.  0.
         25    1    4    4    0    0  0.29882176745E+02  0.39679629792E+02  0.32573160838E+03  0.35244291212E+03  0.12509000000E+03 0.  0.
         25    1    3    3    0    0  0.29713747687E+01 -0.80648349548E+02  0.95097854008E+02  0.17664680945E+03  0.12509000000E+03 0.  0.
         25    1    4    4    0    0 -0.32853551514E+02  0.40968719756E+02  0.21435975556E+03  0.25368367064E+03  0.12509000000E+03 0.  0.
<mgrwt>
<rscale>  2 0.45745911E+03</rscale>
<asrwt>0</asrwt>
<pdfrwt beam="1">  1       21 0.10426195E+00 0.45745911E+03</pdfrwt>
<pdfrwt beam="2">  1       21 0.10851778E-01 0.45745911E+03</pdfrwt>
<totfact> 0.47682345E+04</totfact>
</mgrwt>
</event>
<event>
 7    0  0.4737014E-002  0.4455593E+03  0.7546771E-02  0.1029055E+00
         21   -1    0    0  502  501  0.00000000000E+00  0.00000000000E+00  0.93919448905E+03  0.93919448905E+03  0.00000000000E+00 0. -1.
         21   -1    0    0  501  502 -0.00000000000E+00 -0.00000000000E+00 -0.52843976704E+02  0.52843976704E+02  0.00000000000E+00 0. -1.
      99926    2    1    2    0    0  0.00000000000E+00  0.17763568394E-14  0.88635051235E+03  0.99203846576E+03  0.44555929662E+03 0.  0.
      99925    2    3    3    0    0  0.62326297466E+02  0.13614216224E+02  0.38073641319E+03  0.46728801115E+03  0.26330202202E+03 0.  0.
         25    1    4    4    0    0  0.44319349582E+02  0.45370803582E+02  0.20940435665E+03  0.25203255197E+03  0.12509000000E+03 0.  0.
         25    1    4    4    0    0  0.18006947884E+02 -0.31756587358E+02  0.17133205654E+03  0.21525545919E+03  0.12509000000E+03 0.  0.
         25    1    3    3    0    0 -0.62326297466E+02 -0.13614216224E+02  0.50561409916E+03  0.52475045460E+03  0.12509000000E+03 0.  0.
<mgrwt>
<rscale>  2 0.44555930E+03</rscale>
<asrwt>0</asrwt>
<pdfrwt beam="1">  1       21 0.13811683E+00 0.44555930E+03</pdfrwt>
<pdfrwt beam="2">  1       21 0.77711736E-02 0.44555930E+03</pdfrwt>
<totfact> 0.42528295E+04</totfact>
</mgrwt>
</event>
<event>
 7    0  0.4737014E-002  0.4275887E+03  0.7546771E-02  0.1034624E+00
         21   -1    0    0  502  501  0.00000000000E+00  0.00000000000E+00  0.25259620687E+03  0.25259620687E+03  0.00000000000E+00 0.  1.
         21   -1    0    0  501  502 -0.00000000000E+00 -0.00000000000E+00 -0.18095289082E+03  0.18095289082E+03  0.00000000000E+00 0.  1.
      99926    2    1    2    0    0  0.00000000000E+00  0.00000000000E+00  0.71643316047E+02  0.43354909769E+03  0.42758865206E+03 0.  0.
      99925    2    3    3    0    0 -0.67239487571E+02  0.31449404347E+02  0.44936033702E+01  0.27334046579E+03  0.26302966381E+03 0.  0.
         25    1    4    4    0    0 -0.37707637768E+01  0.42773638421E+02 -0.44522361644E+01  0.13232963882E+03  0.12509000000E+03 0.  0.
         25    1    4    4    0    0 -0.63468723794E+02 -0.11324234074E+02  0.89458395346E+01  0.14101082697E+03  0.12509000000E+03 0.  0.
         25    1    3    3    0    0  0.67239487571E+02 -0.31449404347E+02  0.67149712677E+02  0.16020863190E+03  0.12509000000E+03 0.  0.
<mgrwt>
<rscale>  2 0.42758865E+03</rscale>
<asrwt>0</asrwt>
<pdfrwt beam="1">  1       21 0.37146501E-01 0.42758865E+03</pdfrwt>
<pdfrwt beam="2">  1       21 0.26610719E-01 0.42758865E+03</pdfrwt>
<totfact> 0.87836481E+04</totfact>
</mgrwt>
</event>
<event>
 7    0  0.4737014E-002  0.4558394E+03  0.7546771E-02  0.1025995E+00
         21   -1    0    0  502  501  0.00000000000E+00  0.00000000000E+00  0.13971400063E+03  0.13971400063E+03  0.00000000000E+00 0.  1.
         21   -1    0    0  501  502 -0.00000000000E+00 -0.00000000000E+00 -0.37181241475E+03  0.37181241475E+03  0.00000000000E+00 0.  1.
      99926    2    1    2    0    0  0.35527136788E-14  0.00000000000E+00 -0.23209841412E+03  0.51152641538E+03  0.45583944519E+03 0.  0.
      99925    2    3    3    0    0  0.16914081608E+02 -0.38304704916E+02 -0.26486433686E+03  0.37560566506E+03  0.26300791264E+03 0.  0.
         25    1    4    4    0    0  0.22628037123E+02 -0.12151505186E+01 -0.83434828800E+02  0.15206045972E+03  0.12509000000E+03 0.  0.
         25    1    4    4    0    0 -0.57139555159E+01 -0.37089554397E+02 -0.18142950806E+03  0.22354520533E+03  0.12509000000E+03 0.  0.
         25    1    3    3    0    0 -0.16914081608E+02  0.38304704916E+02  0.32765922733E+02  0.13592075032E+03  0.12509000000E+03 0.  0.
<mgrwt>
<rscale>  2 0.45583945E+03</rscale>
<asrwt>0</asrwt>
<pdfrwt beam="1">  1       21 0.20546177E-01 0.45583945E+03</pdfrwt>
<pdfrwt beam="2">  1       21 0.54678296E-01 0.45583945E+03</pdfrwt>
<totfact> 0.64040551E+04</totfact>
</mgrwt>
</event>
<event>
 7    0  0.4737014E-002  0.4534451E+03  0.7546771E-02  0.1026700E+00
         21   -1    0    0  502  501  0.00000000000E+00  0.00000000000E+00  0.10683484793E+03  0.10683484793E+03  0.00000000000E+00 0.  1.
         21   -1    0    0  501  502 -0.00000000000E+00 -0.00000000000E+00 -0.48114567850E+03  0.48114567850E+03  0.00000000000E+00 0.  1.
      99926    2    1    2    0    0 -0.17763568394E-14 -0.35527136788E-14 -0.37431083057E+03  0.58798052642E+03  0.45344514726E+03 0.  0.
      99925    2    3    3    0    0 -0.10084153483E+02  0.26147560061E+02 -0.37605001589E+03  0.45977788248E+03  0.26305265959E+03 0.  0.
         25    1    4    4    0    0 -0.43963966399E+02  0.21937332211E+02 -0.17750141699E+03  0.22263947992E+03  0.12509000000E+03 0.  0.
         25    1    3    3    0    0  0.10084153483E+02 -0.26147560061E+02  0.17391853240E+01  0.12820264394E+03  0.12509000000E+03 0.  0.
         25    1    4    4    0    0  0.33879812915E+02  0.42102278503E+01 -0.19854859891E+03  0.23713840256E+03  0.12509000000E+03 0.  0.
<mgrwt>
<rscale>  2 0.45344515E+03</rscale>
<asrwt>0</asrwt>
<pdfrwt beam="1">  1       21 0.15711007E-01 0.45344515E+03</pdfrwt>
<pdfrwt beam="2">  1       21 0.70756719E-01 0.45344515E+03</pdfrwt>
<totfact> 0.60160194E+04</totfact>
</mgrwt>
</event>
<event>
 7    0  0.4737014E-002  0.4483346E+03  0.7546771E-02  0.1028220E+00
         21   -1    0    0  502  501  0.00000000000E+00  0.00000000000E+00  0.59906013982E+02  0.59906013982E+02  0.00000000000E+00 0.  1.
         21   -1    0    0  501  502 -0.00000000000E+00 -0.00000000000E+00 -0.83883037731E+03  0.83883037731E+03  0.00000000000E+00 0.  1.
      99926    2    1    2    0    0  0.00000000000E+00  0.00000000000E+00 -0.77892436333E+03  0.89873639130E+03  0.44833462642E+03 0.  0.
      99925    2    3    3    0    0 -0.64181819823E+02 -0.81982216164E+02 -0.54067707066E+03  0.61020620166E+03  0.26302000694E+03 0.  0.
         25    1    4    4    0    0 -0.34197179971E+02 -0.48802869606E+02 -0.18957917642E+03  0.23481682102E+03  0.12509000000E+03 0.  0.
         25    1    4    4    0    0 -0.29984639852E+02 -0.33179346559E+02 -0.35109789423E+03  0.37538938064E+03  0.12509000000E+03 0.  0.
         25    1    3    3    0    0  0.64181819823E+02  0.81982216164E+02 -0.23824729268E+03  0.28853018963E+03  0.12509000000E+03 0.  0.
<mgrwt>
<rscale>  2 0.44833463E+03</rscale>
<asrwt>0</asrwt>
<pdfrwt beam="1">  1       21 0.88097089E-02 0.44833463E+03</pdfrwt>
<pdfrwt beam="2">  1       21 0.12335739E+00 0.44833463E+03</pdfrwt>
<totfact> 0.45622603E+04</totfact>
</mgrwt>
</event>
<event>
 7    0  0.4737014E-002  0.4452524E+03  0.7546771E-02  0.1029147E+00
         21   -1    0    0  502  501  0.00000000000E+00  0.00000000000E+00  0.69236761643E+03  0.69236761643E+03  0.00000000000E+00 0. -1.
         21   -1    0    0  501  502 -0.00000000000E+00 -0.00000000000E+00 -0.71583987602E+02  0.71583987602E+02  0.00000000000E+00 0. -1.
      99926    2    1    2    0    0  0.35527136788E-14 -0.71054273576E-14  0.62078362883E+03  0.76395160404E+03  0.44525244467E+03 0.  0.
      99925    2    3    3    0    0 -0.10831342147E+02  0.56796767277E+02  0.24643968984E+03  0.36504800227E+03  0.26302914760E+03 0.  0.
         25    1    4    4    0    0  0.18721846259E+02  0.95614535072E+00  0.91368440185E+02  0.15603564241E+03  0.12509000000E+03 0.  0.
         25    1    3    3    0    0  0.10831342147E+02 -0.56796767277E+02  0.37434393899E+03  0.39890360177E+03  0.12509000000E+03 0.  0.
         25    1    4    4    0    0 -0.29553188406E+02  0.55840621927E+02  0.15507124966E+03  0.20901235986E+03  0.12509000000E+03 0.  0.
<mgrwt>
<rscale>  2 0.44525244E+03</rscale>
<asrwt>0</asrwt>
<pdfrwt beam="1">  1       21 0.10181876E+00 0.44525244E+03</pdfrwt>
<pdfrwt beam="2">  1       21 0.10527057E-01 0.44525244E+03</pdfrwt>
<totfact> 0.53538723E+04</totfact>
</mgrwt>
</event>
<event>
 7    0  0.4737014E-002  0.4561505E+03  0.7546771E-02  0.1025904E+00
         21   -1    0    0  502  501  0.00000000000E+00  0.00000000000E+00  0.55260443906E+03  0.55260443906E+03  0.00000000000E+00 0.  1.
         21   -1    0    0  501  502 -0.00000000000E+00 -0.00000000000E+00 -0.94133025727E+02  0.94133025727E+02  0.00000000000E+00 0.  1.
      99926    2    1    2    0    0  0.14210854715E-13 -0.55511151231E-15  0.45847141333E+03  0.64673746479E+03  0.45615053602E+03 0.  0.
      99925    2    3    3    0    0  0.88944421436E+02  0.60754969739E+00  0.39007589957E+03  0.47869897627E+03  0.26283459292E+03 0.  0.
         25    1    4    4    0    0  0.49539148025E+02  0.38746591374E+02  0.17835367186E+03  0.22674427423E+03  0.12509000000E+03 0.  0.
         25    1    3    3    0    0 -0.88944421436E+02 -0.60754969739E+00  0.68395513767E+02  0.16803848852E+03  0.12509000000E+03 0.  0.
         25    1    4    4    0    0  0.39405273411E+02 -0.38139041677E+02  0.21172222770E+03  0.25195470203E+03  0.12509000000E+03 0.  0.
<mgrwt>
<rscale>  2 0.45615054E+03</rscale>
<asrwt>0</asrwt>
<pdfrwt beam="1">  1       21 0.81265357E-01 0.45615054E+03</pdfrwt>
<pdfrwt beam="2">  1       21 0.13843092E-01 0.45615054E+03</pdfrwt>
<totfact> 0.55385355E+04</totfact>
</mgrwt>
</event>
<event>
 7    0  0.4737014E-002  0.4950615E+03  0.7546771E-02  0.1015076E+00
         21   -1    0    0  502  501  0.00000000000E+00  0.00000000000E+00  0.20053432320E+03  0.20053432320E+03  0.00000000000E+00 0.  1.
         21   -1    0    0  501  502 -0.00000000000E+00 -0.00000000000E+00 -0.30554104826E+03  0.30554104826E+03  0.00000000000E+00 0.  1.
      99926    2    1    2    0    0  0.00000000000E+00  0.00000000000E+00 -0.10500672505E+03  0.50607537146E+03  0.49506148031E+03 0.  0.
      99925    2    3    3    0    0  0.12103547708E+03  0.75222182300E+02 -0.10322406119E+03  0.31644771152E+03  0.26301327703E+03 0.  0.
         25    1    4    4    0    0  0.40951831604E+02  0.36424543726E+02 -0.87352900905E+02  0.16211673971E+03  0.12509000000E+03 0.  0.
         25    1    3    3    0    0 -0.12103547708E+03 -0.75222182300E+02 -0.17826638601E+01  0.18962765994E+03  0.12509000000E+03 0.  0.
         25    1    4    4    0    0  0.80083645479E+02  0.38797638574E+02 -0.15871160289E+02  0.15433097181E+03  0.12509000000E+03 0.  0.
<mgrwt>
<rscale>  2 0.49506148E+03</rscale>
<asrwt>0</asrwt>
<pdfrwt beam="1">  1       21 0.29490342E-01 0.49506148E+03</pdfrwt>
<pdfrwt beam="2">  1       21 0.44932507E-01 0.49506148E+03</pdfrwt>
<totfact> 0.47749486E+04</totfact>
</mgrwt>
</event>
<event>
 7    0  0.4737014E-002  0.4492551E+03  0.7546771E-02  0.1027944E+00
         21   -1    0    0  502  501  0.00000000000E+00  0.00000000000E+00  0.78674039701E+02  0.78674039701E+02  0.00000000000E+00 0.  1.
         21   -1    0    0  501  502 -0.00000000000E+00 -0.00000000000E+00 -0.64134927682E+03  0.64134927682E+03  0.00000000000E+00 0.  1.
      99926    2    1    2    0    0  0.00000000000E+00  0.00000000000E+00 -0.56267523712E+03  0.72002331652E+03  0.44925511000E+03 0.  0.
      99925    2    3    3    0    0  0.74329271976E+02  0.77807158382E+02 -0.34757575291E+03  0.44892538076E+03  0.26295683849E+03 0.  0.
         25    1    4    4    0    0  0.25303236746E+02  0.28458022617E+02 -0.22613426163E+03  0.26121700791E+03  0.12509000000E+03 0.  0.
         25    1    4    4    0    0  0.49026035231E+02  0.49349135765E+02 -0.12144149129E+03  0.18770837285E+03  0.12509000000E+03 0.  0.
         25    1    3    3    0    0 -0.74329271976E+02 -0.77807158382E+02 -0.21509948420E+03  0.27109793576E+03  0.12509000000E+03 0.  0.
<mgrwt>
<rscale>  2 0.44925511E+03</rscale>
<asrwt>0</asrwt>
<pdfrwt beam="1">  1       21 0.11569712E-01 0.44925511E+03</pdfrwt>
<pdfrwt beam="2">  1       21 0.94316068E-01 0.44925511E+03</pdfrwt>
<totfact> 0.54238936E+04</totfact>
</mgrwt>
</event>
<event>
 7    0  0.4737014E-002  0.4554827E+03  0.7546771E-02  0.1026100E+00
         21   -1    0    0  502  501  0.00000000000E+00  0.00000000000E+00  0.36233729551E+03  0.36233729551E+03  0.00000000000E+00 0.  1.
         21   -1    0    0  501  502 -0.00000000000E+00 -0.00000000000E+00 -0.14314321878E+03  0.14314321878E+03  0.00000000000E+00 0.  1.
      99926    2    1    2    0    0  0.00000000000E+00 -0.35527136788E-14  0.21919407673E+03  0.50548051428E+03  0.45548271871E+03 0.  0.
      99925    2    3    3    0    0 -0.11142901239E+03  0.19135983901E+02  0.12531061321E+03  0.31249288902E+03  0.26299514297E+03 0.  0.
         25    1    3    3    0    0  0.11142901239E+03 -0.19135983901E+02  0.93883463525E+02  0.19298762526E+03  0.12509000000E+03 0.  0.
         25    1    4    4    0    0 -0.31719930795E+02  0.42538797257E+02  0.65726975091E+02  0.15094120258E+03  0.12509000000E+03 0.  0.
         25    1    4    4    0    0 -0.79709081591E+02 -0.23402813356E+02  0.59583638115E+02  0.16155168644E+03  0.12509000000E+03 0.  0.
<mgrwt>
<rscale>  2 0.45548272E+03</rscale>
<asrwt>0</asrwt>
<pdfrwt beam="1">  1       21 0.53284896E-01 0.45548272E+03</pdfrwt>
<pdfrwt beam="2">  1       21 0.21050473E-01 0.45548272E+03</pdfrwt>
<totfact> 0.64639311E+04</totfact>
</mgrwt>
</event>
<event>
 7    0  0.4737014E-002  0.4587488E+03  0.7546771E-02  0.1025145E+00
         21   -1    0    0  502  501  0.00000000000E+00  0.00000000000E+00  0.22310838168E+03  0.22310838168E+03  0.00000000000E+00 0.  1.
         21   -1    0    0  501  502 -0.00000000000E+00 -0.00000000000E+00 -0.23581635384E+03  0.23581635384E+03  0.00000000000E+00 0.  1.
      99926    2    1    2    0    0  0.35527136788E-14 -0.22204460493E-14 -0.12707972168E+02  0.45892473552E+03  0.45874875511E+03 0.  0.
      99925    2    3    3    0    0  0.20498967385E+02 -0.70319564961E+00 -0.12289362039E+03  0.29096912435E+03  0.26294388611E+03 0.  0.
         25    1    3    3    0    0 -0.20498967385E+02  0.70319564961E+00  0.11018564823E+03  0.16795561117E+03  0.12509000000E+03 0.  0.
         25    1    4    4    0    0  0.19808631340E+02  0.38451630492E+02 -0.68783451315E+02  0.14916293453E+03  0.12509000000E+03 0.  0.
         25    1    4    4    0    0  0.69033604479E+00 -0.39154826142E+02 -0.54110169079E+02  0.14180618982E+03  0.12509000000E+03 0.  0.
<mgrwt>
<rscale>  2 0.45874876E+03</rscale>
<asrwt>0</asrwt>
<pdfrwt beam="1">  1       21 0.32810056E-01 0.45874876E+03</pdfrwt>
<pdfrwt beam="2">  1       21 0.34678876E-01 0.45874876E+03</pdfrwt>
<totfact> 0.66255179E+04</totfact>
</mgrwt>
</event>
<event>
 7    0  0.4737014E-002  0.4498131E+03  0.7546771E-02  0.1027778E+00
         21   -1    0    0  502  501  0.00000000000E+00  0.00000000000E+00  0.92863930058E+03  0.92863930058E+03  0.00000000000E+00 0. -1.
         21   -1    0    0  501  502 -0.00000000000E+00 -0.00000000000E+00 -0.54469965811E+02  0.54469965811E+02  0.00000000000E+00 0. -1.
      99926    2    1    2    0    0  0.00000000000E+00  0.71054273576E-14  0.87416933477E+03  0.98310926639E+03  0.44981307653E+03 0.  0.
      99925    2    3    3    0    0  0.64463058866E+02 -0.40919319772E+02  0.72049893384E+03  0.77076055104E+03  0.26291298311E+03 0.  0.
         25    1    4    4    0    0  0.27438799168E+02 -0.58851836128E+02  0.40772622199E+03  0.43139843128E+03  0.12509000000E+03 0.  0.
         25    1    4    4    0    0  0.37024259697E+02  0.17932516357E+02  0.31277271185E+03  0.33936211976E+03  0.12509000000E+03 0.  0.
         25    1    3    3    0    0 -0.64463058866E+02  0.40919319772E+02  0.15367040093E+03  0.21234871535E+03  0.12509000000E+03 0.  0.
<mgrwt>
<rscale>  2 0.44981308E+03</rscale>
<asrwt>0</asrwt>
<pdfrwt beam="1">  1       21 0.13656459E+00 0.44981308E+03</pdfrwt>
<pdfrwt beam="2">  1       21 0.80102896E-02 0.44981308E+03</pdfrwt>
<totfact> 0.41484759E+04</totfact>
</mgrwt>
</event>
<event>
 7    0  0.4737014E-002  0.4626295E+03  0.7546771E-02  0.1024021E+00
         21   -1    0    0  502  501  0.00000000000E+00  0.00000000000E+00  0.18267796502E+03  0.18267796502E+03  0.00000000000E+00 0. -1.
         21   -1    0    0  501  502 -0.00000000000E+00 -0.00000000000E+00 -0.29290081238E+03  0.29290081238E+03  0.00000000000E+00 0. -1.
      99926    2    1    2    0    0 -0.71054273576E-14  0.00000000000E+00 -0.11022284736E+03  0.47557877739E+03  0.46262954664E+03 0.  0.
      99925    2    3    3    0    0 -0.59801782099E+02 -0.16535113955E+02 -0.17472412388E+03  0.32176855047E+03  0.26297683827E+03 0.  0.
         25    1    4    4    0    0 -0.26553758029E+02 -0.21193739761E+01 -0.39095357833E+02  0.13373686446E+03  0.12509000000E+03 0.  0.
         25    1    4    4    0    0 -0.33248024070E+02 -0.14415739979E+02 -0.13562876604E+03  0.18803168601E+03  0.12509000000E+03 0.  0.
         25    1    3    3    0    0  0.59801782099E+02  0.16535113955E+02  0.64501276516E+02  0.15381022693E+03  0.12509000000E+03 0.  0.
<mgrwt>
<rscale>  2 0.46262955E+03</rscale>
<asrwt>0</asrwt>
<pdfrwt beam="1">  1       21 0.26864407E-01 0.46262955E+03</pdfrwt>
<pdfrwt beam="2">  1       21 0.43073648E-01 0.46262955E+03</pdfrwt>
<totfact> 0.63115596E+04</totfact>
</mgrwt>
</event>
<event>
 7    0  0.4737014E-002  0.4715561E+03  0.7546771E-02  0.1021482E+00
         21   -1    0    0  502  501  0.00000000000E+00  0.00000000000E+00  0.12045354282E+03  0.12045354282E+03  0.00000000000E+00 0.  1.
         21   -1    0    0  501  502 -0.00000000000E+00 -0.00000000000E+00 -0.46151641349E+03  0.46151641349E+03  0.00000000000E+00 0.  1.
      99926    2    1    2    0    0  0.39968028887E-14  0.00000000000E+00 -0.34106287067E+03  0.58196995632E+03  0.47155609243E+03 0.  0.
      99925    2    3    3    0    0 -0.19984650522E+01  0.16399749447E+02 -0.54800178065E+02  0.26913328500E+03  0.26297665283E+03 0.  0.
         25    1    4    4    0    0  0.35628050222E+02  0.67299127171E+01 -0.44957996223E+02  0.13778018440E+03  0.12509000000E+03 0.  0.
         25    1    3    3    0    0  0.19984650522E+01 -0.16399749447E+02 -0.28626269260E+03  0.31283667132E+03  0.12509000000E+03 0.  0.
         25    1    4    4    0    0 -0.37626515274E+02  0.96698367298E+01 -0.98421818421E+01  0.13135310060E+03  0.12509000000E+03 0.  0.
<mgrwt>
<rscale>  2 0.47155609E+03</rscale>
<asrwt>0</asrwt>
<pdfrwt beam="1">  1       21 0.17713756E-01 0.47155609E+03</pdfrwt>
<pdfrwt beam="2">  1       21 0.67870062E-01 0.47155609E+03</pdfrwt>
<totfact> 0.52575103E+04</totfact>
</mgrwt>
</event>
<event>
 7    0  0.4737014E-002  0.4356134E+03  0.7546771E-02  0.1032101E+00
         21   -1    0    0  502  501  0.00000000000E+00  0.00000000000E+00  0.19324197171E+04  0.19324197171E+04  0.00000000000E+00 0. -1.
         21   -1    0    0  501  502 -0.00000000000E+00 -0.00000000000E+00 -0.24549406577E+02  0.24549406577E+02  0.00000000000E+00 0. -1.
      99926    2    1    2    0    0  0.00000000000E+00  0.14210854715E-13  0.19078703105E+04  0.19569691236E+04  0.43561339425E+03 0.  0.
      99925    2    3    3    0    0 -0.40589350100E+02  0.77657795634E+02  0.13743133057E+04  0.14019837058E+04  0.26295060473E+03 0.  0.
         25    1    4    4    0    0 -0.35375354589E+01  0.37363876662E+02  0.48617334759E+03  0.50340898427E+03  0.12509000000E+03 0.  0.
         25    1    4    4    0    0 -0.37051814641E+02  0.40293918971E+02  0.88813995809E+03  0.89857472151E+03  0.12509000000E+03 0.  0.
         25    1    3    3    0    0  0.40589350100E+02 -0.77657795634E+02  0.53355700481E+03  0.55498541787E+03  0.12509000000E+03 0.  0.
<mgrwt>
<rscale>  2 0.43561339E+03</rscale>
<asrwt>0</asrwt>
<pdfrwt beam="1">  1       21 0.28417927E+00 0.43561339E+03</pdfrwt>
<pdfrwt beam="2">  1       21 0.36102082E-02 0.43561339E+03</pdfrwt>
<totfact> 0.16817222E+04</totfact>
</mgrwt>
</event>
<event>
 7    0  0.4737014E-002  0.4532065E+03  0.7546771E-02  0.1026770E+00
         21   -1    0    0  502  501  0.00000000000E+00  0.00000000000E+00  0.24973206017E+03  0.24973206017E+03  0.00000000000E+00 0.  1.
         21   -1    0    0  501  502 -0.00000000000E+00 -0.00000000000E+00 -0.20561653367E+03  0.20561653367E+03  0.00000000000E+00 0.  1.
      99926    2    1    2    0    0  0.00000000000E+00  0.35527136788E-14  0.44115526496E+02  0.45534859384E+03  0.45320653375E+03 0.  0.
      99925    2    3    3    0    0  0.52418285945E+02  0.26744737793E+02 -0.67293136931E+02  0.27780323037E+03  0.26302720549E+03 0.  0.
         25    1    4    4    0    0 -0.29349553882E+01  0.35307075710E+02 -0.14051344481E+02  0.13076754926E+03  0.12509000000E+03 0.  0.
         25    1    3    3    0    0 -0.52418285945E+02 -0.26744737793E+02  0.11140866343E+03  0.17754536346E+03  0.12509000000E+03 0.  0.
         25    1    4    4    0    0  0.55353241333E+02 -0.85623379171E+01 -0.53241792450E+02  0.14703568111E+03  0.12509000000E+03 0.  0.
<mgrwt>
<rscale>  2 0.45320653E+03</rscale>
<asrwt>0</asrwt>
<pdfrwt beam="1">  1       21 0.36725303E-01 0.45320653E+03</pdfrwt>
<pdfrwt beam="2">  1       21 0.30237726E-01 0.45320653E+03</pdfrwt>
<totfact> 0.69509584E+04</totfact>
</mgrwt>
</event>
<event>
 7    0  0.4737014E-002  0.4541508E+03  0.7546771E-02  0.1026491E+00
         21   -1    0    0  502  501  0.00000000000E+00  0.00000000000E+00  0.10663762308E+03  0.10663762308E+03  0.00000000000E+00 0.  1.
         21   -1    0    0  501  502 -0.00000000000E+00 -0.00000000000E+00 -0.48353694391E+03  0.48353694391E+03  0.00000000000E+00 0.  1.
      99926    2    1    2    0    0 -0.14210854715E-13 -0.17763568394E-14 -0.37689932083E+03  0.59017456698E+03  0.45415076954E+03 0.  0.
      99925    2    3    3    0    0 -0.10642018369E+03 -0.13964983474E+02 -0.19421084055E+03  0.34411996900E+03  0.26302172196E+03 0.  0.
         25    1    3    3    0    0  0.10642018369E+03  0.13964983474E+02 -0.18268848028E+03  0.24605459798E+03  0.12509000000E+03 0.  0.
         25    1    4    4    0    0 -0.14472173421E+02 -0.83318520795E+01 -0.11001555124E+03  0.16742100578E+03  0.12509000000E+03 0.  0.
         25    1    4    4    0    0 -0.91948010270E+02 -0.56331313950E+01 -0.84195289302E+02  0.17669896322E+03  0.12509000000E+03 0.  0.
<mgrwt>
<rscale>  2 0.45415077E+03</rscale>
<asrwt>0</asrwt>
<pdfrwt beam="1">  1       21 0.15682003E-01 0.45415077E+03</pdfrwt>
<pdfrwt beam="2">  1       21 0.71108374E-01 0.45415077E+03</pdfrwt>
<totfact> 0.59686760E+04</totfact>
</mgrwt>
</event>
<event>
 7    0  0.4737014E-002  0.4462854E+03  0.7546771E-02  0.1028836E+00
         21   -1    0    0  502  501  0.00000000000E+00  0.00000000000E+00  0.34262161659E+03  0.34262161659E+03  0.00000000000E+00 0. -1.
         21   -1    0    0  501  502 -0.00000000000E+00 -0.00000000000E+00 -0.14532843416E+03  0.14532843416E+03  0.00000000000E+00 0. -1.
      99926    2    1    2    0    0 -0.14210854715E-13 -0.35527136788E-14  0.19729318243E+03  0.48795005075E+03  0.44628539321E+03 0.  0.
      99925    2    3    3    0    0  0.84091107983E+02  0.21373320816E+02  0.19004252310E+03  0.33554200160E+03  0.26257216335E+03 0.  0.
         25    1    3    3    0    0 -0.84091107983E+02 -0.21373320816E+02  0.72506593359E+01  0.15240804915E+03  0.12509000000E+03 0.  0.
         25    1    4    4    0    0  0.20318442639E+02 -0.23453864450E+02  0.81350256502E+02  0.15240831736E+03  0.12509000000E+03 0.  0.
         25    1    4    4    0    0  0.63772665345E+02  0.44827185266E+02  0.10869226660E+03  0.18313368424E+03  0.12509000000E+03 0.  0.
<mgrwt>
<rscale>  2 0.44628539E+03</rscale>
<asrwt>0</asrwt>
<pdfrwt beam="1">  1       21 0.50385532E-01 0.44628539E+03</pdfrwt>
<pdfrwt beam="2">  1       21 0.21371829E-01 0.44628539E+03</pdfrwt>
<totfact> 0.70905672E+04</totfact>
</mgrwt>
</event>
<event>
 7    0  0.4737014E-002  0.4565348E+03  0.7546771E-02  0.1025791E+00
         21   -1    0    0  502  501  0.00000000000E+00  0.00000000000E+00  0.24939335427E+03  0.24939335427E+03  0.00000000000E+00 0. -1.
         21   -1    0    0  501  502 -0.00000000000E+00 -0.00000000000E+00 -0.20893103416E+03  0.20893103416E+03  0.00000000000E+00 0. -1.
      99926    2    1    2    0    0  0.14210854715E-13  0.17763568394E-14  0.40462320107E+02  0.45832438844E+03  0.45653482418E+03 0.  0.
      99925    2    3    3    0    0  0.94504935867E+02  0.12425863325E+02 -0.38483655570E+02  0.28235404958E+03  0.26297762753E+03 0.  0.
         25    1    3    3    0    0 -0.94504935867E+02 -0.12425863325E+02  0.78945975677E+02  0.17597033886E+03  0.12509000000E+03 0.  0.
         25    1    4    4    0    0  0.17190790003E+02  0.29122526853E+02 -0.59539441770E+00  0.12958204901E+03  0.12509000000E+03 0.  0.
         25    1    4    4    0    0  0.77314145864E+02 -0.16696663527E+02 -0.37888261153E+02  0.15277200057E+03  0.12509000000E+03 0.  0.
<mgrwt>
<rscale>  2 0.45653482E+03</rscale>
<asrwt>0</asrwt>
<pdfrwt beam="1">  1       21 0.36675494E-01 0.45653482E+03</pdfrwt>
<pdfrwt beam="2">  1       21 0.30725152E-01 0.45653482E+03</pdfrwt>
<totfact> 0.67472900E+04</totfact>
</mgrwt>
</event>
<event>
 7    0  0.4737014E-002  0.4547990E+03  0.7546771E-02  0.1026301E+00
         21   -1    0    0  502  501  0.00000000000E+00  0.00000000000E+00  0.15562531470E+03  0.15562531470E+03  0.00000000000E+00 0. -1.
         21   -1    0    0  501  502 -0.00000000000E+00 -0.00000000000E+00 -0.33227577216E+03  0.33227577216E+03  0.00000000000E+00 0. -1.
      99926    2    1    2    0    0  0.00000000000E+00  0.00000000000E+00 -0.17665045746E+03  0.48790108686E+03  0.45479895167E+03 0.  0.
      99925    2    3    3    0    0 -0.94033743983E+02  0.45161056369E+02 -0.64456800548E+02  0.29012143480E+03  0.26293326486E+03 0.  0.
         25    1    4    4    0    0 -0.52035475076E+02  0.52337893086E+02 -0.52959684760E+01  0.14533582181E+03  0.12509000000E+03 0.  0.
         25    1    4    4    0    0 -0.41998268907E+02 -0.71768367172E+01 -0.59160832072E+02  0.14478561299E+03  0.12509000000E+03 0.  0.
         25    1    3    3    0    0  0.94033743983E+02 -0.45161056369E+02 -0.11219365691E+03  0.19777965206E+03  0.12509000000E+03 0.  0.
<mgrwt>
<rscale>  2 0.45479895E+03</rscale>
<asrwt>0</asrwt>
<pdfrwt beam="1">  1       21 0.22886076E-01 0.45479895E+03</pdfrwt>
<pdfrwt beam="2">  1       21 0.48864083E-01 0.45479895E+03</pdfrwt>
<totfact> 0.66234954E+04</totfact>
</mgrwt>
</event>
<event>
 7    0  0.4737014E-002  0.4526395E+03  0.7546771E-02  0.1026938E+00
         21   -1    0    0  502  501  0.00000000000E+00  0.00000000000E+00  0.17206886533E+03  0.17206886533E+03  0.00000000000E+00 0. -1.
         21   -1    0    0  501  502 -0.00000000000E+00 -0.00000000000E+00 -0.29767518104E+03  0.29767518104E+03  0.00000000000E+00 0. -1.
      99926    2    1    2    0    0  0.00000000000E+00 -0.14210854715E-13 -0.12560631571E+03  0.46974404638E+03  0.45263950619E+03 0.  0.
      99925    2    3    3    0    0  0.44250204653E+02 -0.10130295844E+03 -0.70189045327E+02  0.29384932799E+03  0.26305998455E+03 0.  0.
         25    1    4    4    0    0  0.50219623145E+02 -0.33166357471E+02 -0.10247256221E+02  0.13919242859E+03  0.12509000000E+03 0.  0.
         25    1    3    3    0    0 -0.44250204653E+02  0.10130295844E+03 -0.55417270383E+02  0.17589471839E+03  0.12509000000E+03 0.  0.
         25    1    4    4    0    0 -0.59694184920E+01 -0.68136600974E+02 -0.59941789106E+02  0.15465689940E+03  0.12509000000E+03 0.  0.
<mgrwt>
<rscale>  2 0.45263951E+03</rscale>
<asrwt>0</asrwt>
<pdfrwt beam="1">  1       21 0.25304245E-01 0.45263951E+03</pdfrwt>
<pdfrwt beam="2">  1       21 0.43775762E-01 0.45263951E+03</pdfrwt>
<totfact> 0.68732936E+04</totfact>
</mgrwt>
</event>
<event>
 7    0  0.4737014E-002  0.4332716E+03  0.7546771E-02  0.1032831E+00
         21   -1    0    0  502  501  0.00000000000E+00  0.00000000000E+00  0.20673877729E+03  0.20673877729E+03  0.00000000000E+00 0.  1.
         21   -1    0    0  501  502 -0.00000000000E+00 -0.00000000000E+00 -0.22700661662E+03  0.22700661662E+03  0.00000000000E+00 0.  1.
      99926    2    1    2    0    0 -0.71054273576E-14  0.00000000000E+00 -0.20267839321E+02  0.43374539391E+03  0.43327160238E+03 0.  0.
      99925    2    3    3    0    0  0.53954411637E+02  0.61199361198E+01  0.60377807537E+02  0.27531635424E+03  0.26306859014E+03 0.  0.
         25    1    4    4    0    0  0.26491780336E+01 -0.13649888242E+02 -0.17348517958E+00  0.12586054104E+03  0.12509000000E+03 0.  0.
         25    1    3    3    0    0 -0.53954411637E+02 -0.61199361198E+01 -0.80645646858E+02  0.15842903967E+03  0.12509000000E+03 0.  0.
         25    1    4    4    0    0  0.51305233604E+02  0.19769824362E+02  0.60551292716E+02  0.14945581320E+03  0.12509000000E+03 0.  0.
<mgrwt>
<rscale>  2 0.43327160E+03</rscale>
<asrwt>0</asrwt>
<pdfrwt beam="1">  1       21 0.30402762E-01 0.43327160E+03</pdfrwt>
<pdfrwt beam="2">  1       21 0.33383326E-01 0.43327160E+03</pdfrwt>
<totfact> 0.83733959E+04</totfact>
</mgrwt>
</event>
<event>
 7    0  0.4737014E-002  0.4375415E+03  0.7546771E-02  0.1031504E+00
         21   -1    0    0  502  501  0.00000000000E+00  0.00000000000E+00  0.35276421837E+03  0.35276421837E+03  0.00000000000E+00 0.  1.
         21   -1    0    0  501  502 -0.00000000000E+00 -0.00000000000E+00 -0.13567316439E+03  0.13567316439E+03  0.00000000000E+00 0.  1.
      99926    2    1    2    0    0 -0.71054273576E-14 -0.88817841970E-15  0.21709105398E+03  0.48843738277E+03  0.43754148508E+03 0.  0.
      99925    2    3    3    0    0 -0.35371714656E+02  0.10866596660E+01  0.39503091406E+02  0.26835255463E+03  0.26305942355E+03 0.  0.
         25    1    4    4    0    0 -0.52282230297E+02 -0.19196731964E+02  0.29828374662E+02  0.14013988068E+03  0.12509000000E+03 0.  0.
         25    1    3    3    0    0  0.35371714656E+02 -0.10866596660E+01  0.17758796257E+03  0.22008482814E+03  0.12509000000E+03 0.  0.
         25    1    4    4    0    0  0.16910515641E+02  0.20283391630E+02  0.96747167441E+01  0.12821267394E+03  0.12509000000E+03 0.  0.
<mgrwt>
<rscale>  2 0.43754149E+03</rscale>
<asrwt>0</asrwt>
<pdfrwt beam="1">  1       21 0.51877091E-01 0.43754149E+03</pdfrwt>
<pdfrwt beam="2">  1       21 0.19951936E-01 0.43754149E+03</pdfrwt>
<totfact> 0.76103521E+04</totfact>
</mgrwt>
</event>
<event>
 7    0  0.4737014E-002  0.4521966E+03  0.7546771E-02  0.1027069E+00
         21   -1    0    0  502  501  0.00000000000E+00  0.00000000000E+00  0.15293033785E+03  0.15293033785E+03  0.00000000000E+00 0. -1.
         21   -1    0    0  501  502 -0.00000000000E+00 -0.00000000000E+00 -0.33427271040E+03  0.33427271040E+03  0.00000000000E+00 0. -1.
      99926    2    1    2    0    0  0.44408920985E-15  0.14210854715E-13 -0.18134237255E+03  0.48720304826E+03  0.45219658794E+03 0.  0.
      99925    2    3    3    0    0  0.12151121918E+01  0.10375266038E+03 -0.73583029890E+02  0.29220131733E+03  0.26306093691E+03 0.  0.
         25    1    4    4    0    0  0.91592970656E+01  0.50817690194E+02  0.43549944804E+01  0.13539868698E+03  0.12509000000E+03 0.  0.
         25    1    4    4    0    0 -0.79441848738E+01  0.52934970184E+02 -0.77938024371E+02  0.15680263035E+03  0.12509000000E+03 0.  0.
         25    1    3    3    0    0 -0.12151121918E+01 -0.10375266038E+03 -0.10775934266E+03  0.19500173092E+03  0.12509000000E+03 0.  0.
<mgrwt>
<rscale>  2 0.45219659E+03</rscale>
<asrwt>0</asrwt>
<pdfrwt beam="1">  1       21 0.22489755E-01 0.45219659E+03</pdfrwt>
<pdfrwt beam="2">  1       21 0.49157752E-01 0.45219659E+03</pdfrwt>
<totfact> 0.67672982E+04</totfact>
</mgrwt>
</event>
<event>
 7    0  0.4737014E-002  0.4546661E+03  0.7546771E-02  0.1026340E+00
         21   -1    0    0  502  501  0.00000000000E+00  0.00000000000E+00  0.50755291365E+03  0.50755291365E+03  0.00000000000E+00 0. -1.
         21   -1    0    0  501  502 -0.00000000000E+00 -0.00000000000E+00 -0.10182250948E+03  0.10182250948E+03  0.00000000000E+00 0. -1.
      99926    2    1    2    0    0  0.71054273576E-14  0.00000000000E+00  0.40573040417E+03  0.60937542313E+03  0.45466608125E+03 0.  0.
      99925    2    3    3    0    0 -0.38900904276E+02 -0.99894099822E+02  0.20780571688E+03  0.35186076049E+03  0.26292711399E+03 0.  0.
         25    1    4    4    0    0 -0.55055362350E+02 -0.62349297779E+02  0.13209518759E+03  0.20003793275E+03  0.12509000000E+03 0.  0.
         25    1    4    4    0    0  0.16154458073E+02 -0.37544802043E+02  0.75710529291E+02  0.15182282774E+03  0.12509000000E+03 0.  0.
         25    1    3    3    0    0  0.38900904276E+02  0.99894099822E+02  0.19792468729E+03  0.25751466264E+03  0.12509000000E+03 0.  0.
<mgrwt>
<rscale>  2 0.45466608E+03</rscale>
<asrwt>0</asrwt>
<pdfrwt beam="1">  1       21 0.74640133E-01 0.45466608E+03</pdfrwt>
<pdfrwt beam="2">  1       21 0.14973899E-01 0.45466608E+03</pdfrwt>
<totfact> 0.58258381E+04</totfact>
</mgrwt>
</event>
<event>
 7    0  0.4737014E-002  0.4568663E+03  0.7546771E-02  0.1025694E+00
         21   -1    0    0  502  501  0.00000000000E+00  0.00000000000E+00  0.60839246430E+02  0.60839246430E+02  0.00000000000E+00 0. -1.
         21   -1    0    0  501  502 -0.00000000000E+00 -0.00000000000E+00 -0.85769811141E+03  0.85769811141E+03  0.00000000000E+00 0. -1.
      99926    2    1    2    0    0  0.00000000000E+00  0.00000000000E+00 -0.79685886498E+03  0.91853735784E+03  0.45686631201E+03 0.  0.
      99925    2    3    3    0    0  0.60449695204E+02  0.90923192107E+02 -0.42860250570E+03  0.51458012401E+03  0.26300456958E+03 0.  0.
         25    1    4    4    0    0 -0.10116831158E+02  0.33001487474E+02 -0.20349327732E+03  0.24134719899E+03  0.12509000000E+03 0.  0.
         25    1    3    3    0    0 -0.60449695204E+02 -0.90923192107E+02 -0.36825635928E+03  0.40395723383E+03  0.12509000000E+03 0.  0.
         25    1    4    4    0    0  0.70566526361E+02  0.57921704633E+02 -0.22510922838E+03  0.27323292501E+03  0.12509000000E+03 0.  0.
<mgrwt>
<rscale>  2 0.45686631E+03</rscale>
<asrwt>0</asrwt>
<pdfrwt beam="1">  1       21 0.89469490E-02 0.45686631E+03</pdfrwt>
<pdfrwt beam="2">  1       21 0.12613206E+00 0.45686631E+03</pdfrwt>
<totfact> 0.41827644E+04</totfact>
</mgrwt>
</event>
<event>
 7    0  0.4737014E-002  0.4559605E+03  0.7546771E-02  0.1025959E+00
         21   -1    0    0  502  501  0.00000000000E+00  0.00000000000E+00  0.17146495946E+03  0.17146495946E+03  0.00000000000E+00 0. -1.
         21   -1    0    0  501  502 -0.00000000000E+00 -0.00000000000E+00 -0.30312316613E+03  0.30312316613E+03  0.00000000000E+00 0. -1.
      99926    2    1    2    0    0 -0.71054273576E-14  0.00000000000E+00 -0.13165820667E+03  0.47458812559E+03  0.45596053071E+03 0.  0.
      99925    2    3    3    0    0 -0.45547338769E+02  0.10224290541E+03 -0.10517138384E+03  0.30465510449E+03  0.26310747032E+03 0.  0.
         25    1    4    4    0    0 -0.42692248174E+02  0.76436947055E+02 -0.27502317499E+02  0.15514225890E+03  0.12509000000E+03 0.  0.
         25    1    3    3    0    0  0.45547338769E+02 -0.10224290541E+03 -0.26486822826E+02  0.16993302110E+03  0.12509000000E+03 0.  0.
         25    1    4    4    0    0 -0.28550905959E+01  0.25805958353E+02 -0.77669066346E+02  0.14951284559E+03  0.12509000000E+03 0.  0.
<mgrwt>
<rscale>  2 0.45596053E+03</rscale>
<asrwt>0</asrwt>
<pdfrwt beam="1">  1       21 0.25215436E-01 0.45596053E+03</pdfrwt>
<pdfrwt beam="2">  1       21 0.44576936E-01 0.45596053E+03</pdfrwt>
<totfact> 0.66587232E+04</totfact>
</mgrwt>
</event>
<event>
 7    0  0.4737014E-002  0.4496362E+03  0.7546771E-02  0.1027831E+00
         21   -1    0    0  502  501  0.00000000000E+00  0.00000000000E+00  0.10717398873E+03  0.10717398873E+03  0.00000000000E+00 0. -1.
         21   -1    0    0  501  502 -0.00000000000E+00 -0.00000000000E+00 -0.47159919543E+03  0.47159919543E+03  0.00000000000E+00 0. -1.
      99926    2    1    2    0    0  0.00000000000E+00  0.35527136788E-14 -0.36442520670E+03  0.57877318415E+03  0.44963615003E+03 0.  0.
      99925    2    3    3    0    0  0.17121309313E+02  0.23709073689E+02 -0.36438173201E+03  0.45031007895E+03  0.26296361189E+03 0.  0.
         25    1    4    4    0    0 -0.15198459885E+02  0.22548120518E+02 -0.12862053273E+03  0.18146669243E+03  0.12509000000E+03 0.  0.
         25    1    3    3    0    0 -0.17121309313E+02 -0.23709073689E+02 -0.43474697671E-01  0.12846310520E+03  0.12509000000E+03 0.  0.
         25    1    4    4    0    0  0.32319769197E+02  0.11609531704E+01 -0.23576119928E+03  0.26884338652E+03  0.12509000000E+03 0.  0.
<mgrwt>
<rscale>  2 0.44963615E+03</rscale>
<asrwt>0</asrwt>
<pdfrwt beam="1">  1       21 0.15760880E-01 0.44963615E+03</pdfrwt>
<pdfrwt beam="2">  1       21 0.69352824E-01 0.44963615E+03</pdfrwt>
<totfact> 0.62617632E+04</totfact>
</mgrwt>
</event>
<event>
 7    0  0.4737014E-002  0.4726822E+03  0.7546771E-02  0.1021166E+00
         21   -1    0    0  502  501  0.00000000000E+00  0.00000000000E+00  0.83096806924E+03  0.83096806924E+03  0.00000000000E+00 0. -1.
         21   -1    0    0  501  502 -0.00000000000E+00 -0.00000000000E+00 -0.67219328031E+02  0.67219328031E+02  0.00000000000E+00 0. -1.
      99926    2    1    2    0    0  0.00000000000E+00  0.00000000000E+00  0.76374874120E+03  0.89818739727E+03  0.47268219865E+03 0.  0.
      99925    2    3    3    0    0 -0.23332141186E+02  0.10171446245E+03  0.61758643699E+03  0.67932408843E+03  0.26301708933E+03 0.  0.
         25    1    4    4    0    0 -0.12020968052E+02  0.83130627130E+01  0.25541613011E+03  0.28477801584E+03  0.12509000000E+03 0.  0.
         25    1    3    3    0    0  0.23332141186E+02 -0.10171446245E+03  0.14616230422E+03  0.21886330884E+03  0.12509000000E+03 0.  0.
         25    1    4    4    0    0 -0.11311173133E+02  0.93401399732E+02  0.36217030688E+03  0.39454607259E+03  0.12509000000E+03 0.  0.
<mgrwt>
<rscale>  2 0.47268220E+03</rscale>
<asrwt>0</asrwt>
<pdfrwt beam="1">  1       21 0.12220118E+00 0.47268220E+03</pdfrwt>
<pdfrwt beam="2">  1       21 0.98851958E-02 0.47268220E+03</pdfrwt>
<totfact> 0.37800558E+04</totfact>
</mgrwt>
</event>
<event>
 7    0  0.4737014E-002  0.4579877E+03  0.7546771E-02  0.1025366E+00
         21   -1    0    0  502  501  0.00000000000E+00  0.00000000000E+00  0.15479384738E+04  0.15479384738E+04  0.00000000000E+00 0. -1.
         21   -1    0    0  501  502 -0.00000000000E+00 -0.00000000000E+00 -0.33876135635E+02  0.33876135635E+02  0.00000000000E+00 0. -1.
      99926    2    1    2    0    0  0.26645352591E-14  0.00000000000E+00  0.15140623381E+04  0.15818146094E+04  0.45798765788E+03 0.  0.
      99925    2    3    3    0    0 -0.16591351895E+01  0.66830015380E+02  0.62349144538E+03  0.68002027210E+03  0.26309120911E+03 0.  0.
         25    1    4    4    0    0 -0.38865751123E+02  0.26712210104E+02  0.34086945519E+03  0.36614694094E+03  0.12509000000E+03 0.  0.
         25    1    4    4    0    0  0.37206615933E+02  0.40117805276E+02  0.28262199020E+03  0.31387333116E+03  0.12509000000E+03 0.  0.
         25    1    3    3    0    0  0.16591351895E+01 -0.66830015380E+02  0.89057089276E+03  0.90179433732E+03  0.12509000000E+03 0.  0.
<mgrwt>
<rscale>  2 0.45798766E+03</rscale>
<asrwt>0</asrwt>
<pdfrwt beam="1">  1       21 0.22763796E+00 0.45798766E+03</pdfrwt>
<pdfrwt beam="2">  1       21 0.49817857E-02 0.45798766E+03</pdfrwt>
<totfact> 0.21343758E+04</totfact>
</mgrwt>
</event>
<event>
 7    0  0.4737014E-002  0.4523835E+03  0.7546771E-02  0.1027014E+00
         21   -1    0    0  502  501  0.00000000000E+00  0.00000000000E+00  0.33821464713E+03  0.33821464713E+03  0.00000000000E+00 0.  1.
         21   -1    0    0  501  502 -0.00000000000E+00 -0.00000000000E+00 -0.15127289451E+03  0.15127289451E+03  0.00000000000E+00 0.  1.
      99926    2    1    2    0    0  0.00000000000E+00  0.00000000000E+00  0.18694175261E+03  0.48948754164E+03  0.45238350385E+03 0.  0.
      99925    2    3    3    0    0  0.10570852637E+03 -0.34288732163E+02  0.11120845227E+03  0.30582194720E+03  0.26231609526E+03 0.  0.
         25    1    4    4    0    0  0.93591826980E+02 -0.28336059773E+02  0.55144386890E+02  0.16807966524E+03  0.12509000000E+03 0.  0.
         25    1    4    4    0    0  0.12116699394E+02 -0.59526723893E+01  0.56064065378E+02  0.13774228196E+03  0.12509000000E+03 0.  0.
         25    1    3    3    0    0 -0.10570852637E+03  0.34288732163E+02  0.75733300344E+02  0.18366559444E+03  0.12509000000E+03 0.  0.
<mgrwt>
<rscale>  2 0.45238350E+03</rscale>
<asrwt>0</asrwt>
<pdfrwt beam="1">  1       21 0.49737448E-01 0.45238350E+03</pdfrwt>
<pdfrwt beam="2">  1       21 0.22246014E-01 0.45238350E+03</pdfrwt>
<totfact> 0.67404952E+04</totfact>
</mgrwt>
</event>
<event>
 7    0  0.4737014E-002  0.4543450E+03  0.7546771E-02  0.1026434E+00
         21   -1    0    0  502  501  0.00000000000E+00  0.00000000000E+00  0.21431968605E+03  0.21431968605E+03  0.00000000000E+00 0.  1.
         21   -1    0    0  501  502 -0.00000000000E+00 -0.00000000000E+00 -0.24079609656E+03  0.24079609656E+03  0.00000000000E+00 0.  1.
      99926    2    1    2    0    0  0.00000000000E+00  0.00000000000E+00 -0.26476410510E+02  0.45511578260E+03  0.45434499586E+03 0.  0.
      99925    2    3    3    0    0 -0.10255186089E+03 -0.22935242886E+02 -0.56627134996E+02  0.28898485885E+03  0.26317808930E+03 0.  0.
         25    1    3    3    0    0  0.10255186089E+03  0.22935242886E+02  0.30150724486E+02  0.16613092375E+03  0.12509000000E+03 0.  0.
         25    1    4    4    0    0 -0.38932358552E+02 -0.43557045546E+01 -0.66678198407E+02  0.14706526085E+03  0.12509000000E+03 0.  0.
         25    1    4    4    0    0 -0.63619502341E+02 -0.18579538331E+02  0.10051063411E+02  0.14191959801E+03  0.12509000000E+03 0.  0.
<mgrwt>
<rscale>  2 0.45434500E+03</rscale>
<asrwt>0</asrwt>
<pdfrwt beam="1">  1       21 0.31517601E-01 0.45434500E+03</pdfrwt>
<pdfrwt beam="2">  1       21 0.35411190E-01 0.45434500E+03</pdfrwt>
<totfact> 0.68896706E+04</totfact>
</mgrwt>
</event>
<event>
 7    0  0.4737014E-002  0.4482771E+03  0.7546771E-02  0.1028237E+00
         21   -1    0    0  502  501  0.00000000000E+00  0.00000000000E+00  0.11447256861E+03  0.11447256861E+03  0.00000000000E+00 0. -1.
         21   -1    0    0  501  502 -0.00000000000E+00 -0.00000000000E+00 -0.43886581791E+03  0.43886581791E+03  0.00000000000E+00 0. -1.
      99926    2    1    2    0    0 -0.17763568394E-14  0.35527136788E-14 -0.32439324930E+03  0.55333838652E+03  0.44827713504E+03 0.  0.
      99925    2    3    3    0    0 -0.33883233063E+01 -0.16723224565E+02 -0.33546471765E+03  0.42660546859E+03  0.26299144866E+03 0.  0.
         25    1    4    4    0    0 -0.13464920021E+02  0.24197070126E+02 -0.19958249976E+03  0.23716552149E+03  0.12509000000E+03 0.  0.
         25    1    4    4    0    0  0.10076596715E+02 -0.40920294691E+02 -0.13588221789E+03  0.18943994710E+03  0.12509000000E+03 0.  0.
         25    1    3    3    0    0  0.33883233063E+01  0.16723224565E+02  0.11071468346E+02  0.12673291793E+03  0.12509000000E+03 0.  0.
<mgrwt>
<rscale>  2 0.44827714E+03</rscale>
<asrwt>0</asrwt>
<pdfrwt beam="1">  1       21 0.16834201E-01 0.44827714E+03</pdfrwt>
<pdfrwt beam="2">  1       21 0.64539093E-01 0.44827714E+03</pdfrwt>
<totfact> 0.65037068E+04</totfact>
</mgrwt>
</event>
<event>
 7    0  0.4737014E-002  0.4544535E+03  0.7546771E-02  0.1026402E+00
         21   -1    0    0  502  501  0.00000000000E+00  0.00000000000E+00  0.50626662556E+02  0.50626662556E+02  0.00000000000E+00 0.  1.
         21   -1    0    0  501  502 -0.00000000000E+00 -0.00000000000E+00 -0.10198579742E+04  0.10198579742E+04  0.00000000000E+00 0.  1.
      99926    2    1    2    0    0  0.00000000000E+00  0.71054273576E-14 -0.96923131160E+03  0.10704846367E+04  0.45445354224E+03 0.  0.
      99925    2    3    3    0    0  0.68277597726E+02 -0.55244342635E+02 -0.44447040344E+03  0.52391781867E+03  0.26310107078E+03 0.  0.
         25    1    4    4    0    0  0.31463852738E+02 -0.62936883967E+02 -0.19263265280E+03  0.24022046627E+03  0.12509000000E+03 0.  0.
         25    1    3    3    0    0 -0.68277597726E+02  0.55244342635E+02 -0.52476090817E+03  0.54656681804E+03  0.12509000000E+03 0.  0.
         25    1    4    4    0    0  0.36813744988E+02  0.76925413320E+01 -0.25183775064E+03  0.28369735240E+03  0.12509000000E+03 0.  0.
<mgrwt>
<rscale>  2 0.45445354E+03</rscale>
<asrwt>0</asrwt>
<pdfrwt beam="1">  1       21 0.74450973E-02 0.45445354E+03</pdfrwt>
<pdfrwt beam="2">  1       21 0.14997912E+00 0.45445354E+03</pdfrwt>
<totfact> 0.36690826E+04</totfact>
</mgrwt>
</event>
<event>
 7    0  0.4737014E-002  0.4564044E+03  0.7546771E-02  0.1025829E+00
         21   -1    0    0  502  501  0.00000000000E+00  0.00000000000E+00  0.53584694947E+02  0.53584694947E+02  0.00000000000E+00 0.  1.
         21   -1    0    0  501  502 -0.00000000000E+00 -0.00000000000E+00 -0.97184940160E+03  0.97184940160E+03  0.00000000000E+00 0.  1.
      99926    2    1    2    0    0  0.00000000000E+00 -0.14210854715E-13 -0.91826470665E+03  0.10254340965E+04  0.45640444222E+03 0.  0.
      99925    2    3    3    0    0 -0.23856814768E+02  0.96236161454E+02 -0.70548624251E+03  0.75944024458E+03  0.26307432473E+03 0.  0.
         25    1    3    3    0    0  0.23856814768E+02 -0.96236161454E+02 -0.21277846414E+03  0.26599385197E+03  0.12509000000E+03 0.  0.
         25    1    4    4    0    0 -0.95850303455E+01  0.89497440034E+02 -0.41880233470E+03  0.44625616884E+03  0.12509000000E+03 0.  0.
         25    1    4    4    0    0 -0.14271784423E+02  0.67387214195E+01 -0.28668390782E+03  0.31318407574E+03  0.12509000000E+03 0.  0.
<mgrwt>
<rscale>  2 0.45640444E+03</rscale>
<asrwt>0</asrwt>
<pdfrwt beam="1">  1       21 0.78801021E-02 0.45640444E+03</pdfrwt>
<pdfrwt beam="2">  1       21 0.14291903E+00 0.45640444E+03</pdfrwt>
<totfact> 0.37775983E+04</totfact>
</mgrwt>
</event>
<event>
 7    0  0.4737014E-002  0.4617282E+03  0.7546771E-02  0.1024281E+00
         21   -1    0    0  502  501  0.00000000000E+00  0.00000000000E+00  0.38003451410E+03  0.38003451410E+03  0.00000000000E+00 0. -1.
         21   -1    0    0  501  502 -0.00000000000E+00 -0.00000000000E+00 -0.14024576789E+03  0.14024576789E+03  0.00000000000E+00 0. -1.
      99926    2    1    2    0    0 -0.71054273576E-14  0.14210854715E-13  0.23978874621E+03  0.52028028198E+03  0.46172819820E+03 0.  0.
      99925    2    3    3    0    0  0.40976656381E+02 -0.86378828810E+02  0.23048286394E+03  0.36256377689E+03  0.26303945199E+03 0.  0.
         25    1    3    3    0    0 -0.40976656381E+02  0.86378828810E+02  0.93058822655E+01  0.15771650510E+03  0.12509000000E+03 0.  0.
         25    1    4    4    0    0 -0.15801716436E+01 -0.78063246811E+02  0.11903433039E+03  0.18950738074E+03  0.12509000000E+03 0.  0.
         25    1    4    4    0    0  0.42556828025E+02 -0.83155819990E+01  0.11144853355E+03  0.17305639614E+03  0.12509000000E+03 0.  0.
<mgrwt>
<rscale>  2 0.46172820E+03</rscale>
<asrwt>0</asrwt>
<pdfrwt beam="1">  1       21 0.55887428E-01 0.46172820E+03</pdfrwt>
<pdfrwt beam="2">  1       21 0.20624378E-01 0.46172820E+03</pdfrwt>
<totfact> 0.60569420E+04</totfact>
</mgrwt>
</event>
<event>
 7    0  0.4737014E-002  0.4571588E+03  0.7546771E-02  0.1025608E+00
         21   -1    0    0  502  501  0.00000000000E+00  0.00000000000E+00  0.15550217640E+03  0.15550217640E+03  0.00000000000E+00 0.  1.
         21   -1    0    0  501  502 -0.00000000000E+00 -0.00000000000E+00 -0.33599883873E+03  0.33599883873E+03  0.00000000000E+00 0.  1.
      99926    2    1    2    0    0  0.00000000000E+00  0.00000000000E+00 -0.18049666233E+03  0.49150101513E+03  0.45715883756E+03 0.  0.
      99925    2    3    3    0    0 -0.99437265352E+02  0.24842080023E+02 -0.17003590923E+03  0.32944598085E+03  0.26290215897E+03 0.  0.
         25    1    4    4    0    0 -0.78511905285E+02 -0.46655035676E+01 -0.11847812498E+03  0.18939498514E+03  0.12509000000E+03 0.  0.
         25    1    3    3    0    0  0.99437265352E+02 -0.24842080023E+02 -0.10460753100E+02  0.16205503428E+03  0.12509000000E+03 0.  0.
         25    1    4    4    0    0 -0.20925360067E+02  0.29507583591E+02 -0.51557784242E+02  0.14005099571E+03  0.12509000000E+03 0.  0.
<mgrwt>
<rscale>  2 0.45715884E+03</rscale>
<asrwt>0</asrwt>
<pdfrwt beam="1">  1       21 0.22867967E-01 0.45715884E+03</pdfrwt>
<pdfrwt beam="2">  1       21 0.49411594E-01 0.45715884E+03</pdfrwt>
<totfact> 0.64755031E+04</totfact>
</mgrwt>
</event>
<event>
 7    0  0.4737014E-002  0.4842395E+03  0.7546771E-02  0.1017976E+00
         21   -1    0    0  502  501  0.00000000000E+00  0.00000000000E+00  0.48796272795E+03  0.48796272795E+03  0.00000000000E+00 0.  1.
         21   -1    0    0  501  502 -0.00000000000E+00 -0.00000000000E+00 -0.12013618474E+03  0.12013618474E+03  0.00000000000E+00 0.  1.
      99926    2    1    2    0    0  0.00000000000E+00  0.00000000000E+00  0.36782654321E+03  0.60809891269E+03  0.48423952928E+03 0.  0.
      99925    2    3    3    0    0 -0.12286822103E+03 -0.31470294764E+02  0.15497420701E+03  0.33053701992E+03  0.26296527814E+03 0.  0.
         25    1    3    3    0    0  0.12286822103E+03  0.31470294764E+02  0.21285233620E+03  0.27756189277E+03  0.12509000000E+03 0.  0.
         25    1    4    4    0    0 -0.78602816889E+02 -0.54118585312E+02  0.82259601444E+02  0.17754259835E+03  0.12509000000E+03 0.  0.
         25    1    4    4    0    0 -0.44265404138E+02  0.22648290548E+02  0.72714605567E+02  0.15299442157E+03  0.12509000000E+03 0.  0.
<mgrwt>
<rscale>  2 0.48423953E+03</rscale>
<asrwt>0</asrwt>
<pdfrwt beam="1">  1       21 0.71759224E-01 0.48423953E+03</pdfrwt>
<pdfrwt beam="2">  1       21 0.17667086E-01 0.48423953E+03</pdfrwt>
<totfact> 0.46478229E+04</totfact>
</mgrwt>
</event>
<event>
 7    0  0.4737014E-002  0.4720819E+03  0.7546771E-02  0.1021334E+00
         21   -1    0    0  502  501  0.00000000000E+00  0.00000000000E+00  0.10914574787E+03  0.10914574787E+03  0.00000000000E+00 0. -1.
         21   -1    0    0  501  502 -0.00000000000E+00 -0.00000000000E+00 -0.51046716100E+03  0.51046716100E+03  0.00000000000E+00 0. -1.
      99926    2    1    2    0    0  0.00000000000E+00  0.00000000000E+00 -0.40132141314E+03  0.61961290887E+03  0.47208185752E+03 0.  0.
      99925    2    3    3    0    0 -0.85679890477E+02  0.33714984181E+02 -0.36654752208E+03  0.46044483610E+03  0.26301067917E+03 0.  0.
         25    1    4    4    0    0 -0.29477204344E+02  0.16848746489E+02 -0.11420503888E+03  0.17275151183E+03  0.12509000000E+03 0.  0.
         25    1    3    3    0    0  0.85679890477E+02 -0.33714984181E+02 -0.34773891059E+02  0.15916807277E+03  0.12509000000E+03 0.  0.
         25    1    4    4    0    0 -0.56202686132E+02  0.16866237692E+02 -0.25234248320E+03  0.28769332427E+03  0.12509000000E+03 0.  0.
<mgrwt>
<rscale>  2 0.47208186E+03</rscale>
<asrwt>0</asrwt>
<pdfrwt beam="1">  1       21 0.16050845E-01 0.47208186E+03</pdfrwt>
<pdfrwt beam="2">  1       21 0.75068699E-01 0.47208186E+03</pdfrwt>
<totfact> 0.50343840E+04</totfact>
</mgrwt>
</event>
<event>
 7    0  0.4737014E-002  0.4541597E+03  0.7546771E-02  0.1026489E+00
         21   -1    0    0  502  501  0.00000000000E+00  0.00000000000E+00  0.42643212578E+03  0.42643212578E+03  0.00000000000E+00 0.  1.
         21   -1    0    0  501  502 -0.00000000000E+00 -0.00000000000E+00 -0.12092255703E+03  0.12092255703E+03  0.00000000000E+00 0.  1.
      99926    2    1    2    0    0  0.00000000000E+00  0.71054273576E-14  0.30550956876E+03  0.54735468281E+03  0.45415972101E+03 0.  0.
      99925    2    3    3    0    0  0.18545353225E+02 -0.57622505497E+02  0.30723750072E+03  0.40837706909E+03  0.26213100817E+03 0.  0.
         25    1    4    4    0    0  0.24800274325E+02 -0.36396640568E+02  0.10325916076E+03  0.16807656420E+03  0.12509000000E+03 0.  0.
         25    1    3    3    0    0 -0.18545353225E+02  0.57622505497E+02 -0.17279319622E+01  0.13897761372E+03  0.12509000000E+03 0.  0.
         25    1    4    4    0    0 -0.62549211002E+01 -0.21225864929E+02  0.20397833996E+03  0.24030050489E+03  0.12509000000E+03 0.  0.
<mgrwt>
<rscale>  2 0.45415972E+03</rscale>
<asrwt>0</asrwt>
<pdfrwt beam="1">  1       21 0.62710607E-01 0.45415972E+03</pdfrwt>
<pdfrwt beam="2">  1       21 0.17782729E-01 0.45415972E+03</pdfrwt>
<totfact> 0.62455868E+04</totfact>
</mgrwt>
</event>
<event>
 6    0  0.4737014E-002  0.4572437E+03  0.7546771E-02  0.1025584E+00
         21   -1    0    0  502  501  0.00000000000E+00  0.00000000000E+00  0.30268205710E+03  0.30268205710E+03  0.00000000000E+00 0. -1.
         21   -1    0    0  501  502 -0.00000000000E+00 -0.00000000000E+00 -0.17268268172E+03  0.17268268172E+03  0.00000000000E+00 0. -1.
      99926    2    1    2    0    0  0.19984014443E-14  0.00000000000E+00  0.12999937539E+03  0.47536473882E+03  0.45724369576E+03 0.  0.
         25    1    3    3    0    0 -0.10784700532E+01 -0.11230170374E+03  0.54751694232E+02  0.17679958112E+03  0.12509000000E+03 0.  0.
         25    1    3    3    0    0 -0.22978858833E+02  0.14270687133E+02  0.39003904725E+02  0.13379272457E+03  0.12509000000E+03 0.  0.
         25    1    3    3    0    0  0.24057328886E+02  0.98031016611E+02  0.36243776430E+02  0.16477243313E+03  0.12509000000E+03 0.  0.
<mgrwt>
<rscale>  2 0.45724370E+03</rscale>
<asrwt>0</asrwt>
<pdfrwt beam="1">  1       21 0.44512067E-01 0.45724370E+03</pdfrwt>
<pdfrwt beam="2">  1       21 0.25394512E-01 0.45724370E+03</pdfrwt>
<totfact> 0.65858685E+04</totfact>
</mgrwt>
</event>
<event>
 7    0  0.4737014E-002  0.4578928E+03  0.7546771E-02  0.1025394E+00
         21   -1    0    0  502  501  0.00000000000E+00  0.00000000000E+00  0.68687754587E+02  0.68687754587E+02  0.00000000000E+00 0.  1.
         21   -1    0    0  501  502 -0.00000000000E+00 -0.00000000000E+00 -0.76311192408E+03  0.76311192408E+03  0.00000000000E+00 0.  1.
      99926    2    1    2    0    0  0.00000000000E+00 -0.17763568394E-14 -0.69442416950E+03  0.83179967867E+03  0.45789275847E+03 0.  0.
      99925    2    3    3    0    0  0.31672167818E+02  0.48347546028E+01 -0.63811759029E+03  0.69092938362E+03  0.26298831350E+03 0.  0.
         25    1    3    3    0    0 -0.31672167818E+02 -0.48347546028E+01 -0.56306579201E+02  0.14087029505E+03  0.12509000000E+03 0.  0.
         25    1    4    4    0    0  0.45068776253E+02 -0.24745324480E+02 -0.30610872410E+03  0.33465442586E+03  0.12509000000E+03 0.  0.
         25    1    4    4    0    0 -0.13396608435E+02  0.29580079083E+02 -0.33200886620E+03  0.35627495776E+03  0.12509000000E+03 0.  0.
<mgrwt>
<rscale>  2 0.45789276E+03</rscale>
<asrwt>0</asrwt>
<pdfrwt beam="1">  1       21 0.10101142E-01 0.45789276E+03</pdfrwt>
<pdfrwt beam="2">  1       21 0.11222233E+00 0.45789276E+03</pdfrwt>
<totfact> 0.45229521E+04</totfact>
</mgrwt>
</event>
<event>
 7    0  0.4737014E-002  0.4528657E+03  0.7546771E-02  0.1026871E+00
         21   -1    0    0  502  501  0.00000000000E+00  0.00000000000E+00  0.59245859117E+03  0.59245859117E+03  0.00000000000E+00 0.  1.
         21   -1    0    0  501  502 -0.00000000000E+00 -0.00000000000E+00 -0.86540788401E+02  0.86540788401E+02  0.00000000000E+00 0.  1.
      99926    2    1    2    0    0  0.88817841970E-15 -0.14210854715E-13  0.50591780277E+03  0.67899937957E+03  0.45286569124E+03 0.  0.
      99925    2    3    3    0    0 -0.48079974801E+01 -0.93258296527E+02  0.40918450496E+03  0.49535552393E+03  0.26310626992E+03 0.  0.
         25    1    4    4    0    0  0.23878126904E+02 -0.76654007520E+02  0.19631238464E+03  0.24623578594E+03  0.12509000000E+03 0.  0.
         25    1    3    3    0    0  0.48079974801E+01  0.93258296527E+02  0.96733297807E+02  0.18364385564E+03  0.12509000000E+03 0.  0.
         25    1    4    4    0    0 -0.28686124384E+02 -0.16604289008E+02  0.21287212032E+03  0.24911973799E+03  0.12509000000E+03 0.  0.
<mgrwt>
<rscale>  2 0.45286569E+03</rscale>
<asrwt>0</asrwt>
<pdfrwt beam="1">  1       21 0.87126261E-01 0.45286569E+03</pdfrwt>
<pdfrwt beam="2">  1       21 0.12726587E-01 0.45286569E+03</pdfrwt>
<totfact> 0.54976668E+04</totfact>
</mgrwt>
</event>
<event>
 7    0  0.4737014E-002  0.4547754E+03  0.7546771E-02  0.1026307E+00
         21   -1    0    0  502  501  0.00000000000E+00  0.00000000000E+00  0.57042687193E+02  0.57042687193E+02  0.00000000000E+00 0. -1.
         21   -1    0    0  501  502 -0.00000000000E+00 -0.00000000000E+00 -0.90642920411E+03  0.90642920411E+03  0.00000000000E+00 0. -1.
      99926    2    1    2    0    0  0.00000000000E+00  0.00000000000E+00 -0.84938651692E+03  0.96347189130E+03  0.45477536236E+03 0.  0.
      99925    2    3    3    0    0 -0.13147845687E+02 -0.79453153410E+02 -0.70249775796E+03  0.75440375638E+03  0.26293774599E+03 0.  0.
         25    1    3    3    0    0  0.13147845687E+02  0.79453153410E+02 -0.14688875896E+03  0.20906813493E+03  0.12509000000E+03 0.  0.
         25    1    4    4    0    0  0.91411260177E+01 -0.15631962818E+02 -0.41239421247E+03  0.43132866010E+03  0.12509000000E+03 0.  0.
         25    1    4    4    0    0 -0.22288971705E+02 -0.63821190592E+02 -0.29010354549E+03  0.32307509627E+03  0.12509000000E+03 0.  0.
<mgrwt>
<rscale>  2 0.45477536E+03</rscale>
<asrwt>0</asrwt>
<pdfrwt beam="1">  1       21 0.83886313E-02 0.45477536E+03</pdfrwt>
<pdfrwt beam="2">  1       21 0.13329840E+00 0.45477536E+03</pdfrwt>
<totfact> 0.40671471E+04</totfact>
</mgrwt>
</event>
<event>
 7    0  0.4737014E-002  0.4557219E+03  0.7546771E-02  0.1026029E+00
         21   -1    0    0  502  501  0.00000000000E+00  0.00000000000E+00  0.19794563716E+03  0.19794563716E+03  0.00000000000E+00 0.  1.
         21   -1    0    0  501  502 -0.00000000000E+00 -0.00000000000E+00 -0.26229729413E+03  0.26229729413E+03  0.00000000000E+00 0.  1.
      99926    2    1    2    0    0  0.00000000000E+00  0.00000000000E+00 -0.64351656974E+02  0.46024293129E+03  0.45572186699E+03 0.  0.
      99925    2    3    3    0    0 -0.90042001410E+02  0.60544704360E+02 -0.75432777350E+02  0.29428051816E+03  0.26294048039E+03 0.  0.
         25    1    3    3    0    0  0.90042001410E+02 -0.60544704360E+02  0.11081120376E+02  0.16596241313E+03  0.12509000000E+03 0.  0.
         25    1    4    4    0    0 -0.83833730010E+02  0.48073752632E+02 -0.33200220514E+02  0.16152071917E+03  0.12509000000E+03 0.  0.
         25    1    4    4    0    0 -0.62082714001E+01  0.12470951729E+02 -0.42232556837E+02  0.13275979899E+03  0.12509000000E+03 0.  0.
<mgrwt>
<rscale>  2 0.45572187E+03</rscale>
<asrwt>0</asrwt>
<pdfrwt beam="1">  1       21 0.29109653E-01 0.45572187E+03</pdfrwt>
<pdfrwt beam="2">  1       21 0.38573131E-01 0.45572187E+03</pdfrwt>
<totfact> 0.67771891E+04</totfact>
</mgrwt>
</event>
<event>
 7    0  0.4737014E-002  0.4520233E+03  0.7546771E-02  0.1027120E+00
         21   -1    0    0  502  501  0.00000000000E+00  0.00000000000E+00  0.15922517882E+04  0.15922517882E+04  0.00000000000E+00 0.  1.
         21   -1    0    0  501  502 -0.00000000000E+00 -0.00000000000E+00 -0.32081155004E+02  0.32081155004E+02  0.00000000000E+00 0.  1.
      99926    2    1    2    0    0 -0.35527136788E-14  0.00000000000E+00  0.15601706332E+04  0.16243329432E+04  0.45202334641E+03 0.  0.
      99925    2    3    3    0    0  0.21351083444E+02  0.10678058163E+03  0.10494840623E+04  0.10873913792E+04  0.26295484999E+03 0.  0.
         25    1    3    3    0    0 -0.21351083444E+02 -0.10678058163E+03  0.51068657096E+03  0.53694156408E+03  0.12509000000E+03 0.  0.
         25    1    4    4    0    0 -0.11060946901E+02  0.58860050057E+02  0.39749017410E+03  0.42099025719E+03  0.12509000000E+03 0.  0.
         25    1    4    4    0    0  0.32412030345E+02  0.47920531572E+02  0.65199388816E+03  0.66640112197E+03  0.12509000000E+03 0.  0.
<mgrwt>
<rscale>  2 0.45202335E+03</rscale>
<asrwt>0</asrwt>
<pdfrwt beam="1">  1       21 0.23415462E+00 0.45202335E+03</pdfrwt>
<pdfrwt beam="2">  1       21 0.47178180E-02 0.45202335E+03</pdfrwt>
<totfact> 0.21375252E+04</totfact>
</mgrwt>
</event>
<event>
 7    0  0.4737014E-002  0.4564190E+03  0.7546771E-02  0.1025825E+00
         21   -1    0    0  502  501  0.00000000000E+00  0.00000000000E+00  0.62027853290E+03  0.62027853290E+03  0.00000000000E+00 0. -1.
         21   -1    0    0  501  502 -0.00000000000E+00 -0.00000000000E+00 -0.83961603406E+02  0.83961603406E+02  0.00000000000E+00 0. -1.
      99926    2    1    2    0    0  0.00000000000E+00 -0.14210854715E-13  0.53631692950E+03  0.70424013631E+03  0.45641901880E+03 0.  0.
      99925    2    3    3    0    0 -0.32029203030E+02 -0.99012723002E+02  0.41055777317E+03  0.49858930927E+03  0.26306695924E+03 0.  0.
         25    1    4    4    0    0 -0.31153209583E+02 -0.22480233259E+02  0.24243145122E+03  0.27549301261E+03  0.12509000000E+03 0.  0.
         25    1    3    3    0    0  0.32029203030E+02  0.99012723002E+02  0.12575915633E+03  0.20565082704E+03  0.12509000000E+03 0.  0.
         25    1    4    4    0    0 -0.87599344697E+00 -0.76532489743E+02  0.16812632195E+03  0.22309629666E+03  0.12509000000E+03 0.  0.
<mgrwt>
<rscale>  2 0.45641902E+03</rscale>
<asrwt>0</asrwt>
<pdfrwt beam="1">  1       21 0.91217429E-01 0.45641902E+03</pdfrwt>
<pdfrwt beam="2">  1       21 0.12347295E-01 0.45641902E+03</pdfrwt>
<totfact> 0.52089269E+04</totfact>
</mgrwt>
</event>
<event>
 7    0  0.4737014E-002  0.4596974E+03  0.7546771E-02  0.1024869E+00
         21   -1    0    0  502  501  0.00000000000E+00  0.00000000000E+00  0.55856306924E+02  0.55856306924E+02  0.00000000000E+00 0. -1.
         21   -1    0    0  501  502 -0.00000000000E+00 -0.00000000000E+00 -0.94582734036E+03  0.94582734036E+03  0.00000000000E+00 0. -1.
      99926    2    1    2    0    0 -0.14210854715E-13  0.71054273576E-14 -0.88997103344E+03  0.10016836473E+04  0.45969738838E+03 0.  0.
      99925    2    3    3    0    0  0.11264857976E+03 -0.28313417526E+02 -0.59956705745E+03  0.66482562155E+03  0.26271866808E+03 0.  0.
         25    1    3    3    0    0 -0.11264857976E+03  0.28313417526E+02 -0.29040397599E+03  0.33685802574E+03  0.12509000000E+03 0.  0.
         25    1    4    4    0    0  0.28400324416E+02 -0.61408898697E+00 -0.33942053988E+03  0.36285088745E+03  0.12509000000E+03 0.  0.
         25    1    4    4    0    0  0.84248255342E+02 -0.27699328539E+02 -0.26014651756E+03  0.30197473409E+03  0.12509000000E+03 0.  0.
<mgrwt>
<rscale>  2 0.45969739E+03</rscale>
<asrwt>0</asrwt>
<pdfrwt beam="1">  1       21 0.82141636E-02 0.45969739E+03</pdfrwt>
<pdfrwt beam="2">  1       21 0.13909224E+00 0.45969739E+03</pdfrwt>
<totfact> 0.37699274E+04</totfact>
</mgrwt>
</event>
<event>
 7    0  0.4737014E-002  0.4522709E+03  0.7546771E-02  0.1027047E+00
         21   -1    0    0  502  501  0.00000000000E+00  0.00000000000E+00  0.10469709391E+04  0.10469709391E+04  0.00000000000E+00 0.  1.
         21   -1    0    0  501  502 -0.00000000000E+00 -0.00000000000E+00 -0.48843042417E+02  0.48843042417E+02  0.00000000000E+00 0.  1.
      99926    2    1    2    0    0  0.00000000000E+00  0.00000000000E+00  0.99812789668E+03  0.10958139815E+04  0.45227091875E+03 0.  0.
      99925    2    3    3    0    0  0.15405776723E+02  0.36882853495E+02  0.87936786676E+03  0.91875711030E+03  0.26311423335E+03 0.  0.
         25    1    4    4    0    0  0.44705888300E+02  0.20198226697E+01  0.42346165279E+03  0.44381299622E+03  0.12509000000E+03 0.  0.
         25    1    3    3    0    0 -0.15405776723E+02 -0.36882853495E+02  0.11876002992E+03  0.17705687122E+03  0.12509000000E+03 0.  0.
         25    1    4    4    0    0 -0.29300111577E+02  0.34863030826E+02  0.45590621397E+03  0.47494411408E+03  0.12509000000E+03 0.  0.
<mgrwt>
<rscale>  2 0.45227092E+03</rscale>
<asrwt>0</asrwt>
<pdfrwt beam="1">  1       21 0.15396630E+00 0.45227092E+03</pdfrwt>
<pdfrwt beam="2">  1       21 0.71828011E-02 0.45227092E+03</pdfrwt>
<totfact> 0.36408758E+04</totfact>
</mgrwt>
</event>
<event>
 7    0  0.4737014E-002  0.4628552E+03  0.7546771E-02  0.1023956E+00
         21   -1    0    0  502  501  0.00000000000E+00  0.00000000000E+00  0.56059602807E+02  0.56059602807E+02  0.00000000000E+00 0.  1.
         21   -1    0    0  501  502 -0.00000000000E+00 -0.00000000000E+00 -0.95538927456E+03  0.95538927456E+03  0.00000000000E+00 0.  1.
      99926    2    1    2    0    0  0.00000000000E+00  0.14210854715E-13 -0.89932967176E+03  0.10114488774E+04  0.46285523982E+03 0.  0.
      99925    2    3    3    0    0 -0.41903222957E+02  0.94032408430E+02 -0.43163063755E+03  0.51648638523E+03  0.26430135249E+03 0.  0.
         25    1    4    4    0    0 -0.12098578486E+02  0.80104282284E+02 -0.18110281833E+03  0.23453957139E+03  0.12509000000E+03 0.  0.
         25    1    4    4    0    0 -0.29804644470E+02  0.13928126147E+02 -0.25052781921E+03  0.28194681383E+03  0.12509000000E+03 0.  0.
         25    1    3    3    0    0  0.41903222957E+02 -0.94032408430E+02 -0.46769903421E+03  0.49496249215E+03  0.12509000000E+03 0.  0.
<mgrwt>
<rscale>  2 0.46285524E+03</rscale>
<asrwt>0</asrwt>
<pdfrwt beam="1">  1       21 0.82440604E-02 0.46285524E+03</pdfrwt>
<pdfrwt beam="2">  1       21 0.14049840E+00 0.46285524E+03</pdfrwt>
<totfact> 0.36437510E+04</totfact>
</mgrwt>
</event>
<event>
 7    0  0.4737014E-002  0.4601349E+03  0.7546771E-02  0.1024742E+00
         21   -1    0    0  502  501  0.00000000000E+00  0.00000000000E+00  0.26917701281E+03  0.26917701281E+03  0.00000000000E+00 0. -1.
         21   -1    0    0  501  502 -0.00000000000E+00 -0.00000000000E+00 -0.19664019458E+03  0.19664019458E+03  0.00000000000E+00 0. -1.
      99926    2    1    2    0    0  0.00000000000E+00  0.35527136788E-14  0.72536818230E+02  0.46581720739E+03  0.46013485057E+03 0.  0.
      99925    2    3    3    0    0 -0.98791558934E+02  0.28539288799E+02  0.10415084341E+03  0.30082866898E+03  0.26282356586E+03 0.  0.
         25    1    3    3    0    0  0.98791558934E+02 -0.28539288799E+02 -0.31614025181E+02  0.16498853842E+03  0.12509000000E+03 0.  0.
         25    1    4    4    0    0 -0.75640435716E+02  0.41634121353E+02  0.37216088535E+02  0.15648457088E+03  0.12509000000E+03 0.  0.
         25    1    4    4    0    0 -0.23151123218E+02 -0.13094832554E+02  0.66934754877E+02  0.14434409810E+03  0.12509000000E+03 0.  0.
<mgrwt>
<rscale>  2 0.46013485E+03</rscale>
<asrwt>0</asrwt>
<pdfrwt beam="1">  1       21 0.39584855E-01 0.46013485E+03</pdfrwt>
<pdfrwt beam="2">  1       21 0.28917676E-01 0.46013485E+03</pdfrwt>
<totfact> 0.65053241E+04</totfact>
</mgrwt>
</event>
<event>
 7    0  0.4737014E-002  0.4551675E+03  0.7546771E-02  0.1026192E+00
         21   -1    0    0  502  501  0.00000000000E+00  0.00000000000E+00  0.13740409561E+04  0.13740409561E+04  0.00000000000E+00 0. -1.
         21   -1    0    0  501  502 -0.00000000000E+00 -0.00000000000E+00 -0.37694924749E+02  0.37694924749E+02  0.00000000000E+00 0. -1.
      99926    2    1    2    0    0  0.35527136788E-14  0.00000000000E+00  0.13363460313E+04  0.14117358808E+04  0.45516753154E+03 0.  0.
      99925    2    3    3    0    0  0.19758084051E+02 -0.11085346128E+03  0.88076869370E+03  0.92606408792E+03  0.26298732170E+03 0.  0.
         25    1    4    4    0    0  0.31790230694E+02 -0.61222542743E+02  0.34249267883E+03  0.37108969490E+03  0.12509000000E+03 0.  0.
         25    1    3    3    0    0 -0.19758084051E+02  0.11085346128E+03  0.45557733764E+03  0.48567179291E+03  0.12509000000E+03 0.  0.
         25    1    4    4    0    0 -0.12032146642E+02 -0.49630918537E+02  0.53827601486E+03  0.55497439302E+03  0.12509000000E+03 0.  0.
<mgrwt>
<rscale>  2 0.45516753E+03</rscale>
<asrwt>0</asrwt>
<pdfrwt beam="1">  1       21 0.20206481E+00 0.45516753E+03</pdfrwt>
<pdfrwt beam="2">  1       21 0.55433722E-02 0.45516753E+03</pdfrwt>
<totfact> 0.25987096E+04</totfact>
</mgrwt>
</event>
<event>
 7    0  0.4737014E-002  0.4554316E+03  0.7546771E-02  0.1026115E+00
         21   -1    0    0  502  501  0.00000000000E+00  0.00000000000E+00  0.64693418252E+03  0.64693418252E+03  0.00000000000E+00 0. -1.
         21   -1    0    0  501  502 -0.00000000000E+00 -0.00000000000E+00 -0.80154202954E+02  0.80154202954E+02  0.00000000000E+00 0. -1.
      99926    2    1    2    0    0  0.00000000000E+00  0.14210854715E-13  0.56677997956E+03  0.72708838547E+03  0.45543163598E+03 0.  0.
      99925    2    3    3    0    0  0.28247709206E+02  0.10820839572E+03  0.32198426738E+03  0.43030658215E+03  0.26264595223E+03 0.  0.
         25    1    4    4    0    0  0.23001252781E+02  0.30396630896E+02  0.10363131330E+03  0.16685313900E+03  0.12509000000E+03 0.  0.
         25    1    3    3    0    0 -0.28247709206E+02 -0.10820839572E+03  0.24479571218E+03  0.29678180332E+03  0.12509000000E+03 0.  0.
         25    1    4    4    0    0  0.52464564247E+01  0.77811764824E+02  0.21835295408E+03  0.26345344315E+03  0.12509000000E+03 0.  0.
<mgrwt>
<rscale>  2 0.45543164E+03</rscale>
<asrwt>0</asrwt>
<pdfrwt beam="1">  1       21 0.95137377E-01 0.45543164E+03</pdfrwt>
<pdfrwt beam="2">  1       21 0.11787383E-01 0.45543164E+03</pdfrwt>
<totfact> 0.51282533E+04</totfact>
</mgrwt>
</event>
<event>
 7    0  0.4737014E-002  0.4460222E+03  0.7546771E-02  0.1028915E+00
         21   -1    0    0  502  501  0.00000000000E+00  0.00000000000E+00  0.18097497587E+03  0.18097497587E+03  0.00000000000E+00 0. -1.
         21   -1    0    0  501  502 -0.00000000000E+00 -0.00000000000E+00 -0.27481125189E+03  0.27481125189E+03  0.00000000000E+00 0. -1.
      99926    2    1    2    0    0 -0.35527136788E-14 -0.14210854715E-13 -0.93836276020E+02  0.45578622776E+03  0.44602224016E+03 0.  0.
      99925    2    3    3    0    0  0.29166942545E+02  0.85097413383E+02 -0.11395002656E+03  0.30040170034E+03  0.26299105063E+03 0.  0.
         25    1    3    3    0    0 -0.29166942545E+02 -0.85097413383E+02  0.20113750544E+02  0.15538452742E+03  0.12509000000E+03 0.  0.
         25    1    4    4    0    0  0.10605162215E+02  0.73417735320E+02 -0.90403462415E+02  0.17123938636E+03  0.12509000000E+03 0.  0.
         25    1    4    4    0    0  0.18561780330E+02  0.11679678063E+02 -0.23546564148E+02  0.12916231398E+03  0.12509000000E+03 0.  0.
<mgrwt>
<rscale>  2 0.44602224E+03</rscale>
<asrwt>0</asrwt>
<pdfrwt beam="1">  1       21 0.26613967E-01 0.44602224E+03</pdfrwt>
<pdfrwt beam="2">  1       21 0.40413419E-01 0.44602224E+03</pdfrwt>
<totfact> 0.73612085E+04</totfact>
</mgrwt>
</event>
<event>
 7    0  0.4737014E-002  0.4530768E+03  0.7546771E-02  0.1026808E+00
         21   -1    0    0  502  501  0.00000000000E+00  0.00000000000E+00  0.47056512638E+02  0.47056512638E+02  0.00000000000E+00 0. -1.
         21   -1    0    0  501  502 -0.00000000000E+00 -0.00000000000E+00 -0.10905961338E+04  0.10905961338E+04  0.00000000000E+00 0. -1.
      99926    2    1    2    0    0  0.35527136788E-14  0.00000000000E+00 -0.10435396211E+04  0.11376526464E+04  0.45307681800E+03 0.  0.
      99925    2    3    3    0    0 -0.18674883498E+02  0.10962160189E+03 -0.63981976000E+03  0.70061388239E+03  0.26291603231E+03 0.  0.
         25    1    4    4    0    0  0.24473940359E+02  0.75569834854E+02 -0.30918550005E+03  0.34285996448E+03  0.12509000000E+03 0.  0.
         25    1    4    4    0    0 -0.43148823857E+02  0.34051767036E+02 -0.33063425994E+03  0.35775391792E+03  0.12509000000E+03 0.  0.
         25    1    3    3    0    0  0.18674883498E+02 -0.10962160189E+03 -0.40371986111E+03  0.43703876399E+03  0.12509000000E+03 0.  0.
<mgrwt>
<rscale>  2 0.45307682E+03</rscale>
<asrwt>0</asrwt>
<pdfrwt beam="1">  1       21 0.69200756E-02 0.45307682E+03</pdfrwt>
<pdfrwt beam="2">  1       21 0.16038178E+00 0.45307682E+03</pdfrwt>
<totfact> 0.34714788E+04</totfact>
</mgrwt>
</event>
<event>
 7    0  0.4737014E-002  0.4593351E+03  0.7546771E-02  0.1024974E+00
         21   -1    0    0  502  501  0.00000000000E+00  0.00000000000E+00  0.14307170399E+03  0.14307170399E+03  0.00000000000E+00 0. -1.
         21   -1    0    0  501  502 -0.00000000000E+00 -0.00000000000E+00 -0.36867656935E+03  0.36867656935E+03  0.00000000000E+00 0. -1.
      99926    2    1    2    0    0 -0.35527136788E-14  0.00000000000E+00 -0.22560486535E+03  0.51174827334E+03  0.45933510643E+03 0.  0.
      99925    2    3    3    0    0  0.11714464898E+02 -0.10800780840E+03 -0.19024455924E+03  0.34233524341E+03  0.26305419821E+03 0.  0.
         25    1    4    4    0    0  0.39984536364E+02 -0.44725803858E+02 -0.11793200606E+03  0.18208412021E+03  0.12509000000E+03 0.  0.
         25    1    4    4    0    0 -0.28270071466E+02 -0.63282004538E+02 -0.72312553185E+02  0.16025112320E+03  0.12509000000E+03 0.  0.
         25    1    3    3    0    0 -0.11714464898E+02  0.10800780840E+03 -0.35360306108E+02  0.16941302993E+03  0.12509000000E+03 0.  0.
<mgrwt>
<rscale>  2 0.45933511E+03</rscale>
<asrwt>0</asrwt>
<pdfrwt beam="1">  1       21 0.21039957E-01 0.45933511E+03</pdfrwt>
<pdfrwt beam="2">  1       21 0.54217140E-01 0.45933511E+03</pdfrwt>
<totfact> 0.62282353E+04</totfact>
</mgrwt>
</event>
<event>
 7    0  0.4737014E-002  0.4404996E+03  0.7546771E-02  0.1030594E+00
         21   -1    0    0  502  501  0.00000000000E+00  0.00000000000E+00  0.20830703612E+03  0.20830703612E+03  0.00000000000E+00 0.  1.
         21   -1    0    0  501  502 -0.00000000000E+00 -0.00000000000E+00 -0.23287730658E+03  0.23287730658E+03  0.00000000000E+00 0.  1.
      99926    2    1    2    0    0  0.35527136788E-14 -0.14210854715E-13 -0.24570270454E+02  0.44118434270E+03  0.44049963230E+03 0.  0.
      99925    2    3    3    0    0 -0.29510920434E+02  0.83891275652E+02  0.27940909932E+02  0.27896975421E+03  0.26293495157E+03 0.  0.
         25    1    4    4    0    0 -0.24236055174E+02  0.44173722757E+02  0.53634234116E+02  0.14513043555E+03  0.12509000000E+03 0.  0.
         25    1    4    4    0    0 -0.52748652604E+01  0.39717552895E+02 -0.25693324184E+02  0.13383931866E+03  0.12509000000E+03 0.  0.
         25    1    3    3    0    0  0.29510920434E+02 -0.83891275652E+02 -0.52511180386E+02  0.16221458850E+03  0.12509000000E+03 0.  0.
<mgrwt>
<rscale>  2 0.44049963E+03</rscale>
<asrwt>0</asrwt>
<pdfrwt beam="1">  1       21 0.30633388E-01 0.44049963E+03</pdfrwt>
<pdfrwt beam="2">  1       21 0.34246663E-01 0.44049963E+03</pdfrwt>
<totfact> 0.78237492E+04</totfact>
</mgrwt>
</event>
<event>
 7    0  0.4737014E-002  0.3972349E+03  0.7546771E-02  0.1044741E+00
         21   -1    0    0  502  501  0.00000000000E+00  0.00000000000E+00  0.72255520116E+03  0.72255520116E+03  0.00000000000E+00 0.  1.
         21   -1    0    0  501  502 -0.00000000000E+00 -0.00000000000E+00 -0.54596370073E+02  0.54596370073E+02  0.00000000000E+00 0.  1.
      99926    2    1    2    0    0  0.00000000000E+00  0.00000000000E+00  0.66795883109E+03  0.77715157123E+03  0.39723489857E+03 0.  0.
      99925    2    3    3    0    0  0.31076594746E+02  0.19328935719E+02  0.47742842959E+03  0.54630810806E+03  0.26301194089E+03 0.  0.
         25    1    4    4    0    0  0.16825022238E+02  0.24226416974E+02  0.31879890120E+03  0.34372990582E+03  0.12509000000E+03 0.  0.
         25    1    3    3    0    0 -0.31076594746E+02 -0.19328935719E+02  0.19053040150E+03  0.23084346318E+03  0.12509000000E+03 0.  0.
         25    1    4    4    0    0  0.14251572507E+02 -0.48974812547E+01  0.15862952840E+03  0.20257820224E+03  0.12509000000E+03 0.  0.
<mgrwt>
<rscale>  2 0.39723490E+03</rscale>
<asrwt>0</asrwt>
<pdfrwt beam="1">  1       21 0.10625811E+00 0.39723490E+03</pdfrwt>
<pdfrwt beam="2">  1       21 0.80288784E-02 0.39723490E+03</pdfrwt>
<totfact> 0.79115283E+04</totfact>
</mgrwt>
</event>
<event>
 7    0  0.4737014E-002  0.4545312E+03  0.7546771E-02  0.1026379E+00
         21   -1    0    0  502  501  0.00000000000E+00  0.00000000000E+00  0.43400101063E+02  0.43400101063E+02  0.00000000000E+00 0. -1.
         21   -1    0    0  501  502 -0.00000000000E+00 -0.00000000000E+00 -0.11900812858E+04  0.11900812858E+04  0.00000000000E+00 0. -1.
      99926    2    1    2    0    0 -0.15543122345E-14 -0.71054273576E-14 -0.11466811847E+04  0.12334813868E+04  0.45453117858E+03 0.  0.
      99925    2    3    3    0    0 -0.19164886034E+01 -0.55752578629E+02 -0.98768656798E+03  0.10236271060E+04  0.26301268511E+03 0.  0.
         25    1    4    4    0    0  0.30212132805E+02 -0.32420191862E+02 -0.59390373728E+03  0.60854991501E+03  0.12509000000E+03 0.  0.
         25    1    4    4    0    0 -0.32128621408E+02 -0.23332386768E+02 -0.39378283070E+03  0.41507719094E+03  0.12509000000E+03 0.  0.
         25    1    3    3    0    0  0.19164886034E+01  0.55752578629E+02 -0.15899461671E+03  0.20985428086E+03  0.12509000000E+03 0.  0.
<mgrwt>
<rscale>  2 0.45453118E+03</rscale>
<asrwt>0</asrwt>
<pdfrwt beam="1">  1       21 0.63823684E-02 0.45453118E+03</pdfrwt>
<pdfrwt beam="2">  1       21 0.17501194E+00 0.45453118E+03</pdfrwt>
<totfact> 0.31223187E+04</totfact>
</mgrwt>
</event>
<event>
 7    0  0.4737014E-002  0.4557686E+03  0.7546771E-02  0.1026016E+00
         21   -1    0    0  502  501  0.00000000000E+00  0.00000000000E+00  0.20059972472E+03  0.20059972472E+03  0.00000000000E+00 0.  1.
         21   -1    0    0  501  502 -0.00000000000E+00 -0.00000000000E+00 -0.25888002044E+03  0.25888002044E+03  0.00000000000E+00 0.  1.
      99926    2    1    2    0    0 -0.35527136788E-14  0.00000000000E+00 -0.58280295715E+02  0.45947974516E+03  0.45576862918E+03 0.  0.
      99925    2    3    3    0    0  0.12976926866E+02 -0.38699646912E+02  0.70526787465E+02  0.27534708625E+03  0.26301316859E+03 0.  0.
         25    1    3    3    0    0 -0.12976926866E+02  0.38699646912E+02 -0.12880708318E+03  0.18413265892E+03  0.12509000000E+03 0.  0.
         25    1    4    4    0    0  0.42172153593E+02 -0.27133141979E+02  0.17494875471E+02  0.13589803788E+03  0.12509000000E+03 0.  0.
         25    1    4    4    0    0 -0.29195226727E+02 -0.11566504932E+02  0.53031911994E+02  0.13944904836E+03  0.12509000000E+03 0.  0.
<mgrwt>
<rscale>  2 0.45576863E+03</rscale>
<asrwt>0</asrwt>
<pdfrwt beam="1">  1       21 0.29499959E-01 0.45576863E+03</pdfrwt>
<pdfrwt beam="2">  1       21 0.38070591E-01 0.45576863E+03</pdfrwt>
<totfact> 0.67801918E+04</totfact>
</mgrwt>
</event>
<event>
 7    0  0.4737014E-002  0.4530448E+03  0.7546771E-02  0.1026818E+00
         21   -1    0    0  502  501  0.00000000000E+00  0.00000000000E+00  0.10260831171E+04  0.10260831171E+04  0.00000000000E+00 0.  1.
         21   -1    0    0  501  502 -0.00000000000E+00 -0.00000000000E+00 -0.50008043124E+02  0.50008043124E+02  0.00000000000E+00 0.  1.
      99926    2    1    2    0    0  0.71054273576E-14  0.00000000000E+00  0.97607507402E+03  0.10760911603E+04  0.45304484886E+03 0.  0.
      99925    2    3    3    0    0  0.35265524378E+02  0.25758273251E+02  0.37234635316E+03  0.45799487137E+03  0.26307859975E+03 0.  0.
         25    1    3    3    0    0 -0.35265524378E+02 -0.25758273251E+02  0.60372872086E+03  0.61809628889E+03  0.12509000000E+03 0.  0.
         25    1    4    4    0    0 -0.11509509856E+02  0.32160233523E+02  0.14744957790E+03  0.19635589006E+03  0.12509000000E+03 0.  0.
         25    1    4    4    0    0  0.46775034234E+02 -0.64019602722E+01  0.22489677526E+03  0.26163898132E+03  0.12509000000E+03 0.  0.
<mgrwt>
<rscale>  2 0.45304485E+03</rscale>
<asrwt>0</asrwt>
<pdfrwt beam="1">  1       21 0.15089456E+00 0.45304485E+03</pdfrwt>
<pdfrwt beam="2">  1       21 0.73541246E-02 0.45304485E+03</pdfrwt>
<totfact> 0.36894013E+04</totfact>
</mgrwt>
</event>
<event>
 7    0  0.4737014E-002  0.4487935E+03  0.7546771E-02  0.1028082E+00
         21   -1    0    0  502  501  0.00000000000E+00  0.00000000000E+00  0.27675454321E+03  0.27675454321E+03  0.00000000000E+00 0. -1.
         21   -1    0    0  501  502 -0.00000000000E+00 -0.00000000000E+00 -0.18194422943E+03  0.18194422943E+03  0.00000000000E+00 0. -1.
      99926    2    1    2    0    0  0.00000000000E+00 -0.14210854715E-13  0.94810313782E+02  0.45869877263E+03  0.44879345853E+03 0.  0.
      99925    2    3    3    0    0  0.71153604812E+02  0.72545287816E+02  0.24880757581E+02  0.28301922006E+03  0.26297371078E+03 0.  0.
         25    1    3    3    0    0 -0.71153604812E+02 -0.72545287816E+02  0.69929556201E+02  0.17567955257E+03  0.12509000000E+03 0.  0.
         25    1    4    4    0    0  0.32611631696E+02  0.96847319504E-01  0.32247286140E+02  0.13323259160E+03  0.12509000000E+03 0.  0.
         25    1    4    4    0    0  0.38541973116E+02  0.72448440496E+02 -0.73665285584E+01  0.14978662846E+03  0.12509000000E+03 0.  0.
<mgrwt>
<rscale>  2 0.44879346E+03</rscale>
<asrwt>0</asrwt>
<pdfrwt beam="1">  1       21 0.40699198E-01 0.44879346E+03</pdfrwt>
<pdfrwt beam="2">  1       21 0.26756504E-01 0.44879346E+03</pdfrwt>
<totfact> 0.71754069E+04</totfact>
</mgrwt>
</event>
<event>
 7    0  0.4737014E-002  0.4535385E+03  0.7546771E-02  0.1026672E+00
         21   -1    0    0  502  501  0.00000000000E+00  0.00000000000E+00  0.91395065961E+02  0.91395065961E+02  0.00000000000E+00 0.  1.
         21   -1    0    0  501  502 -0.00000000000E+00 -0.00000000000E+00 -0.56265951809E+03  0.56265951809E+03  0.00000000000E+00 0.  1.
      99926    2    1    2    0    0  0.00000000000E+00 -0.63837823916E-15 -0.47126445213E+03  0.65405458405E+03  0.45353854861E+03 0.  0.
      99925    2    3    3    0    0 -0.67541680923E+02  0.13224514310E+00 -0.16827960942E+03  0.31937679996E+03  0.26290990331E+03 0.  0.
         25    1    4    4    0    0 -0.26914422816E+02 -0.11080503143E+02 -0.38051827680E+02  0.13395004067E+03  0.12509000000E+03 0.  0.
         25    1    4    4    0    0 -0.40627258107E+02  0.11212748286E+02 -0.13022778174E+03  0.18542675929E+03  0.12509000000E+03 0.  0.
         25    1    3    3    0    0  0.67541680923E+02 -0.13224514310E+00 -0.30298484271E+03  0.33467778409E+03  0.12509000000E+03 0.  0.
<mgrwt>
<rscale>  2 0.45353855E+03</rscale>
<asrwt>0</asrwt>
<pdfrwt beam="1">  1       21 0.13440451E-01 0.45353855E+03</pdfrwt>
<pdfrwt beam="2">  1       21 0.82744046E-01 0.45353855E+03</pdfrwt>
<totfact> 0.56112565E+04</totfact>
</mgrwt>
</event>
<event>
 7    0  0.4737014E-002  0.4507052E+03  0.7546771E-02  0.1027512E+00
         21   -1    0    0  502  501  0.00000000000E+00  0.00000000000E+00  0.68693991868E+03  0.68693991868E+03  0.00000000000E+00 0.  1.
         21   -1    0    0  501  502 -0.00000000000E+00 -0.00000000000E+00 -0.73927564806E+02  0.73927564806E+02  0.00000000000E+00 0.  1.
      99926    2    1    2    0    0 -0.14210854715E-13  0.00000000000E+00  0.61301235388E+03  0.76086748349E+03  0.45070520457E+03 0.  0.
      99925    2    3    3    0    0 -0.10337658760E+03 -0.17143995055E+02  0.33583963831E+03  0.43922660023E+03  0.26296598308E+03 0.  0.
         25    1    4    4    0    0 -0.94401189686E+02 -0.18038581047E+01  0.18458752991E+03  0.24214644911E+03  0.12509000000E+03 0.  0.
         25    1    4    4    0    0 -0.89753979150E+01 -0.15340136951E+02  0.15125210840E+03  0.19708015112E+03  0.12509000000E+03 0.  0.
         25    1    3    3    0    0  0.10337658760E+03  0.17143995055E+02  0.27717271556E+03  0.32164088326E+03  0.12509000000E+03 0.  0.
<mgrwt>
<rscale>  2 0.45070520E+03</rscale>
<asrwt>0</asrwt>
<pdfrwt beam="1">  1       21 0.10102057E+00 0.45070520E+03</pdfrwt>
<pdfrwt beam="2">  1       21 0.10871701E-01 0.45070520E+03</pdfrwt>
<totfact> 0.51427762E+04</totfact>
</mgrwt>
</event>
<event>
 7    0  0.4737014E-002  0.4609468E+03  0.7546771E-02  0.1024507E+00
         21   -1    0    0  502  501  0.00000000000E+00  0.00000000000E+00  0.47938744318E+03  0.47938744318E+03  0.00000000000E+00 0. -1.
         21   -1    0    0  501  502 -0.00000000000E+00 -0.00000000000E+00 -0.11080388315E+03  0.11080388315E+03  0.00000000000E+00 0. -1.
      99926    2    1    2    0    0  0.00000000000E+00  0.00000000000E+00  0.36858356003E+03  0.59019132634E+03  0.46094680925E+03 0.  0.
      99925    2    3    3    0    0  0.77146303911E+02 -0.63530392331E+02  0.31254871957E+03  0.42055915250E+03  0.26305063331E+03 0.  0.
         25    1    4    4    0    0  0.14653959417E+02 -0.19510814585E+02  0.98278350393E+02  0.16093959323E+03  0.12509000000E+03 0.  0.
         25    1    4    4    0    0  0.62492344494E+02 -0.44019577746E+02  0.21427036918E+03  0.25961955927E+03  0.12509000000E+03 0.  0.
         25    1    3    3    0    0 -0.77146303911E+02  0.63530392331E+02  0.56034840453E+02  0.16963217384E+03  0.12509000000E+03 0.  0.
<mgrwt>
<rscale>  2 0.46094681E+03</rscale>
<asrwt>0</asrwt>
<pdfrwt beam="1">  1       21 0.70498153E-01 0.46094681E+03</pdfrwt>
<pdfrwt beam="2">  1       21 0.16294689E-01 0.46094681E+03</pdfrwt>
<totfact> 0.56579519E+04</totfact>
</mgrwt>
</event>
<event>
 7    0  0.4737014E-002  0.4503324E+03  0.7546771E-02  0.1027623E+00
         21   -1    0    0  502  501  0.00000000000E+00  0.00000000000E+00  0.80123024720E+02  0.80123024720E+02  0.00000000000E+00 0.  1.
         21   -1    0    0  501  502 -0.00000000000E+00 -0.00000000000E+00 -0.63277467490E+03  0.63277467490E+03  0.00000000000E+00 0.  1.
      99926    2    1    2    0    0 -0.71054273576E-14  0.00000000000E+00 -0.55265165018E+03  0.71289769962E+03  0.45033241464E+03 0.  0.
      99925    2    3    3    0    0 -0.44456009412E+02  0.66562617389E+02 -0.46675534409E+03  0.54133837371E+03  0.26225896516E+03 0.  0.
         25    1    3    3    0    0  0.44456009412E+02 -0.66562617389E+02 -0.85896306087E+02  0.17155932591E+03  0.12509000000E+03 0.  0.
         25    1    4    4    0    0 -0.29538274813E+02  0.19335166491E+01 -0.26885016215E+03  0.29800027845E+03  0.12509000000E+03 0.  0.
         25    1    4    4    0    0 -0.14917734600E+02  0.64629100740E+02 -0.19790518194E+03  0.24333809526E+03  0.12509000000E+03 0.  0.
<mgrwt>
<rscale>  2 0.45033241E+03</rscale>
<asrwt>0</asrwt>
<pdfrwt beam="1">  1       21 0.11782798E-01 0.45033241E+03</pdfrwt>
<pdfrwt beam="2">  1       21 0.93055095E-01 0.45033241E+03</pdfrwt>
<totfact> 0.54170190E+04</totfact>
</mgrwt>
</event>
<event>
 7    0  0.4737014E-002  0.4574058E+03  0.7546771E-02  0.1025536E+00
         21   -1    0    0  502  501  0.00000000000E+00  0.00000000000E+00  0.59021896544E+03  0.59021896544E+03  0.00000000000E+00 0.  1.
         21   -1    0    0  501  502 -0.00000000000E+00 -0.00000000000E+00 -0.88619675413E+02  0.88619675413E+02  0.00000000000E+00 0.  1.
      99926    2    1    2    0    0  0.00000000000E+00 -0.14210854715E-13  0.50159929003E+03  0.67883864085E+03  0.45740578545E+03 0.  0.
      99925    2    3    3    0    0 -0.16869253236E+02  0.86299314508E+02  0.42593244163E+03  0.50823640337E+03  0.26297082249E+03 0.  0.
         25    1    4    4    0    0  0.81389449710E+01  0.70406367539E+02  0.27221565456E+03  0.30785088875E+03  0.12509000000E+03 0.  0.
         25    1    3    3    0    0  0.16869253236E+02 -0.86299314508E+02  0.75666848395E+02  0.17060223749E+03  0.12509000000E+03 0.  0.
         25    1    4    4    0    0 -0.25008198207E+02  0.15892946969E+02  0.15371678707E+03  0.20038551461E+03  0.12509000000E+03 0.  0.
<mgrwt>
<rscale>  2 0.45740579E+03</rscale>
<asrwt>0</asrwt>
<pdfrwt beam="1">  1       21 0.86796904E-01 0.45740579E+03</pdfrwt>
<pdfrwt beam="2">  1       21 0.13032306E-01 0.45740579E+03</pdfrwt>
<totfact> 0.53054627E+04</totfact>
</mgrwt>
</event>
<event>
 7    0  0.4737014E-002  0.4583532E+03  0.7546771E-02  0.1025260E+00
         21   -1    0    0  502  501  0.00000000000E+00  0.00000000000E+00  0.14631525383E+03  0.14631525383E+03  0.00000000000E+00 0. -1.
         21   -1    0    0  501  502 -0.00000000000E+00 -0.00000000000E+00 -0.35896400270E+03  0.35896400270E+03  0.00000000000E+00 0. -1.
      99926    2    1    2    0    0 -0.71054273576E-14  0.00000000000E+00 -0.21264874887E+03  0.50527925654E+03  0.45835317899E+03 0.  0.
      99925    2    3    3    0    0  0.54978681234E+02 -0.10145754977E+03 -0.11738540943E+03  0.31024361431E+03  0.26297428787E+03 0.  0.
         25    1    3    3    0    0 -0.54978681234E+02  0.10145754977E+03 -0.95263339441E+02  0.19503564222E+03  0.12509000000E+03 0.  0.
         25    1    4    4    0    0 -0.66386023224E+00 -0.35336819442E+02 -0.25096746238E+02  0.13238763647E+03  0.12509000000E+03 0.  0.
         25    1    4    4    0    0  0.55642541467E+02 -0.66120730331E+02 -0.92288663189E+02  0.17785597784E+03  0.12509000000E+03 0.  0.
<mgrwt>
<rscale>  2 0.45835318E+03</rscale>
<asrwt>0</asrwt>
<pdfrwt beam="1">  1       21 0.21516950E-01 0.45835318E+03</pdfrwt>
<pdfrwt beam="2">  1       21 0.52788823E-01 0.45835318E+03</pdfrwt>
<totfact> 0.63202324E+04</totfact>
</mgrwt>
</event>
<event>
 7    0  0.4737014E-002  0.4543726E+03  0.7546771E-02  0.1026426E+00
         21   -1    0    0  502  501  0.00000000000E+00  0.00000000000E+00  0.70212497859E+02  0.70212497859E+02  0.00000000000E+00 0. -1.
         21   -1    0    0  501  502 -0.00000000000E+00 -0.00000000000E+00 -0.73510568471E+03  0.73510568471E+03  0.00000000000E+00 0. -1.
      99926    2    1    2    0    0  0.35527136788E-14  0.00000000000E+00 -0.66489318685E+03  0.80531818256E+03  0.45437256217E+03 0.  0.
      99925    2    3    3    0    0 -0.24598288316E+02  0.34347476719E+02 -0.60362150004E+03  0.65976217050E+03  0.26294938935E+03 0.  0.
         25    1    3    3    0    0  0.24598288316E+02 -0.34347476719E+02 -0.61271686803E+02  0.14555601207E+03  0.12509000000E+03 0.  0.
         25    1    4    4    0    0 -0.45391919956E+02 -0.17408637880E+01 -0.26946214767E+03  0.30053421457E+03  0.12509000000E+03 0.  0.
         25    1    4    4    0    0  0.20793631640E+02  0.36088340507E+02 -0.33415935237E+03  0.35922795592E+03  0.12509000000E+03 0.  0.
<mgrwt>
<rscale>  2 0.45437256E+03</rscale>
<asrwt>0</asrwt>
<pdfrwt beam="1">  1       21 0.10325367E-01 0.45437256E+03</pdfrwt>
<pdfrwt beam="2">  1       21 0.10810378E+00 0.45437256E+03</pdfrwt>
<totfact> 0.47743293E+04</totfact>
</mgrwt>
</event>
<event>
 7    0  0.4737014E-002  0.4611957E+03  0.7546771E-02  0.1024435E+00
         21   -1    0    0  502  501  0.00000000000E+00  0.00000000000E+00  0.83268883016E+03  0.83268883016E+03  0.00000000000E+00 0. -1.
         21   -1    0    0  501  502 -0.00000000000E+00 -0.00000000000E+00 -0.63859827535E+02  0.63859827535E+02  0.00000000000E+00 0. -1.
      99926    2    1    2    0    0  0.00000000000E+00 -0.14210854715E-13  0.76882900263E+03  0.89654865770E+03  0.46119568551E+03 0.  0.
      99925    2    3    3    0    0  0.90001640123E+02  0.74382998367E+02  0.43698828044E+03  0.52318703852E+03  0.26293115898E+03 0.  0.
         25    1    4    4    0    0  0.31943485625E+02  0.71052188811E+02  0.19203201086E+03  0.24205908598E+03  0.12509000000E+03 0.  0.
         25    1    3    3    0    0 -0.90001640123E+02 -0.74382998367E+02  0.33184072219E+03  0.37336161918E+03  0.12509000000E+03 0.  0.
         25    1    4    4    0    0  0.58058154498E+02  0.33308095553E+01  0.24495626957E+03  0.28112795254E+03  0.12509000000E+03 0.  0.
<mgrwt>
<rscale>  2 0.46119569E+03</rscale>
<asrwt>0</asrwt>
<pdfrwt beam="1">  1       21 0.12245423E+00 0.46119569E+03</pdfrwt>
<pdfrwt beam="2">  1       21 0.93911516E-02 0.46119569E+03</pdfrwt>
<totfact> 0.41340935E+04</totfact>
</mgrwt>
</event>
<event>
 7    0  0.4737014E-002  0.4553623E+03  0.7546771E-02  0.1026135E+00
         21   -1    0    0  502  501  0.00000000000E+00  0.00000000000E+00  0.37715565281E+03  0.37715565281E+03  0.00000000000E+00 0.  1.
         21   -1    0    0  501  502 -0.00000000000E+00 -0.00000000000E+00 -0.13744645188E+03  0.13744645188E+03  0.00000000000E+00 0.  1.
      99926    2    1    2    0    0 -0.14210854715E-13  0.00000000000E+00  0.23970920093E+03  0.51460210469E+03  0.45536230096E+03 0.  0.
      99925    2    3    3    0    0  0.11241259601E+03  0.96934906784E+01  0.16463324182E+03  0.33017200075E+03  0.26301880210E+03 0.  0.
         25    1    3    3    0    0 -0.11241259601E+03 -0.96934906784E+01  0.75075959105E+02  0.18443010394E+03  0.12509000000E+03 0.  0.
         25    1    4    4    0    0  0.96138893001E+02 -0.55662908323E+01  0.10658135764E+03  0.19047510136E+03  0.12509000000E+03 0.  0.
         25    1    4    4    0    0  0.16273703011E+02  0.15259781511E+02  0.58051884183E+02  0.13969689939E+03  0.12509000000E+03 0.  0.
<mgrwt>
<rscale>  2 0.45536230E+03</rscale>
<asrwt>0</asrwt>
<pdfrwt beam="1">  1       21 0.55464067E-01 0.45536230E+03</pdfrwt>
<pdfrwt beam="2">  1       21 0.20212714E-01 0.45536230E+03</pdfrwt>
<totfact> 0.64072120E+04</totfact>
</mgrwt>
</event>
<event>
 7    0  0.4737014E-002  0.4561970E+03  0.7546771E-02  0.1025890E+00
         21   -1    0    0  502  501  0.00000000000E+00  0.00000000000E+00  0.12553932440E+04  0.12553932440E+04  0.00000000000E+00 0. -1.
         21   -1    0    0  501  502 -0.00000000000E+00 -0.00000000000E+00 -0.41444318952E+02  0.41444318952E+02  0.00000000000E+00 0. -1.
      99926    2    1    2    0    0 -0.14210854715E-13  0.00000000000E+00  0.12139489251E+04  0.12968375630E+04  0.45619696630E+03 0.  0.
      99925    2    3    3    0    0 -0.74523880565E+02 -0.35280126070E+02  0.53810278541E+03  0.60458471274E+03  0.26300108581E+03 0.  0.
         25    1    4    4    0    0 -0.71591127024E+02 -0.58574135506E+01  0.24102140875E+03  0.28088863689E+03  0.12509000000E+03 0.  0.
         25    1    4    4    0    0 -0.29327535412E+01 -0.29422712519E+02  0.29708137667E+03  0.32369607584E+03  0.12509000000E+03 0.  0.
         25    1    3    3    0    0  0.74523880565E+02  0.35280126070E+02  0.67584613966E+03  0.69225285024E+03  0.12509000000E+03 0.  0.
<mgrwt>
<rscale>  2 0.45619697E+03</rscale>
<asrwt>0</asrwt>
<pdfrwt beam="1">  1       21 0.18461663E+00 0.45619697E+03</pdfrwt>
<pdfrwt beam="2">  1       21 0.60947536E-02 0.45619697E+03</pdfrwt>
<totfact> 0.28936372E+04</totfact>
</mgrwt>
</event>
<event>
 7    0  0.4737014E-002  0.4558758E+03  0.7546771E-02  0.1025984E+00
         21   -1    0    0  502  501  0.00000000000E+00  0.00000000000E+00  0.13934197049E+04  0.13934197049E+04  0.00000000000E+00 0. -1.
         21   -1    0    0  501  502 -0.00000000000E+00 -0.00000000000E+00 -0.37286461580E+02  0.37286461580E+02  0.00000000000E+00 0. -1.
      99926    2    1    2    0    0  0.00000000000E+00 -0.17763568394E-14  0.13561332433E+04  0.14307061665E+04  0.45587581771E+03 0.  0.
      99925    2    3    3    0    0  0.10907709637E+01  0.11844413436E+02  0.49740310101E+03  0.56283149504E+03  0.26311208069E+03 0.  0.
         25    1    4    4    0    0  0.26529626294E+02  0.28788355561E+01  0.31537396327E+03  0.34032389510E+03  0.12509000000E+03 0.  0.
         25    1    4    4    0    0 -0.25438855331E+02  0.89655778803E+01  0.18202913774E+03  0.22250759994E+03  0.12509000000E+03 0.  0.
         25    1    3    3    0    0 -0.10907709637E+01 -0.11844413436E+02  0.85873014232E+03  0.86787467144E+03  0.12509000000E+03 0.  0.
<mgrwt>
<rscale>  2 0.45587582E+03</rscale>
<asrwt>0</asrwt>
<pdfrwt beam="1">  1       21 0.20491463E+00 0.45587582E+03</pdfrwt>
<pdfrwt beam="2">  1       21 0.54833041E-02 0.45587582E+03</pdfrwt>
<totfact> 0.25352164E+04</totfact>
</mgrwt>
</event>
<event>
 7    0  0.4737014E-002  0.4551905E+03  0.7546771E-02  0.1026185E+00
         21   -1    0    0  502  501  0.00000000000E+00  0.00000000000E+00  0.10451344343E+04  0.10451344343E+04  0.00000000000E+00 0.  1.
         21   -1    0    0  501  502 -0.00000000000E+00 -0.00000000000E+00 -0.49562609875E+02  0.49562609875E+02  0.00000000000E+00 0.  1.
      99926    2    1    2    0    0 -0.71054273576E-14  0.71054273576E-14  0.99557182438E+03  0.10946970441E+04  0.45519046665E+03 0.  0.
      99925    2    3    3    0    0 -0.55072792772E+02  0.37443575331E+02  0.40592772309E+03  0.48826262218E+03  0.26303619144E+03 0.  0.
         25    1    4    4    0    0  0.47865033255E+01  0.39233645590E+02  0.22269870193E+03  0.25846548996E+03  0.12509000000E+03 0.  0.
         25    1    3    3    0    0  0.55072792772E+02 -0.37443575331E+02  0.58964410128E+03  0.60643442194E+03  0.12509000000E+03 0.  0.
         25    1    4    4    0    0 -0.59859296097E+02 -0.17900702588E+01  0.18322902116E+03  0.22979713222E+03  0.12509000000E+03 0.  0.
<mgrwt>
<rscale>  2 0.45519047E+03</rscale>
<asrwt>0</asrwt>
<pdfrwt beam="1">  1       21 0.15369623E+00 0.45519047E+03</pdfrwt>
<pdfrwt beam="2">  1       21 0.72886198E-02 0.45519047E+03</pdfrwt>
<totfact> 0.35625724E+04</totfact>
</mgrwt>
</event>
<event>
 7    0  0.4737014E-002  0.4565848E+03  0.7546771E-02  0.1025776E+00
         21   -1    0    0  502  501  0.00000000000E+00  0.00000000000E+00  0.56957214046E+03  0.56957214046E+03  0.00000000000E+00 0. -1.
         21   -1    0    0  501  502 -0.00000000000E+00 -0.00000000000E+00 -0.91502765428E+02  0.91502765428E+02  0.00000000000E+00 0. -1.
      99926    2    1    2    0    0 -0.17763568394E-14  0.71054273576E-14  0.47806937503E+03  0.66107490589E+03  0.45658482657E+03 0.  0.
      99925    2    3    3    0    0 -0.12648681280E+02 -0.54713815372E+02  0.44511913469E+03  0.52005427914E+03  0.26300535822E+03 0.  0.
         25    1    4    4    0    0  0.20805476975E+02 -0.39800038843E+02  0.27781309662E+03  0.30796840052E+03  0.12509000000E+03 0.  0.
         25    1    4    4    0    0 -0.33454158255E+02 -0.14913776529E+02  0.16730603807E+03  0.21208587862E+03  0.12509000000E+03 0.  0.
         25    1    3    3    0    0  0.12648681280E+02  0.54713815372E+02  0.32950240340E+02  0.14102062675E+03  0.12509000000E+03 0.  0.
<mgrwt>
<rscale>  2 0.45658483E+03</rscale>
<asrwt>0</asrwt>
<pdfrwt beam="1">  1       21 0.83760607E-01 0.45658483E+03</pdfrwt>
<pdfrwt beam="2">  1       21 0.13456289E-01 0.45658483E+03</pdfrwt>
<totfact> 0.54384561E+04</totfact>
</mgrwt>
</event>
<event>
 7    0  0.4737014E-002  0.4708888E+03  0.7546771E-02  0.1021670E+00
         21   -1    0    0  502  501  0.00000000000E+00  0.00000000000E+00  0.41736295320E+02  0.41736295320E+02  0.00000000000E+00 0. -1.
         21   -1    0    0  501  502 -0.00000000000E+00 -0.00000000000E+00 -0.13281979058E+04  0.13281979058E+04  0.00000000000E+00 0. -1.
      99926    2    1    2    0    0  0.71054273576E-14  0.14210854715E-13 -0.12864616105E+04  0.13699342011E+04  0.47088877684E+03 0.  0.
      99925    2    3    3    0    0 -0.44277334687E+02 -0.11945357270E+03 -0.82071692056E+03  0.87114039333E+03  0.26283014060E+03 0.  0.
         25    1    4    4    0    0 -0.50189105380E+02 -0.32441363873E+02 -0.42608877447E+03  0.44807425748E+03  0.12509000000E+03 0.  0.
         25    1    4    4    0    0  0.59117706932E+01 -0.87012208825E+02 -0.39462814609E+03  0.42306613585E+03  0.12509000000E+03 0.  0.
         25    1    3    3    0    0  0.44277334687E+02  0.11945357270E+03 -0.46574468991E+03  0.49879380778E+03  0.12509000000E+03 0.  0.
<mgrwt>
<rscale>  2 0.47088878E+03</rscale>
<asrwt>0</asrwt>
<pdfrwt beam="1">  1       21 0.61376908E-02 0.47088878E+03</pdfrwt>
<pdfrwt beam="2">  1       21 0.19532321E+00 0.47088878E+03</pdfrwt>
<totfact> 0.24036144E+04</totfact>
</mgrwt>
</event>
<event>
 7    0  0.4737014E-002  0.4148091E+03  0.7546771E-02  0.1038769E+00
         21   -1    0    0  502  501  0.00000000000E+00  0.00000000000E+00  0.95547956986E+03  0.95547956986E+03  0.00000000000E+00 0.  1.
         21   -1    0    0  501  502 -0.00000000000E+00 -0.00000000000E+00 -0.45020997147E+02  0.45020997147E+02  0.00000000000E+00 0.  1.
      99926    2    1    2    0    0 -0.71054273576E-14  0.00000000000E+00  0.91045857271E+03  0.10005005670E+04  0.41480907892E+03 0.  0.
      99925    2    3    3    0    0 -0.54502018227E+02  0.38506725548E+02  0.55410461704E+03  0.61697887567E+03  0.26301666961E+03 0.  0.
         25    1    4    4    0    0 -0.17193039925E+02  0.33596686279E+02  0.36031706738E+03  0.38327566463E+03  0.12509000000E+03 0.  0.
         25    1    4    4    0    0 -0.37308978302E+02  0.49100392688E+01  0.19378754966E+03  0.23370321104E+03  0.12509000000E+03 0.  0.
         25    1    3    3    0    0  0.54502018227E+02 -0.38506725548E+02  0.35635395568E+03  0.38352169134E+03  0.12509000000E+03 0.  0.
<mgrwt>
<rscale>  2 0.41480908E+03</rscale>
<asrwt>0</asrwt>
<pdfrwt beam="1">  1       21 0.14051169E+00 0.41480908E+03</pdfrwt>
<pdfrwt beam="2">  1       21 0.66207355E-02 0.41480908E+03</pdfrwt>
<totfact> 0.54288696E+04</totfact>
</mgrwt>
</event>
<event>
 7    0  0.4737014E-002  0.4386499E+03  0.7546771E-02  0.1031162E+00
         21   -1    0    0  502  501  0.00000000000E+00  0.00000000000E+00  0.11098089449E+03  0.11098089449E+03  0.00000000000E+00 0.  1.
         21   -1    0    0  501  502 -0.00000000000E+00 -0.00000000000E+00 -0.43343882377E+03  0.43343882377E+03  0.00000000000E+00 0.  1.
      99926    2    1    2    0    0  0.00000000000E+00  0.00000000000E+00 -0.32245792928E+03  0.54441971826E+03  0.43864987573E+03 0.  0.
      99925    2    3    3    0    0 -0.67211260642E+02 -0.31906403557E+02 -0.28311107011E+03  0.39365150022E+03  0.26320002558E+03 0.  0.
         25    1    4    4    0    0 -0.70862129237E+02 -0.20762223065E+02 -0.17870265488E+03  0.23029254923E+03  0.12509000000E+03 0.  0.
         25    1    4    4    0    0  0.36508685953E+01 -0.11144180492E+02 -0.10440841523E+03  0.16335895100E+03  0.12509000000E+03 0.  0.
         25    1    3    3    0    0  0.67211260642E+02  0.31906403557E+02 -0.39346859166E+02  0.15076821804E+03  0.12509000000E+03 0.  0.
<mgrwt>
<rscale>  2 0.43864988E+03</rscale>
<asrwt>0</asrwt>
<pdfrwt beam="1">  1       21 0.16320720E-01 0.43864988E+03</pdfrwt>
<pdfrwt beam="2">  1       21 0.63741002E-01 0.43864988E+03</pdfrwt>
<totfact> 0.70984314E+04</totfact>
</mgrwt>
</event>
<event>
 7    0  0.5018259E-002  0.4141319E+03  0.7546771E-02  0.1038993E+00
         21   -1    0    0  502  501  0.00000000000E+00  0.00000000000E+00  0.27473365253E+03  0.27473365253E+03  0.00000000000E+00 0. -1.
         21   -1    0    0  501  502 -0.00000000000E+00 -0.00000000000E+00 -0.15606499186E+03  0.15606499186E+03  0.00000000000E+00 0. -1.
      99926    2    1    2    0    0 -0.35527136788E-14  0.71054273576E-14  0.11866866067E+03  0.43079864439E+03  0.41413188839E+03 0.  0.
      99925    2    3    3    0    0 -0.14425736928E+02  0.56023203238E+02  0.11367902428E+03  0.29288887041E+03  0.26365558720E+03 0.  0.
         25    1    3    3    0    0  0.14425736928E+02 -0.56023203238E+02  0.49896363843E+01  0.13790977398E+03  0.12509000000E+03 0.  0.
         25    1    4    4    0    0  0.25466363823E+02  0.50735291128E+02  0.71624445050E+02  0.15491989763E+03  0.12509000000E+03 0.  0.
         25    1    4    4    0    0 -0.39892100751E+02  0.52879121095E+01  0.42054579234E+02  0.13796897278E+03  0.12509000000E+03 0.  0.
<mgrwt>
<rscale>  2 0.41413189E+03</rscale>
<asrwt>0</asrwt>
<pdfrwt beam="1">  1       21 0.40402008E-01 0.41413189E+03</pdfrwt>
<pdfrwt beam="2">  1       21 0.22950734E-01 0.41413189E+03</pdfrwt>
<totfact> 0.98821550E+04</totfact>
</mgrwt>
</event>
<event>
 7    0  0.4737014E-002  0.4522761E+03  0.7546771E-02  0.1027045E+00
         21   -1    0    0  502  501  0.00000000000E+00  0.00000000000E+00  0.82066809474E+02  0.82066809474E+02  0.00000000000E+00 0.  1.
         21   -1    0    0  501  502 -0.00000000000E+00 -0.00000000000E+00 -0.62313159708E+03  0.62313159708E+03  0.00000000000E+00 0.  1.
      99926    2    1    2    0    0  0.00000000000E+00 -0.71054273576E-14 -0.54106478760E+03  0.70519840655E+03  0.45227611944E+03 0.  0.
      99925    2    3    3    0    0  0.71581028883E+02 -0.57341273224E+02 -0.24465728993E+03  0.37065875555E+03  0.26290465618E+03 0.  0.
         25    1    4    4    0    0  0.27785445517E+02 -0.68722941205E+02 -0.12576763043E+03  0.19224952170E+03  0.12509000000E+03 0.  0.
         25    1    4    4    0    0  0.43795583367E+02  0.11381667981E+02 -0.11888965950E+03  0.17840923385E+03  0.12509000000E+03 0.  0.
         25    1    3    3    0    0 -0.71581028883E+02  0.57341273224E+02 -0.29640749767E+03  0.33453965100E+03  0.12509000000E+03 0.  0.
<mgrwt>
<rscale>  2 0.45227612E+03</rscale>
<asrwt>0</asrwt>
<pdfrwt beam="1">  1       21 0.12068648E-01 0.45227612E+03</pdfrwt>
<pdfrwt beam="2">  1       21 0.91637002E-01 0.45227612E+03</pdfrwt>
<totfact> 0.53764740E+04</totfact>
</mgrwt>
</event>
<event>
 7    0  0.4737014E-002  0.4502259E+03  0.7546771E-02  0.1027655E+00
         21   -1    0    0  502  501  0.00000000000E+00  0.00000000000E+00  0.47199782272E+03  0.47199782272E+03  0.00000000000E+00 0.  1.
         21   -1    0    0  501  502 -0.00000000000E+00 -0.00000000000E+00 -0.10736454955E+03  0.10736454955E+03  0.00000000000E+00 0.  1.
      99926    2    1    2    0    0  0.00000000000E+00  0.00000000000E+00  0.36463327317E+03  0.57936237227E+03  0.45022587054E+03 0.  0.
      99925    2    3    3    0    0 -0.56129935668E+02  0.71698884909E+02  0.15418514081E+03  0.31815895674E+03  0.26298434237E+03 0.  0.
         25    1    3    3    0    0  0.56129935668E+02 -0.71698884909E+02  0.21044813235E+03  0.26120341553E+03  0.12509000000E+03 0.  0.
         25    1    4    4    0    0 -0.25222386259E+02  0.75386656485E+02  0.67786175764E+02  0.16297788337E+03  0.12509000000E+03 0.  0.
         25    1    4    4    0    0 -0.30907549409E+02 -0.36877715758E+01  0.86398965048E+02  0.15518107337E+03  0.12509000000E+03 0.  0.
<mgrwt>
<rscale>  2 0.45022587E+03</rscale>
<asrwt>0</asrwt>
<pdfrwt beam="1">  1       21 0.69411444E-01 0.45022587E+03</pdfrwt>
<pdfrwt beam="2">  1       21 0.15788905E-01 0.45022587E+03</pdfrwt>
<totfact> 0.62284622E+04</totfact>
</mgrwt>
</event>
<event>
 7    0  0.4737014E-002  0.4515874E+03  0.7546771E-02  0.1027250E+00
         21   -1    0    0  502  501  0.00000000000E+00  0.00000000000E+00  0.18383512305E+04  0.18383512305E+04  0.00000000000E+00 0. -1.
         21   -1    0    0  501  502 -0.00000000000E+00 -0.00000000000E+00 -0.27732893285E+02  0.27732893285E+02  0.00000000000E+00 0. -1.
      99926    2    1    2    0    0  0.88817841970E-15 -0.35527136788E-14  0.18106183372E+04  0.18660841238E+04  0.45158741566E+03 0.  0.
      99925    2    3    3    0    0  0.22031135837E+01 -0.25162955995E+02  0.15850583981E+04  0.16069262138E+04  0.26298992987E+03 0.  0.
         25    1    3    3    0    0 -0.22031135837E+01  0.25162955995E+02  0.22555993912E+03  0.25915790997E+03  0.12509000000E+03 0.  0.
         25    1    4    4    0    0 -0.15471286823E+02  0.17482999924E+02  0.90692612254E+03  0.91580975964E+03  0.12509000000E+03 0.  0.
         25    1    4    4    0    0  0.17674400407E+02 -0.42645955920E+02  0.67813227557E+03  0.69111645419E+03  0.12509000000E+03 0.  0.
<mgrwt>
<rscale>  2 0.45158742E+03</rscale>
<asrwt>0</asrwt>
<pdfrwt beam="1">  1       21 0.27034569E+00 0.45158742E+03</pdfrwt>
<pdfrwt beam="2">  1       21 0.40783679E-02 0.45158742E+03</pdfrwt>
<totfact> 0.16453414E+04</totfact>
</mgrwt>
</event>
<event>
 7    0  0.4737014E-002  0.4469047E+03  0.7546771E-02  0.1028649E+00
         21   -1    0    0  502  501  0.00000000000E+00  0.00000000000E+00  0.19768997137E+03  0.19768997137E+03  0.00000000000E+00 0. -1.
         21   -1    0    0  501  502 -0.00000000000E+00 -0.00000000000E+00 -0.25257195775E+03  0.25257195775E+03  0.00000000000E+00 0. -1.
      99926    2    1    2    0    0  0.00000000000E+00  0.35527136788E-14 -0.54881986372E+02  0.45026192912E+03  0.44690465693E+03 0.  0.
      99925    2    3    3    0    0 -0.47219154480E+02 -0.28576470509E+02 -0.12486311831E+03  0.29666788580E+03  0.26339091278E+03 0.  0.
         25    1    3    3    0    0  0.47219154480E+02  0.28576470509E+02  0.69981131936E+02  0.15359404332E+03  0.12509000000E+03 0.  0.
         25    1    4    4    0    0 -0.17782605421E+02 -0.34658236564E+02 -0.24007061837E+02  0.13319632703E+03  0.12509000000E+03 0.  0.
         25    1    4    4    0    0 -0.29436549058E+02  0.60817660556E+01 -0.10085605647E+03  0.16347155877E+03  0.12509000000E+03 0.  0.
<mgrwt>
<rscale>  2 0.44690466E+03</rscale>
<asrwt>0</asrwt>
<pdfrwt beam="1">  1       21 0.29072055E-01 0.44690466E+03</pdfrwt>
<pdfrwt beam="2">  1       21 0.37142935E-01 0.44690466E+03</pdfrwt>
<totfact> 0.73529730E+04</totfact>
</mgrwt>
</event>
<event>
 7    0  0.4737014E-002  0.4644929E+03  0.7546771E-02  0.1023486E+00
         21   -1    0    0  502  501  0.00000000000E+00  0.00000000000E+00  0.64984036530E+02  0.64984036530E+02  0.00000000000E+00 0. -1.
         21   -1    0    0  501  502 -0.00000000000E+00 -0.00000000000E+00 -0.83002562484E+03  0.83002562484E+03  0.00000000000E+00 0. -1.
      99926    2    1    2    0    0  0.00000000000E+00  0.00000000000E+00 -0.76504158831E+03  0.89500966137E+03  0.46449290856E+03 0.  0.
      99925    2    3    3    0    0  0.13436752192E+02  0.81220065434E+02 -0.30916589596E+03  0.41516864570E+03  0.26458308300E+03 0.  0.
         25    1    4    4    0    0 -0.88163097347E+01  0.15583341882E+02 -0.19413832626E+03  0.23164145934E+03  0.12509000000E+03 0.  0.
         25    1    4    4    0    0  0.22253061927E+02  0.65636723552E+02 -0.11502756969E+03  0.18352718636E+03  0.12509000000E+03 0.  0.
         25    1    3    3    0    0 -0.13436752192E+02 -0.81220065434E+02 -0.45587569236E+03  0.47984101567E+03  0.12509000000E+03 0.  0.
<mgrwt>
<rscale>  2 0.46449291E+03</rscale>
<asrwt>0</asrwt>
<pdfrwt beam="1">  1       21 0.95564759E-02 0.46449291E+03</pdfrwt>
<pdfrwt beam="2">  1       21 0.12206259E+00 0.46449291E+03</pdfrwt>
<totfact> 0.40365089E+04</totfact>
</mgrwt>
</event>
<event>
 7    0  0.4737014E-002  0.4715412E+03  0.7546771E-02  0.1021486E+00
         21   -1    0    0  502  501  0.00000000000E+00  0.00000000000E+00  0.17901045652E+03  0.17901045652E+03  0.00000000000E+00 0. -1.
         21   -1    0    0  501  502 -0.00000000000E+00 -0.00000000000E+00 -0.31052814671E+03  0.31052814671E+03  0.00000000000E+00 0. -1.
      99926    2    1    2    0    0  0.35527136788E-14  0.14210854715E-13 -0.13151769019E+03  0.48953860323E+03  0.47154124021E+03 0.  0.
      99925    2    3    3    0    0  0.24564411304E+02  0.12566253168E+03 -0.80648862334E+02  0.30344822756E+03  0.26302491449E+03 0.  0.
         25    1    3    3    0    0 -0.24564411304E+02 -0.12566253168E+03 -0.50868827858E+02  0.18609037567E+03  0.12509000000E+03 0.  0.
         25    1    4    4    0    0  0.95802643562E+01  0.95170988297E+02 -0.15091754870E+02  0.15819155364E+03  0.12509000000E+03 0.  0.
         25    1    4    4    0    0  0.14984146948E+02  0.30491543380E+02 -0.65557107464E+02  0.14525667391E+03  0.12509000000E+03 0.  0.
<mgrwt>
<rscale>  2 0.47154124E+03</rscale>
<asrwt>0</asrwt>
<pdfrwt beam="1">  1       21 0.26325067E-01 0.47154124E+03</pdfrwt>
<pdfrwt beam="2">  1       21 0.45665904E-01 0.47154124E+03</pdfrwt>
<totfact> 0.58013044E+04</totfact>
</mgrwt>
</event>
<event>
 7    0  0.4737014E-002  0.4522676E+03  0.7546771E-02  0.1027048E+00
         21   -1    0    0  502  501  0.00000000000E+00  0.00000000000E+00  0.65543728869E+03  0.65543728869E+03  0.00000000000E+00 0. -1.
         21   -1    0    0  501  502 -0.00000000000E+00 -0.00000000000E+00 -0.78018889783E+02  0.78018889783E+02  0.00000000000E+00 0. -1.
      99926    2    1    2    0    0  0.14210854715E-13 -0.71054273576E-14  0.57741839891E+03  0.73345617847E+03  0.45226757384E+03 0.  0.
      99925    2    3    3    0    0 -0.78817415322E+02  0.60403448411E+02  0.44330216632E+03  0.52490059001E+03  0.26295067443E+03 0.  0.
         25    1    4    4    0    0 -0.62993449599E+02  0.57122290866E+02  0.19899003585E+03  0.24995134182E+03  0.12509000000E+03 0.  0.
         25    1    4    4    0    0 -0.15823965724E+02  0.32811575449E+01  0.24431213047E+03  0.27494924819E+03  0.12509000000E+03 0.  0.
         25    1    3    3    0    0  0.78817415322E+02 -0.60403448411E+02  0.13411623258E+03  0.20855558847E+03  0.12509000000E+03 0.  0.
<mgrwt>
<rscale>  2 0.45226757E+03</rscale>
<asrwt>0</asrwt>
<pdfrwt beam="1">  1       21 0.96387834E-01 0.45226757E+03</pdfrwt>
<pdfrwt beam="2">  1       21 0.11473366E-01 0.45226757E+03</pdfrwt>
<totfact> 0.52237161E+04</totfact>
</mgrwt>
</event>
<event>
 7    0  0.4737014E-002  0.4578528E+03  0.7546771E-02  0.1025406E+00
         21   -1    0    0  502  501  0.00000000000E+00  0.00000000000E+00  0.50662422633E+03  0.50662422633E+03  0.00000000000E+00 0.  1.
         21   -1    0    0  501  502 -0.00000000000E+00 -0.00000000000E+00 -0.10344411527E+03  0.10344411527E+03  0.00000000000E+00 0.  1.
      99926    2    1    2    0    0  0.00000000000E+00  0.00000000000E+00  0.40318011106E+03  0.61006834160E+03  0.45785279235E+03 0.  0.
      99925    2    3    3    0    0 -0.59310294749E+02  0.75997758741E+02  0.16751054827E+03  0.32637656991E+03  0.26299907074E+03 0.  0.
         25    1    4    4    0    0 -0.70148001547E+02  0.31025347957E+02  0.88896418375E+02  0.17156163801E+03  0.12509000000E+03 0.  0.
         25    1    3    3    0    0  0.59310294749E+02 -0.75997758741E+02  0.23566956279E+03  0.28369177169E+03  0.12509000000E+03 0.  0.
         25    1    4    4    0    0  0.10837706797E+02  0.44972410785E+02  0.78614129892E+02  0.15481493190E+03  0.12509000000E+03 0.  0.
<mgrwt>
<rscale>  2 0.45785279E+03</rscale>
<asrwt>0</asrwt>
<pdfrwt beam="1">  1       21 0.74503561E-01 0.45785279E+03</pdfrwt>
<pdfrwt beam="2">  1       21 0.15212370E-01 0.45785279E+03</pdfrwt>
<totfact> 0.56772590E+04</totfact>
</mgrwt>
</event>
<event>
 7    0  0.4737014E-002  0.4636067E+03  0.7546771E-02  0.1023740E+00
         21   -1    0    0  502  501  0.00000000000E+00  0.00000000000E+00  0.16619296297E+04  0.16619296297E+04  0.00000000000E+00 0.  1.
         21   -1    0    0  501  502 -0.00000000000E+00 -0.00000000000E+00 -0.32331564177E+02  0.32331564177E+02  0.00000000000E+00 0.  1.
      99926    2    1    2    0    0  0.71054273576E-14  0.00000000000E+00  0.16295980655E+04  0.16942611939E+04  0.46360666294E+03 0.  0.
      99925    2    3    3    0    0  0.43076162507E+02 -0.66818538779E+02  0.13507760436E+04  0.13784930813E+04  0.26330017544E+03 0.  0.
         25    1    4    4    0    0 -0.32200207016E+01 -0.44358524321E+02  0.82412078869E+03  0.83474584735E+03  0.12509000000E+03 0.  0.
         25    1    4    4    0    0  0.46296183208E+02 -0.22460014458E+02  0.52665525489E+03  0.54374723395E+03  0.12509000000E+03 0.  0.
         25    1    3    3    0    0 -0.43076162507E+02  0.66818538779E+02  0.27882202196E+03  0.31576811259E+03  0.12509000000E+03 0.  0.
<mgrwt>
<rscale>  2 0.46360666E+03</rscale>
<asrwt>0</asrwt>
<pdfrwt beam="1">  1       21 0.24440136E+00 0.46360666E+03</pdfrwt>
<pdfrwt beam="2">  1       21 0.47546429E-02 0.46360666E+03</pdfrwt>
<totfact> 0.18138590E+04</totfact>
</mgrwt>
</event>
<event>
 7    0  0.4737014E-002  0.4529635E+03  0.7546771E-02  0.1026842E+00
         21   -1    0    0  502  501  0.00000000000E+00  0.00000000000E+00  0.28086503763E+03  0.28086503763E+03  0.00000000000E+00 0. -1.
         21   -1    0    0  501  502 -0.00000000000E+00 -0.00000000000E+00 -0.18262854440E+03  0.18262854440E+03  0.00000000000E+00 0. -1.
      99926    2    1    2    0    0  0.00000000000E+00  0.00000000000E+00  0.98236493234E+02  0.46349358203E+03  0.45296345546E+03 0.  0.
      99925    2    3    3    0    0 -0.57771418034E+02  0.22750665293E+02  0.15684251934E+03  0.31204291710E+03  0.26251871691E+03 0.  0.
         25    1    3    3    0    0  0.57771418034E+02 -0.22750665293E+02 -0.58606026108E+02  0.15145066493E+03  0.12509000000E+03 0.  0.
         25    1    4    4    0    0 -0.14102284016E+02  0.61757844354E+01  0.11880976011E+03  0.17320589460E+03  0.12509000000E+03 0.  0.
         25    1    4    4    0    0 -0.43669134018E+02  0.16574880857E+02  0.38032759234E+02  0.13883702250E+03  0.12509000000E+03 0.  0.
<mgrwt>
<rscale>  2 0.45296346E+03</rscale>
<asrwt>0</asrwt>
<pdfrwt beam="1">  1       21 0.41303682E-01 0.45296346E+03</pdfrwt>
<pdfrwt beam="2">  1       21 0.26857139E-01 0.45296346E+03</pdfrwt>
<totfact> 0.69031668E+04</totfact>
</mgrwt>
</event>
<event>
 7    0  0.4737014E-002  0.4657249E+03  0.7546771E-02  0.1023134E+00
         21   -1    0    0  502  501  0.00000000000E+00  0.00000000000E+00  0.38825280399E+02  0.38825280399E+02  0.00000000000E+00 0.  1.
         21   -1    0    0  501  502 -0.00000000000E+00 -0.00000000000E+00 -0.13966397022E+04  0.13966397022E+04  0.00000000000E+00 0.  1.
      99926    2    1    2    0    0  0.00000000000E+00 -0.17763568394E-14 -0.13578144218E+04  0.14354649826E+04  0.46572493192E+03 0.  0.
      99925    2    3    3    0    0 -0.12169122669E+03 -0.10915670078E+02 -0.88611248582E+03  0.93239626859E+03  0.26313410582E+03 0.  0.
         25    1    4    4    0    0 -0.80636525228E+02  0.17449571470E+02 -0.37480334505E+03  0.40364810455E+03  0.12509000000E+03 0.  0.
         25    1    4    4    0    0 -0.41054701461E+02 -0.28365241548E+02 -0.51130914077E+03  0.52874816404E+03  0.12509000000E+03 0.  0.
         25    1    3    3    0    0  0.12169122669E+03  0.10915670078E+02 -0.47170193596E+03  0.50306871399E+03  0.12509000000E+03 0.  0.
<mgrwt>
<rscale>  2 0.46572493E+03</rscale>
<asrwt>0</asrwt>
<pdfrwt beam="1">  1       21 0.57095995E-02 0.46572493E+03</pdfrwt>
<pdfrwt beam="2">  1       21 0.20538821E+00 0.46572493E+03</pdfrwt>
<totfact> 0.23391269E+04</totfact>
</mgrwt>
</event>
<event>
 7    0  0.4737014E-002  0.4535899E+03  0.7546771E-02  0.1026657E+00
         21   -1    0    0  502  501  0.00000000000E+00  0.00000000000E+00  0.24648393314E+03  0.24648393314E+03  0.00000000000E+00 0. -1.
         21   -1    0    0  501  502 -0.00000000000E+00 -0.00000000000E+00 -0.20867875074E+03  0.20867875074E+03  0.00000000000E+00 0. -1.
      99926    2    1    2    0    0  0.00000000000E+00 -0.14210854715E-13  0.37805182401E+02  0.45516268388E+03  0.45358994365E+03 0.  0.
      99925    2    3    3    0    0  0.33424892278E+02  0.10272799610E+03 -0.71554851005E+01  0.28387568984E+03  0.26241940040E+03 0.  0.
         25    1    3    3    0    0 -0.33424892278E+02 -0.10272799610E+03  0.44960667501E+02  0.17128699404E+03  0.12509000000E+03 0.  0.
         25    1    4    4    0    0  0.11328222527E+02  0.21128757659E+02 -0.30851620822E+02  0.13104992802E+03  0.12509000000E+03 0.  0.
         25    1    4    4    0    0  0.22096669751E+02  0.81599238439E+02  0.23696135721E+02  0.15282576182E+03  0.12509000000E+03 0.  0.
<mgrwt>
<rscale>  2 0.45358994E+03</rscale>
<asrwt>0</asrwt>
<pdfrwt beam="1">  1       21 0.36247637E-01 0.45358994E+03</pdfrwt>
<pdfrwt beam="2">  1       21 0.30688051E-01 0.45358994E+03</pdfrwt>
<totfact> 0.69310398E+04</totfact>
</mgrwt>
</event>
<event>
 7    0  0.4737014E-002  0.4530600E+03  0.7546771E-02  0.1026813E+00
         21   -1    0    0  502  501  0.00000000000E+00  0.00000000000E+00  0.39196249849E+03  0.39196249849E+03  0.00000000000E+00 0.  1.
         21   -1    0    0  501  502 -0.00000000000E+00 -0.00000000000E+00 -0.13092028419E+03  0.13092028419E+03  0.00000000000E+00 0.  1.
      99926    2    1    2    0    0  0.00000000000E+00 -0.71054273576E-14  0.26104221430E+03  0.52288278267E+03  0.45306000350E+03 0.  0.
      99925    2    3    3    0    0  0.38074112900E+02  0.44762676052E+02  0.55496323284E+02  0.27519354864E+03  0.26305572048E+03 0.  0.
         25    1    4    4    0    0 -0.13597515048E+00  0.71731971822E+01 -0.68910357693E+01  0.12548493025E+03  0.12509000000E+03 0.  0.
         25    1    3    3    0    0 -0.38074112900E+02 -0.44762676052E+02  0.20554589101E+03  0.24768923403E+03  0.12509000000E+03 0.  0.
         25    1    4    4    0    0  0.38210088050E+02  0.37589478870E+02  0.62387359053E+02  0.14970861839E+03  0.12509000000E+03 0.  0.
<mgrwt>
<rscale>  2 0.45306000E+03</rscale>
<asrwt>0</asrwt>
<pdfrwt beam="1">  1       21 0.57641544E-01 0.45306000E+03</pdfrwt>
<pdfrwt beam="2">  1       21 0.19252983E-01 0.45306000E+03</pdfrwt>
<totfact> 0.64679886E+04</totfact>
</mgrwt>
</event>
<event>
 7    0  0.4737014E-002  0.4526318E+03  0.7546771E-02  0.1026940E+00
         21   -1    0    0  502  501  0.00000000000E+00  0.00000000000E+00  0.20246013913E+03  0.20246013913E+03  0.00000000000E+00 0. -1.
         21   -1    0    0  501  502 -0.00000000000E+00 -0.00000000000E+00 -0.25298258882E+03  0.25298258882E+03  0.00000000000E+00 0. -1.
      99926    2    1    2    0    0  0.00000000000E+00 -0.71054273576E-14 -0.50522449693E+02  0.45544272795E+03  0.45263181563E+03 0.  0.
      99925    2    3    3    0    0 -0.78097037164E+02  0.53938254810E+02  0.25996498879E+02  0.28076834478E+03  0.26295734052E+03 0.  0.
         25    1    4    4    0    0 -0.61591147385E+02  0.12406657977E+02  0.43967513053E+02  0.14672438414E+03  0.12509000000E+03 0.  0.
         25    1    3    3    0    0  0.78097037164E+02 -0.53938254810E+02 -0.76518948571E+02  0.17467438317E+03  0.12509000000E+03 0.  0.
         25    1    4    4    0    0 -0.16505889779E+02  0.41531596832E+02 -0.17971014174E+02  0.13404396064E+03  0.12509000000E+03 0.  0.
<mgrwt>
<rscale>  2 0.45263182E+03</rscale>
<asrwt>0</asrwt>
<pdfrwt beam="1">  1       21 0.29773550E-01 0.45263182E+03</pdfrwt>
<pdfrwt beam="2">  1       21 0.37203322E-01 0.45263182E+03</pdfrwt>
<totfact> 0.69823285E+04</totfact>
</mgrwt>
</event>
<event>
 7    0  0.4737014E-002  0.4570728E+03  0.7546771E-02  0.1025634E+00
         21   -1    0    0  502  501  0.00000000000E+00  0.00000000000E+00  0.42211477574E+03  0.42211477574E+03  0.00000000000E+00 0.  1.
         21   -1    0    0  501  502 -0.00000000000E+00 -0.00000000000E+00 -0.12373150619E+03  0.12373150619E+03  0.00000000000E+00 0.  1.
      99926    2    1    2    0    0  0.00000000000E+00  0.00000000000E+00  0.29838326955E+03  0.54584628193E+03  0.45707284753E+03 0.  0.
      99925    2    3    3    0    0 -0.98815731559E+02 -0.28395108950E+02  0.12562813338E+03  0.30907070002E+03  0.26300463627E+03 0.  0.
         25    1    4    4    0    0 -0.70786695437E+02 -0.50708909147E+01  0.10281908337E+03  0.17679293592E+03  0.12509000000E+03 0.  0.
         25    1    3    3    0    0  0.98815731559E+02  0.28395108950E+02  0.17275513617E+03  0.23677558191E+03  0.12509000000E+03 0.  0.
         25    1    4    4    0    0 -0.28029036122E+02 -0.23324218035E+02  0.22809050008E+02  0.13227776410E+03  0.12509000000E+03 0.  0.
<mgrwt>
<rscale>  2 0.45707285E+03</rscale>
<asrwt>0</asrwt>
<pdfrwt beam="1">  1       21 0.62075702E-01 0.45707285E+03</pdfrwt>
<pdfrwt beam="2">  1       21 0.18195810E-01 0.45707285E+03</pdfrwt>
<totfact> 0.61132942E+04</totfact>
</mgrwt>
</event>
<event>
 7    0  0.4737014E-002  0.4534629E+03  0.7546771E-02  0.1026694E+00
         21   -1    0    0  502  501  0.00000000000E+00  0.00000000000E+00  0.13903854007E+03  0.13903854007E+03  0.00000000000E+00 0.  1.
         21   -1    0    0  501  502 -0.00000000000E+00 -0.00000000000E+00 -0.36973316024E+03  0.36973316024E+03  0.00000000000E+00 0.  1.
      99926    2    1    2    0    0  0.17763568394E-14  0.00000000000E+00 -0.23069462017E+03  0.50877170030E+03  0.45346293702E+03 0.  0.
      99925    2    3    3    0    0 -0.14150466689E+02 -0.48894318006E+02 -0.25700170361E+03  0.37118368927E+03  0.26293833019E+03 0.  0.
         25    1    4    4    0    0  0.24958917447E+02 -0.12229397127E+02 -0.15499188997E+03  0.20110320677E+03  0.12509000000E+03 0.  0.
         25    1    4    4    0    0 -0.39109384136E+02 -0.36664920879E+02 -0.10200981364E+03  0.17008048251E+03  0.12509000000E+03 0.  0.
         25    1    3    3    0    0  0.14150466689E+02  0.48894318006E+02  0.26307083440E+02  0.13758801103E+03  0.12509000000E+03 0.  0.
<mgrwt>
<rscale>  2 0.45346294E+03</rscale>
<asrwt>0</asrwt>
<pdfrwt beam="1">  1       21 0.20446844E-01 0.45346294E+03</pdfrwt>
<pdfrwt beam="2">  1       21 0.54372523E-01 0.45346294E+03</pdfrwt>
<totfact> 0.65453522E+04</totfact>
</mgrwt>
</event>
<event>
 7    0  0.4737014E-002  0.4529578E+03  0.7546771E-02  0.1026844E+00
         21   -1    0    0  502  501  0.00000000000E+00  0.00000000000E+00  0.31045579795E+03  0.31045579795E+03  0.00000000000E+00 0. -1.
         21   -1    0    0  501  502 -0.00000000000E+00 -0.00000000000E+00 -0.16521738369E+03  0.16521738369E+03  0.00000000000E+00 0. -1.
      99926    2    1    2    0    0  0.00000000000E+00  0.00000000000E+00  0.14523841425E+03  0.47567318164E+03  0.45295781123E+03 0.  0.
      99925    2    3    3    0    0 -0.75896293818E+02  0.80737527732E+02  0.80930649434E+02  0.29661511140E+03  0.26296759970E+03 0.  0.
         25    1    4    4    0    0 -0.48161109690E+01  0.34818795955E+02  0.11644456483E+02  0.13045552860E+03  0.12509000000E+03 0.  0.
         25    1    4    4    0    0 -0.71080182849E+02  0.45918731777E+02  0.69286192951E+02  0.16615958280E+03  0.12509000000E+03 0.  0.
         25    1    3    3    0    0  0.75896293818E+02 -0.80737527732E+02  0.64307764820E+02  0.17905807023E+03  0.12509000000E+03 0.  0.
<mgrwt>
<rscale>  2 0.45295781E+03</rscale>
<asrwt>0</asrwt>
<pdfrwt beam="1">  1       21 0.45655264E-01 0.45295781E+03</pdfrwt>
<pdfrwt beam="2">  1       21 0.24296674E-01 0.45295781E+03</pdfrwt>
<totfact> 0.68113731E+04</totfact>
</mgrwt>
</event>
<event>
 7    0  0.4737014E-002  0.4601751E+03  0.7546771E-02  0.1024730E+00
         21   -1    0    0  502  501  0.00000000000E+00  0.00000000000E+00  0.32597860822E+03  0.32597860822E+03  0.00000000000E+00 0.  1.
         21   -1    0    0  501  502 -0.00000000000E+00 -0.00000000000E+00 -0.16240415457E+03  0.16240415457E+03  0.00000000000E+00 0.  1.
      99926    2    1    2    0    0  0.00000000000E+00  0.00000000000E+00  0.16357445366E+03  0.48838276279E+03  0.46017509831E+03 0.  0.
      99925    2    3    3    0    0 -0.35767131455E+02 -0.80204162724E+02  0.18862251338E+02  0.27790443846E+03  0.26298877729E+03 0.  0.
         25    1    3    3    0    0  0.35767131455E+02  0.80204162724E+02  0.14471220232E+03  0.21047832433E+03  0.12509000000E+03 0.  0.
         25    1    4    4    0    0 -0.56484333094E+02 -0.28157839294E+02  0.13135596170E+02  0.14072453868E+03  0.12509000000E+03 0.  0.
         25    1    4    4    0    0  0.20717201639E+02 -0.52046323430E+02  0.57266551681E+01  0.13717989979E+03  0.12509000000E+03 0.  0.
<mgrwt>
<rscale>  2 0.46017510E+03</rscale>
<asrwt>0</asrwt>
<pdfrwt beam="1">  1       21 0.47938030E-01 0.46017510E+03</pdfrwt>
<pdfrwt beam="2">  1       21 0.23882964E-01 0.46017510E+03</pdfrwt>
<totfact> 0.63447879E+04</totfact>
</mgrwt>
</event>
<event>
 7    0  0.4737014E-002  0.4597492E+03  0.7546771E-02  0.1024854E+00
         21   -1    0    0  502  501  0.00000000000E+00  0.00000000000E+00  0.13626235821E+04  0.13626235821E+04  0.00000000000E+00 0. -1.
         21   -1    0    0  501  502 -0.00000000000E+00 -0.00000000000E+00 -0.38779840035E+02  0.38779840035E+02  0.00000000000E+00 0. -1.
      99926    2    1    2    0    0 -0.71054273576E-14  0.00000000000E+00  0.13238437421E+04  0.14014034221E+04  0.45974916875E+03 0.  0.
      99925    2    3    3    0    0  0.53127197951E+02 -0.95151663279E+02  0.96123826656E+03  0.10026471342E+04  0.26352596166E+03 0.  0.
         25    1    4    4    0    0  0.51277963139E+01 -0.10231888793E+02  0.46534409098E+03  0.48199960265E+03  0.12509000000E+03 0.  0.
         25    1    3    3    0    0 -0.53127197951E+02  0.95151663279E+02  0.36260547550E+03  0.39875628792E+03  0.12509000000E+03 0.  0.
         25    1    4    4    0    0  0.47999401637E+02 -0.84919774486E+02  0.49589417558E+03  0.52064753157E+03  0.12509000000E+03 0.  0.
<mgrwt>
<rscale>  2 0.45974917E+03</rscale>
<asrwt>0</asrwt>
<pdfrwt beam="1">  1       21 0.20038579E+00 0.45974917E+03</pdfrwt>
<pdfrwt beam="2">  1       21 0.57029186E-02 0.45974917E+03</pdfrwt>
<totfact> 0.25346210E+04</totfact>
</mgrwt>
</event>
<event>
 7    0  0.4737014E-002  0.4567441E+03  0.7546771E-02  0.1025730E+00
         21   -1    0    0  502  501  0.00000000000E+00  0.00000000000E+00  0.23481416352E+03  0.23481416352E+03  0.00000000000E+00 0. -1.
         21   -1    0    0  501  502 -0.00000000000E+00 -0.00000000000E+00 -0.22210664722E+03  0.22210664722E+03  0.00000000000E+00 0. -1.
      99926    2    1    2    0    0  0.14210854715E-13  0.14210854715E-13  0.12707516302E+02  0.45692081074E+03  0.45674407092E+03 0.  0.
      99925    2    3    3    0    0  0.73735557570E+02  0.83922619625E+02  0.35131760635E+02  0.28771592497E+03  0.26280463151E+03 0.  0.
         25    1    4    4    0    0  0.43943933389E+02  0.13136429644E+01  0.20729118738E+02  0.13420133905E+03  0.12509000000E+03 0.  0.
         25    1    4    4    0    0  0.29791624182E+02  0.82608976660E+02  0.14402641897E+02  0.15351458592E+03  0.12509000000E+03 0.  0.
         25    1    3    3    0    0 -0.73735557570E+02 -0.83922619625E+02 -0.22424244333E+02  0.16920488577E+03  0.12509000000E+03 0.  0.
<mgrwt>
<rscale>  2 0.45674407E+03</rscale>
<asrwt>0</asrwt>
<pdfrwt beam="1">  1       21 0.34531495E-01 0.45674407E+03</pdfrwt>
<pdfrwt beam="2">  1       21 0.32662742E-01 0.45674407E+03</pdfrwt>
<totfact> 0.67461630E+04</totfact>
</mgrwt>
</event>
<event>
 7    0  0.4737014E-002  0.4599693E+03  0.7546771E-02  0.1024790E+00
         21   -1    0    0  502  501  0.00000000000E+00  0.00000000000E+00  0.63024099009E+03  0.63024099009E+03  0.00000000000E+00 0.  1.
         21   -1    0    0  501  502 -0.00000000000E+00 -0.00000000000E+00 -0.83924952568E+02  0.83924952568E+02  0.00000000000E+00 0.  1.
      99926    2    1    2    0    0  0.00000000000E+00  0.00000000000E+00  0.54631603752E+03  0.71416594266E+03  0.45996932593E+03 0.  0.
      99925    2    3    3    0    0 -0.11287516182E+03 -0.17969416659E+02  0.29798954131E+03  0.41353783534E+03  0.26296781634E+03 0.  0.
         25    1    3    3    0    0  0.11287516182E+03  0.17969416659E+02  0.24832649621E+03  0.30062810732E+03  0.12509000000E+03 0.  0.
         25    1    4    4    0    0 -0.26055254688E+02 -0.33387681019E+01  0.17792722523E+03  0.21907904794E+03  0.12509000000E+03 0.  0.
         25    1    4    4    0    0 -0.86819907135E+02 -0.14630648557E+02  0.12006231608E+03  0.19445878739E+03  0.12509000000E+03 0.  0.
<mgrwt>
<rscale>  2 0.45996933E+03</rscale>
<asrwt>0</asrwt>
<pdfrwt beam="1">  1       21 0.92682496E-01 0.45996933E+03</pdfrwt>
<pdfrwt beam="2">  1       21 0.12341905E-01 0.45996933E+03</pdfrwt>
<totfact> 0.50151093E+04</totfact>
</mgrwt>
</event>
<event>
 7    0  0.4737014E-002  0.4535281E+03  0.7546771E-02  0.1026675E+00
         21   -1    0    0  502  501  0.00000000000E+00  0.00000000000E+00  0.99676121321E+02  0.99676121321E+02  0.00000000000E+00 0.  1.
         21   -1    0    0  501  502 -0.00000000000E+00 -0.00000000000E+00 -0.51589028893E+03  0.51589028893E+03  0.00000000000E+00 0.  1.
      99926    2    1    2    0    0  0.00000000000E+00  0.71054273576E-14 -0.41621416761E+03  0.61556641025E+03  0.45352813817E+03 0.  0.
      99925    2    3    3    0    0 -0.44504744769E+02  0.28768772839E+02 -0.39584873679E+03  0.47819620435E+03  0.26299633617E+03 0.  0.
         25    1    4    4    0    0 -0.11791027939E+02  0.52335096131E+02 -0.18354294932E+03  0.22850276360E+03  0.12509000000E+03 0.  0.
         25    1    4    4    0    0 -0.32713716830E+02 -0.23566323292E+02 -0.21230578747E+03  0.24969344075E+03  0.12509000000E+03 0.  0.
         25    1    3    3    0    0  0.44504744769E+02 -0.28768772839E+02 -0.20365430825E+02  0.13737020590E+03  0.12509000000E+03 0.  0.
<mgrwt>
<rscale>  2 0.45352814E+03</rscale>
<asrwt>0</asrwt>
<pdfrwt beam="1">  1       21 0.14658253E-01 0.45352814E+03</pdfrwt>
<pdfrwt beam="2">  1       21 0.75866219E-01 0.45352814E+03</pdfrwt>
<totfact> 0.58406166E+04</totfact>
</mgrwt>
</event>
<event>
 7    0  0.4737014E-002  0.4395087E+03  0.7546771E-02  0.1030898E+00
         21   -1    0    0  502  501  0.00000000000E+00  0.00000000000E+00  0.48628580754E+03  0.48628580754E+03  0.00000000000E+00 0. -1.
         21   -1    0    0  501  502 -0.00000000000E+00 -0.00000000000E+00 -0.99307800287E+02  0.99307800287E+02  0.00000000000E+00 0. -1.
      99926    2    1    2    0    0 -0.14210854715E-13 -0.26645352591E-14  0.38697800725E+03  0.58559360783E+03  0.43950869779E+03 0.  0.
      99925    2    3    3    0    0 -0.91679623145E+02  0.20785517882E+01  0.20111951019E+03  0.34351848992E+03  0.26295707228E+03 0.  0.
         25    1    3    3    0    0  0.91679623145E+02 -0.20785517882E+01  0.18585849707E+03  0.24207511791E+03  0.12509000000E+03 0.  0.
         25    1    4    4    0    0 -0.10197270746E+02 -0.16698599280E+02  0.74770654490E+02  0.14704076449E+03  0.12509000000E+03 0.  0.
         25    1    4    4    0    0 -0.81482352399E+02  0.18777151068E+02  0.12634885570E+03  0.19647772543E+03  0.12509000000E+03 0.  0.
<mgrwt>
<rscale>  2 0.43950870E+03</rscale>
<asrwt>0</asrwt>
<pdfrwt beam="1">  1       21 0.71512618E-01 0.43950870E+03</pdfrwt>
<pdfrwt beam="2">  1       21 0.14604088E-01 0.43950870E+03</pdfrwt>
<totfact> 0.67462540E+04</totfact>
</mgrwt>
</event>
<event>
 7    0  0.4737014E-002  0.4500912E+03  0.7546771E-02  0.1027695E+00
         21   -1    0    0  502  501  0.00000000000E+00  0.00000000000E+00  0.57604029453E+03  0.57604029453E+03  0.00000000000E+00 0. -1.
         21   -1    0    0  501  502 -0.00000000000E+00 -0.00000000000E+00 -0.87920085885E+02  0.87920085885E+02  0.00000000000E+00 0. -1.
      99926    2    1    2    0    0  0.00000000000E+00  0.00000000000E+00  0.48812020865E+03  0.66396038042E+03  0.45009115596E+03 0.  0.
      99925    2    3    3    0    0  0.38096179240E+02 -0.31474204091E+02  0.45105324130E+03  0.52444904552E+03  0.26297496167E+03 0.  0.
         25    1    4    4    0    0  0.11224533522E+02 -0.35421680720E+02  0.29528385702E+03  0.32283238675E+03  0.12509000000E+03 0.  0.
         25    1    3    3    0    0 -0.38096179240E+02  0.31474204091E+02  0.37066967346E+02  0.13951133489E+03  0.12509000000E+03 0.  0.
         25    1    4    4    0    0  0.26871645718E+02  0.39474766283E+01  0.15576938428E+03  0.20161665877E+03  0.12509000000E+03 0.  0.
<mgrwt>
<rscale>  2 0.45009116E+03</rscale>
<asrwt>0</asrwt>
<pdfrwt beam="1">  1       21 0.84711806E-01 0.45009116E+03</pdfrwt>
<pdfrwt beam="2">  1       21 0.12929425E-01 0.45009116E+03</pdfrwt>
<totfact> 0.57080752E+04</totfact>
</mgrwt>
</event>
<event>
 7    0  0.4737014E-002  0.4443949E+03  0.7546771E-02  0.1029407E+00
         21   -1    0    0  502  501  0.00000000000E+00  0.00000000000E+00  0.72099466374E+03  0.72099466374E+03  0.00000000000E+00 0. -1.
         21   -1    0    0  501  502 -0.00000000000E+00 -0.00000000000E+00 -0.68477201584E+02  0.68477201584E+02  0.00000000000E+00 0. -1.
      99926    2    1    2    0    0  0.00000000000E+00  0.00000000000E+00  0.65251746215E+03  0.78947186532E+03  0.44439485564E+03 0.  0.
      99925    2    3    3    0    0 -0.24299175996E+02  0.64979638703E+02  0.27975681147E+03  0.39020902683E+03  0.26303309232E+03 0.  0.
         25    1    4    4    0    0 -0.19845820661E+02 -0.82782927556E+01  0.13504733646E+03  0.18533126534E+03  0.12509000000E+03 0.  0.
         25    1    3    3    0    0  0.24299175996E+02 -0.64979638703E+02  0.37276065068E+03  0.39926283849E+03  0.12509000000E+03 0.  0.
         25    1    4    4    0    0 -0.44533553350E+01  0.73257931459E+02  0.14470947501E+03  0.20487776149E+03  0.12509000000E+03 0.  0.
<mgrwt>
<rscale>  2 0.44439486E+03</rscale>
<asrwt>0</asrwt>
<pdfrwt beam="1">  1       21 0.10602862E+00 0.44439486E+03</pdfrwt>
<pdfrwt beam="2">  1       21 0.10070177E-01 0.44439486E+03</pdfrwt>
<totfact> 0.52514840E+04</totfact>
</mgrwt>
</event>
<event>
 7    0  0.4737014E-002  0.4369683E+03  0.7546771E-02  0.1031681E+00
         21   -1    0    0  502  501  0.00000000000E+00  0.00000000000E+00  0.34402152752E+03  0.34402152752E+03  0.00000000000E+00 0.  1.
         21   -1    0    0  501  502 -0.00000000000E+00 -0.00000000000E+00 -0.13875682298E+03  0.13875682298E+03  0.00000000000E+00 0.  1.
      99926    2    1    2    0    0 -0.35527136788E-14 -0.88817841970E-15  0.20526470454E+03  0.48277835050E+03  0.43696834758E+03 0.  0.
      99925    2    3    3    0    0 -0.20594125007E+02 -0.75350932706E+01  0.23385510056E+03  0.35260226030E+03  0.26298146378E+03 0.  0.
         25    1    3    3    0    0  0.20594125007E+02  0.75350932706E+01 -0.28590396027E+02  0.13017609020E+03  0.12509000000E+03 0.  0.
         25    1    4    4    0    0 -0.18439714600E+02 -0.22879727590E+02  0.71455484585E+02  0.14702686621E+03  0.12509000000E+03 0.  0.
         25    1    4    4    0    0 -0.21544104074E+01  0.15344634320E+02  0.16239961598E+03  0.20557539409E+03  0.12509000000E+03 0.  0.
<mgrwt>
<rscale>  2 0.43696835E+03</rscale>
<asrwt>0</asrwt>
<pdfrwt beam="1">  1       21 0.50591401E-01 0.43696835E+03</pdfrwt>
<pdfrwt beam="2">  1       21 0.20405415E-01 0.43696835E+03</pdfrwt>
<totfact> 0.76935397E+04</totfact>
</mgrwt>
</event>
<event>
 7    0  0.4737014E-002  0.4593867E+03  0.7546771E-02  0.1024959E+00
         21   -1    0    0  502  501  0.00000000000E+00  0.00000000000E+00  0.80513021788E+02  0.80513021788E+02  0.00000000000E+00 0. -1.
         21   -1    0    0  501  502 -0.00000000000E+00 -0.00000000000E+00 -0.65528582331E+03  0.65528582331E+03  0.00000000000E+00 0. -1.
      99926    2    1    2    0    0  0.00000000000E+00  0.00000000000E+00 -0.57477280152E+03  0.73579884509E+03  0.45938672932E+03 0.  0.
      99925    2    3    3    0    0 -0.43575079550E+02  0.10432583355E+03 -0.40990511996E+03  0.49997787990E+03  0.26300761569E+03 0.  0.
         25    1    4    4    0    0 -0.26401945332E+02  0.44057334348E+02 -0.13266436949E+03  0.18943456511E+03  0.12509000000E+03 0.  0.
         25    1    3    3    0    0  0.43575079550E+02 -0.10432583355E+03 -0.16486768156E+03  0.23582096520E+03  0.12509000000E+03 0.  0.
         25    1    4    4    0    0 -0.17173134219E+02  0.60268499205E+02 -0.27724075047E+03  0.31054331479E+03  0.12509000000E+03 0.  0.
<mgrwt>
<rscale>  2 0.45938673E+03</rscale>
<asrwt>0</asrwt>
<pdfrwt beam="1">  1       21 0.11840150E-01 0.45938673E+03</pdfrwt>
<pdfrwt beam="2">  1       21 0.96365561E-01 0.45938673E+03</pdfrwt>
<totfact> 0.49280244E+04</totfact>
</mgrwt>
</event>
<event>
 7    0  0.4737014E-002  0.4618723E+03  0.7546771E-02  0.1024240E+00
         21   -1    0    0  502  501  0.00000000000E+00  0.00000000000E+00  0.25489504483E+03  0.25489504483E+03  0.00000000000E+00 0.  1.
         21   -1    0    0  501  502 -0.00000000000E+00 -0.00000000000E+00 -0.20922923722E+03  0.20922923722E+03  0.00000000000E+00 0.  1.
      99926    2    1    2    0    0 -0.17763568394E-14  0.00000000000E+00  0.45665807617E+02  0.46412428205E+03  0.46187225853E+03 0.  0.
      99925    2    3    3    0    0 -0.12159402268E+02 -0.83146811699E+02  0.11398593678E+03  0.29866615590E+03  0.26295899973E+03 0.  0.
         25    1    4    4    0    0 -0.93994319342E+01 -0.67703308884E+02  0.25922953384E+02  0.14488476444E+03  0.12509000000E+03 0.  0.
         25    1    3    3    0    0  0.12159402268E+02  0.83146811699E+02 -0.68320129162E+02  0.16545812615E+03  0.12509000000E+03 0.  0.
         25    1    4    4    0    0 -0.27599703342E+01 -0.15443502815E+02  0.88062983395E+02  0.15378139146E+03  0.12509000000E+03 0.  0.
<mgrwt>
<rscale>  2 0.46187226E+03</rscale>
<asrwt>0</asrwt>
<pdfrwt beam="1">  1       21 0.37484566E-01 0.46187226E+03</pdfrwt>
<pdfrwt beam="2">  1       21 0.30769005E-01 0.46187226E+03</pdfrwt>
<totfact> 0.64284695E+04</totfact>
</mgrwt>
</event>
<event>
 7    0  0.4737014E-002  0.4548972E+03  0.7546771E-02  0.1026272E+00
         21   -1    0    0  502  501  0.00000000000E+00  0.00000000000E+00  0.24993561725E+03  0.24993561725E+03  0.00000000000E+00 0.  1.
         21   -1    0    0  501  502 -0.00000000000E+00 -0.00000000000E+00 -0.20698481021E+03  0.20698481021E+03  0.00000000000E+00 0.  1.
      99926    2    1    2    0    0 -0.35527136788E-14  0.00000000000E+00  0.42950807040E+02  0.45692042746E+03  0.45489724687E+03 0.  0.
      99925    2    3    3    0    0  0.16552675135E+02  0.87287459109E+02 -0.45367838111E+02  0.27988714598E+03  0.26150618000E+03 0.  0.
         25    1    4    4    0    0 -0.24993038468E+02  0.60987516920E+02 -0.30659954983E+02  0.14467781493E+03  0.12509000000E+03 0.  0.
         25    1    4    4    0    0  0.41545713603E+02  0.26299942189E+02 -0.14707883128E+02  0.13520933105E+03  0.12509000000E+03 0.  0.
         25    1    3    3    0    0 -0.16552675135E+02 -0.87287459109E+02  0.88318645150E+02  0.17703328148E+03  0.12509000000E+03 0.  0.
<mgrwt>
<rscale>  2 0.45489725E+03</rscale>
<asrwt>0</asrwt>
<pdfrwt beam="1">  1       21 0.36755238E-01 0.45489725E+03</pdfrwt>
<pdfrwt beam="2">  1       21 0.30438943E-01 0.45489725E+03</pdfrwt>
<totfact> 0.68461449E+04</totfact>
</mgrwt>
</event>
<event>
 7    0  0.4737014E-002  0.4481770E+03  0.7546771E-02  0.1028267E+00
         21   -1    0    0  502  501  0.00000000000E+00  0.00000000000E+00  0.22344903836E+03  0.22344903836E+03  0.00000000000E+00 0.  1.
         21   -1    0    0  501  502 -0.00000000000E+00 -0.00000000000E+00 -0.22472979876E+03  0.22472979876E+03  0.00000000000E+00 0.  1.
      99926    2    1    2    0    0  0.00000000000E+00  0.35527136788E-14 -0.12807604051E+01  0.44817883712E+03  0.44817700710E+03 0.  0.
      99925    2    3    3    0    0 -0.55076993574E+02 -0.26767433863E+02  0.86461042888E+02  0.28356989787E+03  0.26303308595E+03 0.  0.
         25    1    4    4    0    0 -0.61840284464E+02 -0.35316939784E+02  0.37043113417E+02  0.14863111172E+03  0.12509000000E+03 0.  0.
         25    1    4    4    0    0  0.67632908899E+01  0.85495059209E+01  0.49417929471E+02  0.13493878615E+03  0.12509000000E+03 0.  0.
         25    1    3    3    0    0  0.55076993574E+02  0.26767433863E+02 -0.87741803293E+02  0.16460893925E+03  0.12509000000E+03 0.  0.
<mgrwt>
<rscale>  2 0.44817701E+03</rscale>
<asrwt>0</asrwt>
<pdfrwt beam="1">  1       21 0.32860153E-01 0.44817701E+03</pdfrwt>
<pdfrwt beam="2">  1       21 0.33048500E-01 0.44817701E+03</pdfrwt>
<totfact> 0.72939108E+04</totfact>
</mgrwt>
</event>
<event>
 7    0  0.4737014E-002  0.4572031E+03  0.7546771E-02  0.1025596E+00
         21   -1    0    0  502  501  0.00000000000E+00  0.00000000000E+00  0.12943683758E+03  0.12943683758E+03  0.00000000000E+00 0. -1.
         21   -1    0    0  501  502 -0.00000000000E+00 -0.00000000000E+00 -0.40373879560E+03  0.40373879560E+03  0.00000000000E+00 0. -1.
      99926    2    1    2    0    0  0.00000000000E+00 -0.14210854715E-13 -0.27430195802E+03  0.53317563318E+03  0.45720311859E+03 0.  0.
      99925    2    3    3    0    0 -0.82065201620E+01 -0.11262361651E+03 -0.19893969492E+03  0.34857226169E+03  0.26300987326E+03 0.  0.
         25    1    3    3    0    0  0.82065201620E+01  0.11262361651E+03 -0.75362263095E+02  0.18460337149E+03  0.12509000000E+03 0.  0.
         25    1    4    4    0    0  0.10537712514E+01 -0.68577613796E+02 -0.14974397291E+03  0.20682061085E+03  0.12509000000E+03 0.  0.
         25    1    4    4    0    0 -0.92602914134E+01 -0.44046002711E+02 -0.49195722009E+02  0.14175165084E+03  0.12509000000E+03 0.  0.
<mgrwt>
<rscale>  2 0.45720312E+03</rscale>
<asrwt>0</asrwt>
<pdfrwt beam="1">  1       21 0.19034829E-01 0.45720312E+03</pdfrwt>
<pdfrwt beam="2">  1       21 0.59373352E-01 0.45720312E+03</pdfrwt>
<totfact> 0.61904056E+04</totfact>
</mgrwt>
</event>
<event>
 7    0  0.4737014E-002  0.4580429E+03  0.7546771E-02  0.1025350E+00
         21   -1    0    0  502  501  0.00000000000E+00  0.00000000000E+00  0.36207738521E+03  0.36207738521E+03  0.00000000000E+00 0.  1.
         21   -1    0    0  501  502 -0.00000000000E+00 -0.00000000000E+00 -0.14486079303E+03  0.14486079303E+03  0.00000000000E+00 0.  1.
      99926    2    1    2    0    0  0.00000000000E+00  0.00000000000E+00  0.21721659218E+03  0.50693817824E+03  0.45804286769E+03 0.  0.
      99925    2    3    3    0    0 -0.11232875797E+03 -0.26840830134E+02  0.12397482124E+03  0.31282554089E+03  0.26296745560E+03 0.  0.
         25    1    3    3    0    0  0.11232875797E+03  0.26840830134E+02  0.93241770941E+02  0.19411263735E+03  0.12509000000E+03 0.  0.
         25    1    4    4    0    0 -0.52148473984E+02 -0.26638371585E+02  0.10331373738E+03  0.17248276033E+03  0.12509000000E+03 0.  0.
         25    1    4    4    0    0 -0.60180283991E+02 -0.20245854908E+00  0.20661083863E+02  0.14034278057E+03  0.12509000000E+03 0.  0.
<mgrwt>
<rscale>  2 0.45804287E+03</rscale>
<asrwt>0</asrwt>
<pdfrwt beam="1">  1       21 0.53246674E-01 0.45804287E+03</pdfrwt>
<pdfrwt beam="2">  1       21 0.21303058E-01 0.45804287E+03</pdfrwt>
<totfact> 0.63244589E+04</totfact>
</mgrwt>
</event>
<event>
 7    0  0.4737014E-002  0.4303127E+03  0.7546771E-02  0.1033761E+00
         21   -1    0    0  502  501  0.00000000000E+00  0.00000000000E+00  0.54767112909E+03  0.54767112909E+03  0.00000000000E+00 0. -1.
         21   -1    0    0  501  502 -0.00000000000E+00 -0.00000000000E+00 -0.84525629274E+02  0.84525629274E+02  0.00000000000E+00 0. -1.
      99926    2    1    2    0    0 -0.71054273576E-14 -0.88817841970E-15  0.46314549982E+03  0.63219675837E+03  0.43031266224E+03 0.  0.
      99925    2    3    3    0    0  0.50496651512E+02  0.40674279172E+01  0.19282661900E+03  0.33006059500E+03  0.26304264977E+03 0.  0.
         25    1    4    4    0    0  0.27049698848E+02 -0.19276556810E+02  0.53867419096E+02  0.14018729896E+03  0.12509000000E+03 0.  0.
         25    1    4    4    0    0  0.23446952665E+02  0.23343984728E+02  0.13895919990E+03  0.18987329604E+03  0.12509000000E+03 0.  0.
         25    1    3    3    0    0 -0.50496651512E+02 -0.40674279172E+01  0.27031888082E+03  0.30213616336E+03  0.12509000000E+03 0.  0.
<mgrwt>
<rscale>  2 0.43031266E+03</rscale>
<asrwt>0</asrwt>
<pdfrwt beam="1">  1       21 0.80539871E-01 0.43031266E+03</pdfrwt>
<pdfrwt beam="2">  1       21 0.12430240E-01 0.43031266E+03</pdfrwt>
<totfact> 0.69279540E+04</totfact>
</mgrwt>
</event>
<event>
 7    0  0.4737014E-002  0.4544227E+03  0.7546771E-02  0.1026411E+00
         21   -1    0    0  502  501  0.00000000000E+00  0.00000000000E+00  0.33936153713E+03  0.33936153713E+03  0.00000000000E+00 0. -1.
         21   -1    0    0  501  502 -0.00000000000E+00 -0.00000000000E+00 -0.15212387579E+03  0.15212387579E+03  0.00000000000E+00 0. -1.
      99926    2    1    2    0    0  0.00000000000E+00  0.14210854715E-13  0.18723766134E+03  0.49148541293E+03  0.45442267692E+03 0.  0.
      99925    2    3    3    0    0  0.60870439426E+01  0.90808487214E+02  0.18968922465E+03  0.33677034670E+03  0.26296203341E+03 0.  0.
         25    1    4    4    0    0  0.97479755504E+01  0.15601852024E+02  0.12251087048E+03  0.17605357792E+03  0.12509000000E+03 0.  0.
         25    1    3    3    0    0 -0.60870439426E+01 -0.90808487214E+02 -0.24515633128E+01  0.15471506622E+03  0.12509000000E+03 0.  0.
         25    1    4    4    0    0 -0.36609316078E+01  0.75206635191E+02  0.67178354171E+02  0.16071676878E+03  0.12509000000E+03 0.  0.
<mgrwt>
<rscale>  2 0.45442268E+03</rscale>
<asrwt>0</asrwt>
<pdfrwt beam="1">  1       21 0.49906108E-01 0.45442268E+03</pdfrwt>
<pdfrwt beam="2">  1       21 0.22371158E-01 0.45442268E+03</pdfrwt>
<totfact> 0.66175846E+04</totfact>
</mgrwt>
</event>
<event>
 7    0  0.4737014E-002  0.4603996E+03  0.7546771E-02  0.1024665E+00
         21   -1    0    0  502  501  0.00000000000E+00  0.00000000000E+00  0.19564850189E+03  0.19564850189E+03  0.00000000000E+00 0.  1.
         21   -1    0    0  501  502 -0.00000000000E+00 -0.00000000000E+00 -0.27085283367E+03  0.27085283367E+03  0.00000000000E+00 0.  1.
      99926    2    1    2    0    0 -0.14210854715E-13 -0.88817841970E-15 -0.75204331783E+02  0.46650133555E+03  0.46039961398E+03 0.  0.
      99925    2    3    3    0    0 -0.95886603273E+02  0.73200844895E+01  0.22366999640E+02  0.28098719286E+03  0.26306975416E+03 0.  0.
         25    1    3    3    0    0  0.95886603273E+02 -0.73200844895E+01 -0.97571331423E+02  0.18551414270E+03  0.12509000000E+03 0.  0.
         25    1    4    4    0    0 -0.11652122721E+02 -0.15921800047E+02  0.21173917587E+02  0.12839438682E+03  0.12509000000E+03 0.  0.
         25    1    4    4    0    0 -0.84234480552E+02  0.23241884537E+02  0.11930820537E+01  0.15259280604E+03  0.12509000000E+03 0.  0.
<mgrwt>
<rscale>  2 0.46039961E+03</rscale>
<asrwt>0</asrwt>
<pdfrwt beam="1">  1       21 0.28771839E-01 0.46039961E+03</pdfrwt>
<pdfrwt beam="2">  1       21 0.39831299E-01 0.46039961E+03</pdfrwt>
<totfact> 0.64869337E+04</totfact>
</mgrwt>
</event>
<event>
 7    0  0.4737014E-002  0.4510754E+03  0.7546771E-02  0.1027402E+00
         21   -1    0    0  502  501  0.00000000000E+00  0.00000000000E+00  0.10428868083E+03  0.10428868083E+03  0.00000000000E+00 0.  1.
         21   -1    0    0  501  502 -0.00000000000E+00 -0.00000000000E+00 -0.48775425665E+03  0.48775425665E+03  0.00000000000E+00 0.  1.
      99926    2    1    2    0    0 -0.17763568394E-14 -0.35527136788E-14 -0.38346557582E+03  0.59204293748E+03  0.45107537284E+03 0.  0.
      99925    2    3    3    0    0  0.13311870746E+02  0.31305592332E+02 -0.37870803240E+03  0.46232251375E+03  0.26299256054E+03 0.  0.
         25    1    4    4    0    0 -0.59608872947E+01  0.24055199077E+02 -0.25542620355E+03  0.28548947151E+03  0.12509000000E+03 0.  0.
         25    1    4    4    0    0  0.19272758041E+02  0.72503932551E+01 -0.12328182885E+03  0.17683304224E+03  0.12509000000E+03 0.  0.
         25    1    3    3    0    0 -0.13311870746E+02 -0.31305592332E+02 -0.47575434218E+01  0.12972042373E+03  0.12509000000E+03 0.  0.
<mgrwt>
<rscale>  2 0.45107537E+03</rscale>
<asrwt>0</asrwt>
<pdfrwt beam="1">  1       21 0.15336571E-01 0.45107537E+03</pdfrwt>
<pdfrwt beam="2">  1       21 0.71728567E-01 0.45107537E+03</pdfrwt>
<totfact> 0.61042105E+04</totfact>
</mgrwt>
</event>
<event>
 7    0  0.4737014E-002  0.4409243E+03  0.7546771E-02  0.1030464E+00
         21   -1    0    0  502  501  0.00000000000E+00  0.00000000000E+00  0.29733711874E+03  0.29733711874E+03  0.00000000000E+00 0.  1.
         21   -1    0    0  501  502 -0.00000000000E+00 -0.00000000000E+00 -0.16346281918E+03  0.16346281918E+03  0.00000000000E+00 0.  1.
      99926    2    1    2    0    0  0.00000000000E+00  0.00000000000E+00  0.13387429956E+03  0.46079993791E+03  0.44092431856E+03 0.  0.
      99925    2    3    3    0    0  0.26663394841E+02  0.59836423294E+02  0.72235453140E+01  0.27111795188E+03  0.26298560806E+03 0.  0.
         25    1    4    4    0    0  0.23499031972E+02  0.48513566245E+02 -0.31189557363E+02  0.13973570482E+03  0.12509000000E+03 0.  0.
         25    1    3    3    0    0 -0.26663394841E+02 -0.59836423294E+02  0.12665075424E+03  0.18968198604E+03  0.12509000000E+03 0.  0.
         25    1    4    4    0    0  0.31643628690E+01  0.11322857049E+02  0.38413102677E+02  0.13138224706E+03  0.12509000000E+03 0.  0.
<mgrwt>
<rscale>  2 0.44092432E+03</rscale>
<asrwt>0</asrwt>
<pdfrwt beam="1">  1       21 0.43726047E-01 0.44092432E+03</pdfrwt>
<pdfrwt beam="2">  1       21 0.24038650E-01 0.44092432E+03</pdfrwt>
<totfact> 0.76296798E+04</totfact>
</mgrwt>
</event>
<event>
 7    0  0.4737014E-002  0.4537308E+03  0.7546771E-02  0.1026615E+00
         21   -1    0    0  502  501  0.00000000000E+00  0.00000000000E+00  0.59048548234E+02  0.59048548234E+02  0.00000000000E+00 0.  1.
         21   -1    0    0  501  502 -0.00000000000E+00 -0.00000000000E+00 -0.87162037498E+03  0.87162037498E+03  0.00000000000E+00 0.  1.
      99926    2    1    2    0    0  0.00000000000E+00 -0.88817841970E-15 -0.81257182675E+03  0.93066892322E+03  0.45373083542E+03 0.  0.
      99925    2    3    3    0    0 -0.17970439047E+02 -0.57880177489E+01 -0.73835772388E+03  0.78400032060E+03  0.26292192084E+03 0.  0.
         25    1    4    4    0    0 -0.42466814212E+01  0.37225192182E+02 -0.35991668682E+03  0.38287240536E+03  0.12509000000E+03 0.  0.
         25    1    3    3    0    0  0.17970439047E+02  0.57880177489E+01 -0.74214102870E+02  0.14666860262E+03  0.12509000000E+03 0.  0.
         25    1    4    4    0    0 -0.13723757625E+02 -0.43013209931E+02 -0.37844103706E+03  0.40112791524E+03  0.12509000000E+03 0.  0.
<mgrwt>
<rscale>  2 0.45373084E+03</rscale>
<asrwt>0</asrwt>
<pdfrwt beam="1">  1       21 0.86836098E-02 0.45373084E+03</pdfrwt>
<pdfrwt beam="2">  1       21 0.12817947E+00 0.45373084E+03</pdfrwt>
<totfact> 0.42352534E+04</totfact>
</mgrwt>
</event>
<event>
 7    0  0.4737014E-002  0.4546565E+03  0.7546771E-02  0.1026342E+00
         21   -1    0    0  502  501  0.00000000000E+00  0.00000000000E+00  0.19881630801E+03  0.19881630801E+03  0.00000000000E+00 0.  1.
         21   -1    0    0  501  502 -0.00000000000E+00 -0.00000000000E+00 -0.25992899117E+03  0.25992899117E+03  0.00000000000E+00 0.  1.
      99926    2    1    2    0    0 -0.35527136788E-14  0.35527136788E-14 -0.61112683156E+02  0.45874529918E+03  0.45465645214E+03 0.  0.
      99925    2    3    3    0    0 -0.27557122882E+02 -0.23375562009E+02 -0.14628329608E+03  0.30315817463E+03  0.26305943094E+03 0.  0.
         25    1    4    4    0    0 -0.18479655595E+02  0.13131067666E+02 -0.10862288067E+03  0.16721351893E+03  0.12509000000E+03 0.  0.
         25    1    4    4    0    0 -0.90774672873E+01 -0.36506629675E+02 -0.37660415416E+02  0.13594465569E+03  0.12509000000E+03 0.  0.
         25    1    3    3    0    0  0.27557122882E+02  0.23375562009E+02  0.85170612926E+02  0.15558712455E+03  0.12509000000E+03 0.  0.
<mgrwt>
<rscale>  2 0.45465645E+03</rscale>
<asrwt>0</asrwt>
<pdfrwt beam="1">  1       21 0.29237692E-01 0.45465645E+03</pdfrwt>
<pdfrwt beam="2">  1       21 0.38224852E-01 0.45465645E+03</pdfrwt>
<totfact> 0.68459470E+04</totfact>
</mgrwt>
</event>
<event>
 7    0  0.4737014E-002  0.4582962E+03  0.7546771E-02  0.1025277E+00
         21   -1    0    0  502  501  0.00000000000E+00  0.00000000000E+00  0.19387086594E+03  0.19387086594E+03  0.00000000000E+00 0.  1.
         21   -1    0    0  501  502 -0.00000000000E+00 -0.00000000000E+00 -0.27084441847E+03  0.27084441847E+03  0.00000000000E+00 0.  1.
      99926    2    1    2    0    0  0.00000000000E+00  0.00000000000E+00 -0.76973552538E+02  0.46471528441E+03  0.45829615727E+03 0.  0.
      99925    2    3    3    0    0  0.64806797993E+02  0.43897347537E+02 -0.13535904402E+03  0.30602290305E+03  0.26306092109E+03 0.  0.
         25    1    4    4    0    0  0.57151393212E+00  0.47466335375E+02 -0.66392283691E+02  0.14936138409E+03  0.12509000000E+03 0.  0.
         25    1    3    3    0    0 -0.64806797993E+02 -0.43897347537E+02  0.58385491483E+02  0.15869238136E+03  0.12509000000E+03 0.  0.
         25    1    4    4    0    0  0.64235284061E+02 -0.35689878381E+01 -0.68966760330E+02  0.15666151896E+03  0.12509000000E+03 0.  0.
<mgrwt>
<rscale>  2 0.45829616E+03</rscale>
<asrwt>0</asrwt>
<pdfrwt beam="1">  1       21 0.28510422E-01 0.45829616E+03</pdfrwt>
<pdfrwt beam="2">  1       21 0.39830061E-01 0.45829616E+03</pdfrwt>
<totfact> 0.66082662E+04</totfact>
</mgrwt>
</event>
<event>
 7    0  0.4737014E-002  0.4673110E+03  0.7546771E-02  0.1022682E+00
         21   -1    0    0  502  501  0.00000000000E+00  0.00000000000E+00  0.81933882264E+02  0.81933882264E+02  0.00000000000E+00 0.  1.
         21   -1    0    0  501  502 -0.00000000000E+00 -0.00000000000E+00 -0.66632869447E+03  0.66632869447E+03  0.00000000000E+00 0.  1.
      99926    2    1    2    0    0  0.00000000000E+00  0.00000000000E+00 -0.58439481221E+03  0.74826257674E+03  0.46731101764E+03 0.  0.
      99925    2    3    3    0    0  0.43372118086E+02 -0.64123094234E+02 -0.20771925744E+03  0.34388046350E+03  0.26289460137E+03 0.  0.
         25    1    3    3    0    0 -0.43372118086E+02  0.64123094234E+02 -0.37667555477E+03  0.40438211323E+03  0.12509000000E+03 0.  0.
         25    1    4    4    0    0  0.18678611512E+02 -0.49702296837E+02 -0.60970147645E+02  0.14894319670E+03  0.12509000000E+03 0.  0.
         25    1    4    4    0    0  0.24693506574E+02 -0.14420797396E+02 -0.14674910979E+03  0.19493726681E+03  0.12509000000E+03 0.  0.
<mgrwt>
<rscale>  2 0.46731102E+03</rscale>
<asrwt>0</asrwt>
<pdfrwt beam="1">  1       21 0.12049100E-01 0.46731102E+03</pdfrwt>
<pdfrwt beam="2">  1       21 0.97989517E-01 0.46731102E+03</pdfrwt>
<totfact> 0.45767587E+04</totfact>
</mgrwt>
</event>
<event>
 7    0  0.4737014E-002  0.4631455E+03  0.7546771E-02  0.1023873E+00
         21   -1    0    0  502  501  0.00000000000E+00  0.00000000000E+00  0.86340582954E+02  0.86340582954E+02  0.00000000000E+00 0. -1.
         21   -1    0    0  501  502 -0.00000000000E+00 -0.00000000000E+00 -0.62109764321E+03  0.62109764321E+03  0.00000000000E+00 0. -1.
      99926    2    1    2    0    0 -0.14210854715E-13  0.14210854715E-13 -0.53475706026E+03  0.70743822617E+03  0.46314547428E+03 0.  0.
      99925    2    3    3    0    0  0.89086749532E+02 -0.76100184038E+02 -0.29003961288E+03  0.40867105242E+03  0.26298548458E+03 0.  0.
         25    1    4    4    0    0  0.81715812886E+02 -0.33858818136E+02 -0.12887791450E+03  0.20020219426E+03  0.12509000000E+03 0.  0.
         25    1    4    4    0    0  0.73709366456E+01 -0.42241365902E+02 -0.16116169838E+03  0.20846885817E+03  0.12509000000E+03 0.  0.
         25    1    3    3    0    0 -0.89086749532E+02  0.76100184038E+02 -0.24471744738E+03  0.29876717374E+03  0.12509000000E+03 0.  0.
<mgrwt>
<rscale>  2 0.46314547E+03</rscale>
<asrwt>0</asrwt>
<pdfrwt beam="1">  1       21 0.12697144E-01 0.46314547E+03</pdfrwt>
<pdfrwt beam="2">  1       21 0.91337891E-01 0.46314547E+03</pdfrwt>
<totfact> 0.49266624E+04</totfact>
</mgrwt>
</event>
<event>
 7    0  0.4737014E-002  0.4482403E+03  0.7546771E-02  0.1028248E+00
         21   -1    0    0  502  501  0.00000000000E+00  0.00000000000E+00  0.11244120132E+03  0.11244120132E+03  0.00000000000E+00 0. -1.
         21   -1    0    0  501  502 -0.00000000000E+00 -0.00000000000E+00 -0.44672093338E+03  0.44672093338E+03  0.00000000000E+00 0. -1.
      99926    2    1    2    0    0  0.00000000000E+00  0.00000000000E+00 -0.33427973207E+03  0.55916213470E+03  0.44824028558E+03 0.  0.
      99925    2    3    3    0    0 -0.37612171829E+02  0.99775883126E+02 -0.21390022612E+03  0.35542545201E+03  0.26306661300E+03 0.  0.
         25    1    4    4    0    0 -0.17345042392E+02  0.84398752087E+02 -0.14668936182E+03  0.21116173143E+03  0.12509000000E+03 0.  0.
         25    1    4    4    0    0 -0.20267129437E+02  0.15377131039E+02 -0.67210864299E+02  0.14426372058E+03  0.12509000000E+03 0.  0.
         25    1    3    3    0    0  0.37612171829E+02 -0.99775883126E+02 -0.12037950595E+03  0.20373668269E+03  0.12509000000E+03 0.  0.
<mgrwt>
<rscale>  2 0.44824029E+03</rscale>
<asrwt>0</asrwt>
<pdfrwt beam="1">  1       21 0.16535471E-01 0.44824029E+03</pdfrwt>
<pdfrwt beam="2">  1       21 0.65694254E-01 0.44824029E+03</pdfrwt>
<totfact> 0.64653322E+04</totfact>
</mgrwt>
</event>
<event>
 7    0  0.4737014E-002  0.4619340E+03  0.7546771E-02  0.1024222E+00
         21   -1    0    0  502  501  0.00000000000E+00  0.00000000000E+00  0.59464720842E+03  0.59464720842E+03  0.00000000000E+00 0.  1.
         21   -1    0    0  501  502 -0.00000000000E+00 -0.00000000000E+00 -0.89709929636E+02  0.89709929636E+02  0.00000000000E+00 0.  1.
      99926    2    1    2    0    0  0.00000000000E+00  0.14210854715E-13  0.50493727878E+03  0.68435713805E+03  0.46193401791E+03 0.  0.
      99925    2    3    3    0    0  0.27982806510E+01  0.11563624750E+03  0.35990647716E+03  0.46061395128E+03  0.26315958599E+03 0.  0.
         25    1    3    3    0    0 -0.27982806510E+01 -0.11563624750E+03  0.14503080162E+03  0.22374318677E+03  0.12509000000E+03 0.  0.
         25    1    4    4    0    0 -0.77685800865E+01  0.73765232784E+02  0.12862063830E+03  0.19414540195E+03  0.12509000000E+03 0.  0.
         25    1    4    4    0    0  0.10566860737E+02  0.41871014714E+02  0.23128583886E+03  0.26646854932E+03  0.12509000000E+03 0.  0.
<mgrwt>
<rscale>  2 0.46193402E+03</rscale>
<asrwt>0</asrwt>
<pdfrwt beam="1">  1       21 0.87448117E-01 0.46193402E+03</pdfrwt>
<pdfrwt beam="2">  1       21 0.13192637E-01 0.46193402E+03</pdfrwt>
<totfact> 0.50921807E+04</totfact>
</mgrwt>
</event>
<event>
 7    0  0.4737014E-002  0.4652977E+03  0.7546771E-02  0.1023256E+00
         21   -1    0    0  502  501  0.00000000000E+00  0.00000000000E+00  0.83719128196E+02  0.83719128196E+02  0.00000000000E+00 0. -1.
         21   -1    0    0  501  502 -0.00000000000E+00 -0.00000000000E+00 -0.64651274963E+03  0.64651274963E+03  0.00000000000E+00 0. -1.
      99926    2    1    2    0    0  0.00000000000E+00  0.00000000000E+00 -0.56279362144E+03  0.73023187783E+03  0.46529768436E+03 0.  0.
      99925    2    3    3    0    0 -0.94983002260E+02 -0.77220922453E+02 -0.34235993355E+03  0.44876543144E+03  0.26304989409E+03 0.  0.
         25    1    4    4    0    0 -0.88631436716E+02 -0.29694877675E+02 -0.18668026782E+03  0.24338107533E+03  0.12509000000E+03 0.  0.
         25    1    4    4    0    0 -0.63515655440E+01 -0.47526044778E+02 -0.15567966572E+03  0.20538435611E+03  0.12509000000E+03 0.  0.
         25    1    3    3    0    0  0.94983002260E+02  0.77220922453E+02 -0.22043368789E+03  0.28146644639E+03  0.12509000000E+03 0.  0.
<mgrwt>
<rscale>  2 0.46529768E+03</rscale>
<asrwt>0</asrwt>
<pdfrwt beam="1">  1       21 0.12311636E-01 0.46529768E+03</pdfrwt>
<pdfrwt beam="2">  1       21 0.95075408E-01 0.46529768E+03</pdfrwt>
<totfact> 0.47340555E+04</totfact>
</mgrwt>
</event>
<event>
 7    0  0.4737014E-002  0.4447268E+03  0.7546771E-02  0.1029306E+00
         21   -1    0    0  502  501  0.00000000000E+00  0.00000000000E+00  0.42281024810E+02  0.42281024810E+02  0.00000000000E+00 0.  1.
         21   -1    0    0  501  502 -0.00000000000E+00 -0.00000000000E+00 -0.11694485949E+04  0.11694485949E+04  0.00000000000E+00 0.  1.
      99926    2    1    2    0    0  0.17763568394E-14  0.28865798640E-14 -0.11271675701E+04  0.12117296197E+04  0.44472681527E+03 0.  0.
      99925    2    3    3    0    0  0.11188018742E+02 -0.11473545646E+01 -0.43673562157E+03  0.50996735810E+03  0.26306313879E+03 0.  0.
         25    1    4    4    0    0  0.33278416340E+02  0.16782561733E+02 -0.17328478254E+03  0.21694292183E+03  0.12509000000E+03 0.  0.
         25    1    3    3    0    0 -0.11188018742E+02  0.11473545646E+01 -0.69043194852E+03  0.70176226161E+03  0.12509000000E+03 0.  0.
         25    1    4    4    0    0 -0.22090397597E+02 -0.17929916297E+02 -0.26345083903E+03  0.29302443627E+03  0.12509000000E+03 0.  0.
<mgrwt>
<rscale>  2 0.44472682E+03</rscale>
<asrwt>0</asrwt>
<pdfrwt beam="1">  1       21 0.62177968E-02 0.44472682E+03</pdfrwt>
<pdfrwt beam="2">  1       21 0.17197776E+00 0.44472682E+03</pdfrwt>
<totfact> 0.34462501E+04</totfact>
</mgrwt>
</event>
<event>
 7    0  0.4737014E-002  0.4499557E+03  0.7546771E-02  0.1027735E+00
         21   -1    0    0  502  501  0.00000000000E+00  0.00000000000E+00  0.77067575170E+03  0.77067575170E+03  0.00000000000E+00 0.  1.
         21   -1    0    0  501  502 -0.00000000000E+00 -0.00000000000E+00 -0.65676180537E+02  0.65676180537E+02  0.00000000000E+00 0.  1.
      99926    2    1    2    0    0  0.71054273576E-14  0.00000000000E+00  0.70499957116E+03  0.83635193223E+03  0.44995573029E+03 0.  0.
      99925    2    3    3    0    0  0.62175194022E+02  0.82138352842E+02  0.50822327262E+03  0.58143844980E+03  0.26299679145E+03 0.  0.
         25    1    4    4    0    0  0.29081466948E+02  0.24538153710E+02  0.32154091772E+03  0.34710794081E+03  0.12509000000E+03 0.  0.
         25    1    3    3    0    0 -0.62175194022E+02 -0.82138352842E+02  0.19677629854E+03  0.25491348243E+03  0.12509000000E+03 0.  0.
         25    1    4    4    0    0  0.33093727074E+02  0.57600199132E+02  0.18668235490E+03  0.23433050899E+03  0.12509000000E+03 0.  0.
<mgrwt>
<rscale>  2 0.44995573E+03</rscale>
<asrwt>0</asrwt>
<pdfrwt beam="1">  1       21 0.11333466E+00 0.44995573E+03</pdfrwt>
<pdfrwt beam="2">  1       21 0.96582623E-02 0.44995573E+03</pdfrwt>
<totfact> 0.47924886E+04</totfact>
</mgrwt>
</event>
<event>
 7    0  0.4737014E-002  0.4507696E+03  0.7546771E-02  0.1027493E+00
         21   -1    0    0  502  501  0.00000000000E+00  0.00000000000E+00  0.74117773043E+03  0.74117773043E+03  0.00000000000E+00 0. -1.
         21   -1    0    0  501  502 -0.00000000000E+00 -0.00000000000E+00 -0.68537281309E+02  0.68537281309E+02  0.00000000000E+00 0. -1.
      99926    2    1    2    0    0  0.00000000000E+00  0.35527136788E-14  0.67264044912E+03  0.80971501174E+03  0.45076959352E+03 0.  0.
      99925    2    3    3    0    0  0.75224519815E+02 -0.30797065197E+02  0.29405407022E+03  0.40279690942E+03  0.26300259774E+03 0.  0.
         25    1    4    4    0    0 -0.18186401989E+01 -0.15692139634E+02  0.11457087863E+03  0.17036298022E+03  0.12509000000E+03 0.  0.
         25    1    3    3    0    0 -0.75224519815E+02  0.30797065197E+02  0.37858637891E+03  0.40691810233E+03  0.12509000000E+03 0.  0.
         25    1    4    4    0    0  0.77043160014E+02 -0.15104925563E+02  0.17948319158E+03  0.23243392920E+03  0.12509000000E+03 0.  0.
<mgrwt>
<rscale>  2 0.45076959E+03</rscale>
<asrwt>0</asrwt>
<pdfrwt beam="1">  1       21 0.10899672E+00 0.45076959E+03</pdfrwt>
<pdfrwt beam="2">  1       21 0.10079012E-01 0.45076959E+03</pdfrwt>
<totfact> 0.48901793E+04</totfact>
</mgrwt>
</event>
<event>
 7    0  0.4737014E-002  0.4427058E+03  0.7546771E-02  0.1029920E+00
         21   -1    0    0  502  501  0.00000000000E+00  0.00000000000E+00  0.16457042012E+03  0.16457042012E+03  0.00000000000E+00 0.  1.
         21   -1    0    0  501  502 -0.00000000000E+00 -0.00000000000E+00 -0.29772728765E+03  0.29772728765E+03  0.00000000000E+00 0.  1.
      99926    2    1    2    0    0  0.00000000000E+00 -0.71054273576E-14 -0.13315686752E+03  0.46229770777E+03  0.44270579309E+03 0.  0.
      99925    2    3    3    0    0  0.48558815055E+02 -0.42044787206E+02 -0.30569946105E+01  0.27072733511E+03  0.26297950891E+03 0.  0.
         25    1    4    4    0    0  0.12617503512E+02 -0.21740801997E+01 -0.35766588674E+02  0.13073134660E+03  0.12509000000E+03 0.  0.
         25    1    4    4    0    0  0.35941311543E+02 -0.39870707006E+02  0.32709594063E+02  0.13999598850E+03  0.12509000000E+03 0.  0.
         25    1    3    3    0    0 -0.48558815055E+02  0.42044787206E+02 -0.13009987291E+03  0.19157037266E+03  0.12509000000E+03 0.  0.
<mgrwt>
<rscale>  2 0.44270579E+03</rscale>
<asrwt>0</asrwt>
<pdfrwt beam="1">  1       21 0.24201533E-01 0.44270579E+03</pdfrwt>
<pdfrwt beam="2">  1       21 0.43783424E-01 0.44270579E+03</pdfrwt>
<totfact> 0.75072316E+04</totfact>
</mgrwt>
</event>
<event>
 7    0  0.4737014E-002  0.4488900E+03  0.7546771E-02  0.1028054E+00
         21   -1    0    0  502  501  0.00000000000E+00  0.00000000000E+00  0.61842270275E+02  0.61842270275E+02  0.00000000000E+00 0.  1.
         21   -1    0    0  501  502 -0.00000000000E+00 -0.00000000000E+00 -0.81458128649E+03  0.81458128649E+03  0.00000000000E+00 0.  1.
      99926    2    1    2    0    0 -0.71054273576E-14  0.00000000000E+00 -0.75273901621E+03  0.87642355676E+03  0.44888999133E+03 0.  0.
      99925    2    3    3    0    0  0.61134823531E+02  0.88243450213E+02 -0.47668972424E+03  0.55490358405E+03  0.26298388020E+03 0.  0.
         25    1    4    4    0    0  0.50898080163E+02  0.32696597896E+02 -0.17495676394E+03  0.22342126002E+03  0.12509000000E+03 0.  0.
         25    1    4    4    0    0  0.10236743368E+02  0.55546852317E+02 -0.30173296030E+03  0.33148232404E+03  0.12509000000E+03 0.  0.
         25    1    3    3    0    0 -0.61134823531E+02 -0.88243450213E+02 -0.27604929197E+03  0.32151997271E+03  0.12509000000E+03 0.  0.
<mgrwt>
<rscale>  2 0.44888999E+03</rscale>
<asrwt>0</asrwt>
<pdfrwt beam="1">  1       21 0.90944525E-02 0.44888999E+03</pdfrwt>
<pdfrwt beam="2">  1       21 0.11979135E+00 0.44888999E+03</pdfrwt>
<totfact> 0.46452209E+04</totfact>
</mgrwt>
</event>
<event>
 7    0  0.4737014E-002  0.4665315E+03  0.7546771E-02  0.1022904E+00
         21   -1    0    0  502  501  0.00000000000E+00  0.00000000000E+00  0.61815759728E+03  0.61815759728E+03  0.00000000000E+00 0.  1.
         21   -1    0    0  501  502 -0.00000000000E+00 -0.00000000000E+00 -0.88024345821E+02  0.88024345821E+02  0.00000000000E+00 0.  1.
      99926    2    1    2    0    0  0.00000000000E+00 -0.35527136788E-14  0.53013325146E+03  0.70618194310E+03  0.46653153426E+03 0.  0.
      99925    2    3    3    0    0 -0.21143187894E+02  0.30159348309E+02  0.50893388378E+03  0.57407008907E+03  0.26303259954E+03 0.  0.
         25    1    4    4    0    0 -0.43968850784E+01 -0.22681127759E+02  0.27647121743E+03  0.30433141199E+03  0.12509000000E+03 0.  0.
         25    1    3    3    0    0  0.21143187894E+02 -0.30159348309E+02  0.21199367679E+02  0.13211185403E+03  0.12509000000E+03 0.  0.
         25    1    4    4    0    0 -0.16746302816E+02  0.52840476068E+02  0.23246266635E+03  0.26973867708E+03  0.12509000000E+03 0.  0.
<mgrwt>
<rscale>  2 0.46653153E+03</rscale>
<asrwt>0</asrwt>
<pdfrwt beam="1">  1       21 0.90905527E-01 0.46653153E+03</pdfrwt>
<pdfrwt beam="2">  1       21 0.12944757E-01 0.46653153E+03</pdfrwt>
<totfact> 0.48057051E+04</totfact>
</mgrwt>
</event>
<event>
 7    0  0.4737014E-002  0.4511434E+03  0.7546771E-02  0.1027382E+00
         21   -1    0    0  502  501  0.00000000000E+00  0.00000000000E+00  0.51529028946E+03  0.51529028946E+03  0.00000000000E+00 0.  1.
         21   -1    0    0  501  502 -0.00000000000E+00 -0.00000000000E+00 -0.98745501270E+02  0.98745501270E+02  0.00000000000E+00 0.  1.
      99926    2    1    2    0    0  0.00000000000E+00  0.00000000000E+00  0.41654478819E+03  0.61403579073E+03  0.45114342700E+03 0.  0.
      99925    2    3    3    0    0 -0.29966432703E+02  0.78395441634E+02  0.35984008597E+03  0.45308000888E+03  0.26220750297E+03 0.  0.
         25    1    4    4    0    0 -0.53235145220E+01  0.72862086856E+02  0.15870340807E+03  0.21487555315E+03  0.12509000000E+03 0.  0.
         25    1    4    4    0    0 -0.24642918181E+02  0.55333547780E+01  0.20113667790E+03  0.23820445572E+03  0.12509000000E+03 0.  0.
         25    1    3    3    0    0  0.29966432703E+02 -0.78395441634E+02  0.56704702217E+02  0.16095578185E+03  0.12509000000E+03 0.  0.
<mgrwt>
<rscale>  2 0.45114343E+03</rscale>
<asrwt>0</asrwt>
<pdfrwt beam="1">  1       21 0.75777982E-01 0.45114343E+03</pdfrwt>
<pdfrwt beam="2">  1       21 0.14521398E-01 0.45114343E+03</pdfrwt>
<totfact> 0.59617759E+04</totfact>
</mgrwt>
</event>
<event>
 7    0  0.4737014E-002  0.4566920E+03  0.7546771E-02  0.1025745E+00
         21   -1    0    0  502  501  0.00000000000E+00  0.00000000000E+00  0.53693976020E+03  0.53693976020E+03  0.00000000000E+00 0. -1.
         21   -1    0    0  501  502 -0.00000000000E+00 -0.00000000000E+00 -0.97109399845E+02  0.97109399845E+02  0.00000000000E+00 0. -1.
      99926    2    1    2    0    0  0.00000000000E+00  0.00000000000E+00  0.43983036035E+03  0.63404916004E+03  0.45669200941E+03 0.  0.
      99925    2    3    3    0    0 -0.38234533123E+02 -0.29812290909E+02  0.42073642122E+03  0.49853997650E+03  0.26300631136E+03 0.  0.
         25    1    4    4    0    0 -0.43562410203E+02 -0.47355875306E+02  0.23414573092E+03  0.27315196122E+03  0.12509000000E+03 0.  0.
         25    1    3    3    0    0  0.38234533123E+02  0.29812290909E+02  0.19093939135E+02  0.13550918354E+03  0.12509000000E+03 0.  0.
         25    1    4    4    0    0  0.53278770797E+01  0.17543584397E+02  0.18659069029E+03  0.22538801528E+03  0.12509000000E+03 0.  0.
<mgrwt>
<rscale>  2 0.45669201E+03</rscale>
<asrwt>0</asrwt>
<pdfrwt beam="1">  1       21 0.78961728E-01 0.45669201E+03</pdfrwt>
<pdfrwt beam="2">  1       21 0.14280794E-01 0.45669201E+03</pdfrwt>
<totfact> 0.55879865E+04</totfact>
</mgrwt>
</event>
<event>
 7    0  0.4737014E-002  0.4632069E+03  0.7546771E-02  0.1023855E+00
         21   -1    0    0  502  501  0.00000000000E+00  0.00000000000E+00  0.77610235365E+03  0.77610235365E+03  0.00000000000E+00 0.  1.
         21   -1    0    0  501  502 -0.00000000000E+00 -0.00000000000E+00 -0.69114784937E+02  0.69114784937E+02  0.00000000000E+00 0.  1.
      99926    2    1    2    0    0 -0.35527136788E-14  0.00000000000E+00  0.70698756871E+03  0.84521713858E+03  0.46320685341E+03 0.  0.
      99925    2    3    3    0    0  0.12552990484E+02  0.74157897306E+02  0.61376120341E+03  0.67202466014E+03  0.26316792684E+03 0.  0.
         25    1    3    3    0    0 -0.12552990484E+02 -0.74157897306E+02  0.93226365297E+02  0.17319247844E+03  0.12509000000E+03 0.  0.
         25    1    4    4    0    0  0.42844695676E+02  0.54422617480E+02  0.30071700650E+03  0.33298005247E+03  0.12509000000E+03 0.  0.
         25    1    4    4    0    0 -0.30291705192E+02  0.19735279826E+02  0.31304419691E+03  0.33904460767E+03  0.12509000000E+03 0.  0.
<mgrwt>
<rscale>  2 0.46320685E+03</rscale>
<asrwt>0</asrwt>
<pdfrwt beam="1">  1       21 0.11413269E+00 0.46320685E+03</pdfrwt>
<pdfrwt beam="2">  1       21 0.10163939E-01 0.46320685E+03</pdfrwt>
<totfact> 0.42829281E+04</totfact>
</mgrwt>
</event>
<event>
 7    0  0.4737014E-002  0.4718381E+03  0.7546771E-02  0.1021403E+00
         21   -1    0    0  502  501  0.00000000000E+00  0.00000000000E+00  0.27720535086E+03  0.27720535086E+03  0.00000000000E+00 0.  1.
         21   -1    0    0  501  502 -0.00000000000E+00 -0.00000000000E+00 -0.20078187221E+03  0.20078187221E+03  0.00000000000E+00 0.  1.
      99926    2    1    2    0    0  0.00000000000E+00  0.00000000000E+00  0.76423478649E+02  0.47798722307E+03  0.47183814739E+03 0.  0.
      99925    2    3    3    0    0 -0.62344327724E+02  0.18535810103E+02 -0.64819299176E+02  0.27841913483E+03  0.26284079143E+03 0.  0.
         25    1    4    4    0    0 -0.42132145854E+02  0.48387526874E+02 -0.34306808232E+02  0.14470983264E+03  0.12509000000E+03 0.  0.
         25    1    3    3    0    0  0.62344327724E+02 -0.18535810103E+02  0.14124277783E+03  0.19956808824E+03  0.12509000000E+03 0.  0.
         25    1    4    4    0    0 -0.20212181871E+02 -0.29851716771E+02 -0.30512490944E+02  0.13370930220E+03  0.12509000000E+03 0.  0.
<mgrwt>
<rscale>  2 0.47183815E+03</rscale>
<asrwt>0</asrwt>
<pdfrwt beam="1">  1       21 0.40765493E-01 0.47183815E+03</pdfrwt>
<pdfrwt beam="2">  1       21 0.29526746E-01 0.47183815E+03</pdfrwt>
<totfact> 0.58610004E+04</totfact>
</mgrwt>
</event>
<event>
 7    0  0.4737014E-002  0.4282793E+03  0.7546771E-02  0.1034405E+00
         21   -1    0    0  502  501  0.00000000000E+00  0.00000000000E+00  0.57672532708E+03  0.57672532708E+03  0.00000000000E+00 0.  1.
         21   -1    0    0  501  502 -0.00000000000E+00 -0.00000000000E+00 -0.79510639726E+02  0.79510639726E+02  0.00000000000E+00 0.  1.
      99926    2    1    2    0    0  0.00000000000E+00 -0.35527136788E-14  0.49721468736E+03  0.65623596681E+03  0.42827934670E+03 0.  0.
      99925    2    3    3    0    0  0.56805573831E+02  0.18003004770E+02  0.41620896353E+03  0.49573544721E+03  0.26262663783E+03 0.  0.
         25    1    4    4    0    0  0.21131672205E+02  0.32246908035E+02  0.26641900800E+03  0.29683835091E+03  0.12509000000E+03 0.  0.
         25    1    3    3    0    0 -0.56805573831E+02 -0.18003004770E+02  0.81005723823E+02  0.16050051960E+03  0.12509000000E+03 0.  0.
         25    1    4    4    0    0  0.35673901625E+02 -0.14243903265E+02  0.14978995553E+03  0.19889709630E+03  0.12509000000E+03 0.  0.
<mgrwt>
<rscale>  2 0.42827935E+03</rscale>
<asrwt>0</asrwt>
<pdfrwt beam="1">  1       21 0.84812546E-01 0.42827935E+03</pdfrwt>
<pdfrwt beam="2">  1       21 0.11692741E-01 0.42827935E+03</pdfrwt>
<totfact> 0.68709500E+04</totfact>
</mgrwt>
</event>
<event>
 7    0  0.4737014E-002  0.4553394E+03  0.7546771E-02  0.1026142E+00
         21   -1    0    0  502  501  0.00000000000E+00  0.00000000000E+00  0.98693467870E+03  0.98693467870E+03  0.00000000000E+00 0.  1.
         21   -1    0    0  501  502 -0.00000000000E+00 -0.00000000000E+00 -0.52519671120E+02  0.52519671120E+02  0.00000000000E+00 0.  1.
      99926    2    1    2    0    0  0.00000000000E+00  0.14210854715E-13  0.93441500758E+03  0.10394543498E+04  0.45533936681E+03 0.  0.
      99925    2    3    3    0    0  0.39383021286E+02 -0.10021166846E+03  0.66874188499E+03  0.72668747653E+03  0.26318354611E+03 0.  0.
         25    1    3    3    0    0 -0.39383021286E+02  0.10021166846E+03  0.26567312259E+03  0.31276687330E+03  0.12509000000E+03 0.  0.
         25    1    4    4    0    0  0.29946651616E+02 -0.60769412755E+02  0.44475732369E+03  0.46695428956E+03  0.12509000000E+03 0.  0.
         25    1    4    4    0    0  0.94363696705E+01 -0.39442255709E+02  0.22398456130E+03  0.25973318696E+03  0.12509000000E+03 0.  0.
<mgrwt>
<rscale>  2 0.45533937E+03</rscale>
<asrwt>0</asrwt>
<pdfrwt beam="1">  1       21 0.14513744E+00 0.45533937E+03</pdfrwt>
<pdfrwt beam="2">  1       21 0.77234817E-02 0.45533937E+03</pdfrwt>
<totfact> 0.37567123E+04</totfact>
</mgrwt>
</event>
<event>
 7    0  0.4737014E-002  0.4356517E+03  0.7546771E-02  0.1032089E+00
         21   -1    0    0  502  501  0.00000000000E+00  0.00000000000E+00  0.93753709556E+02  0.93753709556E+02  0.00000000000E+00 0.  1.
         21   -1    0    0  501  502 -0.00000000000E+00 -0.00000000000E+00 -0.50609312162E+03  0.50609312162E+03  0.00000000000E+00 0.  1.
      99926    2    1    2    0    0 -0.35527136788E-14  0.00000000000E+00 -0.41233941206E+03  0.59984683117E+03  0.43565173032E+03 0.  0.
      99925    2    3    3    0    0 -0.23462150922E+02  0.66753213233E+02 -0.17942584830E+03  0.32616325423E+03  0.26302541582E+03 0.  0.
         25    1    4    4    0    0  0.90480673570E+01  0.21104004706E+02 -0.12606390920E+03  0.17907223079E+03  0.12509000000E+03 0.  0.
         25    1    4    4    0    0 -0.32510218279E+02  0.45649208527E+02 -0.53361939093E+02  0.14709102344E+03  0.12509000000E+03 0.  0.
         25    1    3    3    0    0  0.23462150922E+02 -0.66753213233E+02 -0.23291356377E+03  0.27368357694E+03  0.12509000000E+03 0.  0.
<mgrwt>
<rscale>  2 0.43565173E+03</rscale>
<asrwt>0</asrwt>
<pdfrwt beam="1">  1       21 0.13787310E-01 0.43565173E+03</pdfrwt>
<pdfrwt beam="2">  1       21 0.74425459E-01 0.43565173E+03</pdfrwt>
<totfact> 0.68585846E+04</totfact>
</mgrwt>
</event>
<event>
 7    0  0.4737014E-002  0.4165249E+03  0.7546771E-02  0.1038203E+00
         21   -1    0    0  502  501  0.00000000000E+00  0.00000000000E+00  0.82633218082E+02  0.82633218082E+02  0.00000000000E+00 0. -1.
         21   -1    0    0  501  502 -0.00000000000E+00 -0.00000000000E+00 -0.52488871485E+03  0.52488871485E+03  0.00000000000E+00 0. -1.
      99926    2    1    2    0    0  0.00000000000E+00  0.00000000000E+00 -0.44225549677E+03  0.60752193294E+03  0.41652487870E+03 0.  0.
      99925    2    3    3    0    0 -0.64984490835E+02  0.12713777297E+02 -0.33006729071E+03  0.42691649043E+03  0.26254266172E+03 0.  0.
         25    1    4    4    0    0 -0.63394927005E+02  0.15680357580E+02 -0.13584436778E+03  0.19587238381E+03  0.12509000000E+03 0.  0.
         25    1    3    3    0    0  0.64984490835E+02 -0.12713777297E+02 -0.11218820607E+03  0.18060544251E+03  0.12509000000E+03 0.  0.
         25    1    4    4    0    0 -0.15895638304E+01 -0.29665802827E+01 -0.19422292293E+03  0.23104410662E+03  0.12509000000E+03 0.  0.
<mgrwt>
<rscale>  2 0.41652488E+03</rscale>
<asrwt>0</asrwt>
<pdfrwt beam="1">  1       21 0.12151944E-01 0.41652488E+03</pdfrwt>
<pdfrwt beam="2">  1       21 0.77189516E-01 0.41652488E+03</pdfrwt>
<totfact> 0.79849226E+04</totfact>
</mgrwt>
</event>
<event>
 7    0  0.4737014E-002  0.4664859E+03  0.7546771E-02  0.1022917E+00
         21   -1    0    0  502  501  0.00000000000E+00  0.00000000000E+00  0.23141106468E+02  0.23141106468E+02  0.00000000000E+00 0.  1.
         21   -1    0    0  501  502 -0.00000000000E+00 -0.00000000000E+00 -0.23508929247E+04  0.23508929247E+04  0.00000000000E+00 0.  1.
      99926    2    1    2    0    0  0.00000000000E+00  0.00000000000E+00 -0.23277518182E+04  0.23740340311E+04  0.46648585601E+03 0.  0.
      99925    2    3    3    0    0  0.51123698443E+02  0.82610604902E+02 -0.10639785127E+04  0.11003744924E+04  0.26331654648E+03 0.  0.
         25    1    3    3    0    0 -0.51123698443E+02 -0.82610604902E+02 -0.12637733055E+04  0.12736595387E+04  0.12509000000E+03 0.  0.
         25    1    4    4    0    0 -0.86973215141E+01  0.63950264560E+02 -0.53476489497E+03  0.55297945778E+03  0.12509000000E+03 0.  0.
         25    1    4    4    0    0  0.59821019957E+02  0.18660340342E+02 -0.52921361769E+03  0.54739503467E+03  0.12509000000E+03 0.  0.
<mgrwt>
<rscale>  2 0.46648586E+03</rscale>
<asrwt>0</asrwt>
<pdfrwt beam="1">  1       21 0.34031037E-02 0.46648586E+03</pdfrwt>
<pdfrwt beam="2">  1       21 0.34571957E+00 0.46648586E+03</pdfrwt>
<totfact> 0.77891778E+03</totfact>
</mgrwt>
</event>
<event>
 7    0  0.4737014E-002  0.4561677E+03  0.7546771E-02  0.1025899E+00
         21   -1    0    0  502  501  0.00000000000E+00  0.00000000000E+00  0.34043508956E+03  0.34043508956E+03  0.00000000000E+00 0. -1.
         21   -1    0    0  501  502 -0.00000000000E+00 -0.00000000000E+00 -0.15281106724E+03  0.15281106724E+03  0.00000000000E+00 0. -1.
      99926    2    1    2    0    0  0.00000000000E+00  0.00000000000E+00  0.18762402232E+03  0.49324615680E+03  0.45616772951E+03 0.  0.
      99925    2    3    3    0    0 -0.91545432470E+02  0.52279845941E+02  0.70239681521E+02  0.29189983808E+03  0.26297937963E+03 0.  0.
         25    1    4    4    0    0 -0.83446027402E+02  0.95000027386E+01  0.31855398998E+02  0.15399923405E+03  0.12509000000E+03 0.  0.
         25    1    4    4    0    0 -0.80994050676E+01  0.42779843203E+02  0.38384282523E+02  0.13790060403E+03  0.12509000000E+03 0.  0.
         25    1    3    3    0    0  0.91545432470E+02 -0.52279845941E+02  0.11738434080E+03  0.20134631872E+03  0.12509000000E+03 0.  0.
<mgrwt>
<rscale>  2 0.45616773E+03</rscale>
<asrwt>0</asrwt>
<pdfrwt beam="1">  1       21 0.50063984E-01 0.45616773E+03</pdfrwt>
<pdfrwt beam="2">  1       21 0.22472216E-01 0.45616773E+03</pdfrwt>
<totfact> 0.65141811E+04</totfact>
</mgrwt>
</event>
<event>
 7    0  0.4737014E-002  0.4545654E+03  0.7546771E-02  0.1026369E+00
         21   -1    0    0  502  501  0.00000000000E+00  0.00000000000E+00  0.83171433797E+03  0.83171433797E+03  0.00000000000E+00 0.  1.
         21   -1    0    0  501  502 -0.00000000000E+00 -0.00000000000E+00 -0.62109566387E+02  0.62109566387E+02  0.00000000000E+00 0.  1.
      99926    2    1    2    0    0  0.00000000000E+00 -0.71054273576E-14  0.76960477158E+03  0.89382390435E+03  0.45456536115E+03 0.  0.
      99925    2    3    3    0    0  0.89291564248E+02  0.52783296309E+02  0.39171700967E+03  0.48247766514E+03  0.26188436738E+03 0.  0.
         25    1    3    3    0    0 -0.89291564248E+02 -0.52783296309E+02  0.37788776191E+03  0.41134623921E+03  0.12509000000E+03 0.  0.
         25    1    4    4    0    0  0.31577618924E+02  0.56300688567E+02  0.16216049301E+03  0.21473343275E+03  0.12509000000E+03 0.  0.
         25    1    4    4    0    0  0.57713945324E+02 -0.35173922573E+01  0.22955651666E+03  0.26774423239E+03  0.12509000000E+03 0.  0.
<mgrwt>
<rscale>  2 0.45456536E+03</rscale>
<asrwt>0</asrwt>
<pdfrwt beam="1">  1       21 0.12231093E+00 0.45456536E+03</pdfrwt>
<pdfrwt beam="2">  1       21 0.91337602E-02 0.45456536E+03</pdfrwt>
<totfact> 0.43650160E+04</totfact>
</mgrwt>
</event>
<event>
 7    0  0.4737014E-002  0.4658308E+03  0.7546771E-02  0.1023104E+00
         21   -1    0    0  502  501  0.00000000000E+00  0.00000000000E+00  0.12318211216E+04  0.12318211216E+04  0.00000000000E+00 0. -1.
         21   -1    0    0  501  502 -0.00000000000E+00 -0.00000000000E+00 -0.44040155602E+02  0.44040155602E+02  0.00000000000E+00 0. -1.
      99926    2    1    2    0    0 -0.14210854715E-13  0.14210854715E-13  0.11877809660E+04  0.12758612772E+04  0.46583084428E+03 0.  0.
      99925    2    3    3    0    0  0.85657391549E+02 -0.73310762850E+02  0.60524517770E+03  0.66947269764E+03  0.26298348062E+03 0.  0.
         25    1    4    4    0    0  0.17399496689E+02 -0.54038793445E+02  0.35800874759E+03  0.38345887020E+03  0.12509000000E+03 0.  0.
         25    1    4    4    0    0  0.68257894860E+02 -0.19271969405E+02  0.24723643011E+03  0.28601382745E+03  0.12509000000E+03 0.  0.
         25    1    3    3    0    0 -0.85657391549E+02  0.73310762850E+02  0.58253578832E+03  0.60638857959E+03  0.12509000000E+03 0.  0.
<mgrwt>
<rscale>  2 0.46583084E+03</rscale>
<asrwt>0</asrwt>
<pdfrwt beam="1">  1       21 0.18115014E+00 0.46583084E+03</pdfrwt>
<pdfrwt beam="2">  1       21 0.64764943E-02 0.46583084E+03</pdfrwt>
<totfact> 0.27437173E+04</totfact>
</mgrwt>
</event>
<event>
 7    0  0.4737014E-002  0.4572846E+03  0.7546771E-02  0.1025572E+00
         21   -1    0    0  502  501  0.00000000000E+00  0.00000000000E+00  0.14194285429E+03  0.14194285429E+03  0.00000000000E+00 0.  1.
         21   -1    0    0  501  502 -0.00000000000E+00 -0.00000000000E+00 -0.36829815160E+03  0.36829815160E+03  0.00000000000E+00 0.  1.
      99926    2    1    2    0    0  0.00000000000E+00 -0.88817841970E-15 -0.22635529731E+03  0.51024100589E+03  0.45728455416E+03 0.  0.
      99925    2    3    3    0    0 -0.11506054428E+03 -0.63567388655E+01 -0.14609038486E+03  0.32217372737E+03  0.26300983457E+03 0.  0.
         25    1    3    3    0    0  0.11506054428E+03  0.63567388655E+01 -0.80264912444E+02  0.18806727852E+03  0.12509000000E+03 0.  0.
         25    1    4    4    0    0 -0.43827605086E+02  0.20393320288E+02 -0.35608953397E+02  0.13875248517E+03  0.12509000000E+03 0.  0.
         25    1    4    4    0    0 -0.71232939193E+02 -0.26750059154E+02 -0.11048143147E+03  0.18342124220E+03  0.12509000000E+03 0.  0.
<mgrwt>
<rscale>  2 0.45728455E+03</rscale>
<asrwt>0</asrwt>
<pdfrwt beam="1">  1       21 0.20873949E-01 0.45728455E+03</pdfrwt>
<pdfrwt beam="2">  1       21 0.54161492E-01 0.45728455E+03</pdfrwt>
<totfact> 0.63399675E+04</totfact>
</mgrwt>
</event>
<event>
 7    0  0.4737014E-002  0.4412492E+03  0.7546771E-02  0.1030364E+00
         21   -1    0    0  502  501  0.00000000000E+00  0.00000000000E+00  0.14352809509E+03  0.14352809509E+03  0.00000000000E+00 0.  1.
         21   -1    0    0  501  502 -0.00000000000E+00 -0.00000000000E+00 -0.33913373886E+03  0.33913373886E+03  0.00000000000E+00 0.  1.
      99926    2    1    2    0    0  0.00000000000E+00  0.00000000000E+00 -0.19560564377E+03  0.48266183395E+03  0.44124922445E+03 0.  0.
      99925    2    3    3    0    0  0.42225623679E+02 -0.38038215697E+02 -0.21434455744E+03  0.34399473571E+03  0.26298075926E+03 0.  0.
         25    1    4    4    0    0 -0.15229603785E+02 -0.24376483020E+02 -0.12600296302E+03  0.17986219321E+03  0.12509000000E+03 0.  0.
         25    1    3    3    0    0 -0.42225623679E+02  0.38038215697E+02  0.18738913670E+02  0.13866709824E+03  0.12509000000E+03 0.  0.
         25    1    4    4    0    0  0.57455227464E+02 -0.13661732677E+02 -0.88341594417E+02  0.16413254250E+03  0.12509000000E+03 0.  0.
<mgrwt>
<rscale>  2 0.44124922E+03</rscale>
<asrwt>0</asrwt>
<pdfrwt beam="1">  1       21 0.21107073E-01 0.44124922E+03</pdfrwt>
<pdfrwt beam="2">  1       21 0.49872608E-01 0.44124922E+03</pdfrwt>
<totfact> 0.74291398E+04</totfact>
</mgrwt>
</event>
<event>
 7    0  0.4737014E-002  0.4538577E+03  0.7546771E-02  0.1026578E+00
         21   -1    0    0  502  501  0.00000000000E+00  0.00000000000E+00  0.16605338314E+03  0.16605338314E+03  0.00000000000E+00 0.  1.
         21   -1    0    0  501  502 -0.00000000000E+00 -0.00000000000E+00 -0.31012131594E+03  0.31012131594E+03  0.00000000000E+00 0.  1.
      99926    2    1    2    0    0  0.00000000000E+00  0.00000000000E+00 -0.14406793280E+03  0.47617469909E+03  0.45385765917E+03 0.  0.
      99925    2    3    3    0    0  0.31775870049E+02  0.99404649555E+02 -0.48052374032E+02  0.28707820019E+03  0.26308529435E+03 0.  0.
         25    1    4    4    0    0 -0.12949808765E+02  0.19267030030E+02 -0.31390620944E+02  0.13104119649E+03  0.12509000000E+03 0.  0.
         25    1    3    3    0    0 -0.31775870049E+02 -0.99404649555E+02 -0.96015558765E+02  0.18909649890E+03  0.12509000000E+03 0.  0.
         25    1    4    4    0    0  0.44725678814E+02  0.80137619525E+02 -0.16661753089E+02  0.15603700370E+03  0.12509000000E+03 0.  0.
<mgrwt>
<rscale>  2 0.45385766E+03</rscale>
<asrwt>0</asrwt>
<pdfrwt beam="1">  1       21 0.24419615E-01 0.45385766E+03</pdfrwt>
<pdfrwt beam="2">  1       21 0.45606075E-01 0.45385766E+03</pdfrwt>
<totfact> 0.67590333E+04</totfact>
</mgrwt>
</event>
<event>
 7    0  0.4737014E-002  0.4537984E+03  0.7546771E-02  0.1026595E+00
         21   -1    0    0  502  501  0.00000000000E+00  0.00000000000E+00  0.25709886152E+02  0.25709886152E+02  0.00000000000E+00 0.  1.
         21   -1    0    0  501  502 -0.00000000000E+00 -0.00000000000E+00 -0.20024689330E+04  0.20024689330E+04  0.00000000000E+00 0.  1.
      99926    2    1    2    0    0 -0.88817841970E-15  0.00000000000E+00 -0.19767590468E+04  0.20281788191E+04  0.45379840585E+03 0.  0.
      99925    2    3    3    0    0 -0.38943274049E+01  0.10177190446E+03 -0.14538358470E+04  0.14809413319E+04  0.26301306513E+03 0.  0.
         25    1    4    4    0    0  0.69731256386E+01  0.70003509487E+02 -0.57639916982E+03  0.59399716068E+03  0.12509000000E+03 0.  0.
         25    1    4    4    0    0 -0.10867453044E+02  0.31768394972E+02 -0.87743667714E+03  0.88694417127E+03  0.12509000000E+03 0.  0.
         25    1    3    3    0    0  0.38943274049E+01 -0.10177190446E+03 -0.52292319985E+03  0.54723748717E+03  0.12509000000E+03 0.  0.
<mgrwt>
<rscale>  2 0.45379841E+03</rscale>
<asrwt>0</asrwt>
<pdfrwt beam="1">  1       21 0.37808647E-02 0.45379841E+03</pdfrwt>
<pdfrwt beam="2">  1       21 0.29448080E+00 0.45379841E+03</pdfrwt>
<totfact> 0.13379392E+04</totfact>
</mgrwt>
</event>
<event>
 7    0  0.4737014E-002  0.4736903E+03  0.7546771E-02  0.1020884E+00
         21   -1    0    0  502  501  0.00000000000E+00  0.00000000000E+00  0.86325684225E+02  0.86325684225E+02  0.00000000000E+00 0. -1.
         21   -1    0    0  501  502 -0.00000000000E+00 -0.00000000000E+00 -0.64981379343E+03  0.64981379343E+03  0.00000000000E+00 0. -1.
      99926    2    1    2    0    0 -0.88817841970E-15  0.00000000000E+00 -0.56348810920E+03  0.73613947765E+03  0.47369027998E+03 0.  0.
      99925    2    3    3    0    0 -0.78848928155E+01 -0.49008875712E+01 -0.14905660769E+03  0.30314159339E+03  0.26380061242E+03 0.  0.
         25    1    4    4    0    0  0.34738676205E+02 -0.76699611847E+01 -0.56596236074E+02  0.14183175232E+03  0.12509000000E+03 0.  0.
         25    1    4    4    0    0 -0.42623569020E+02  0.27690736135E+01 -0.92460371618E+02  0.16130984106E+03  0.12509000000E+03 0.  0.
         25    1    3    3    0    0  0.78848928155E+01  0.49008875712E+01 -0.41443150151E+03  0.43299788427E+03  0.12509000000E+03 0.  0.
<mgrwt>
<rscale>  2 0.47369028E+03</rscale>
<asrwt>0</asrwt>
<pdfrwt beam="1">  1       21 0.12694954E-01 0.47369028E+03</pdfrwt>
<pdfrwt beam="2">  1       21 0.95560851E-01 0.47369028E+03</pdfrwt>
<totfact> 0.44132352E+04</totfact>
</mgrwt>
</event>
<event>
 7    0  0.4737014E-002  0.4582770E+03  0.7546771E-02  0.1025282E+00
         21   -1    0    0  502  501  0.00000000000E+00  0.00000000000E+00  0.12227042827E+03  0.12227042827E+03  0.00000000000E+00 0.  1.
         21   -1    0    0  501  502 -0.00000000000E+00 -0.00000000000E+00 -0.42941258525E+03  0.42941258525E+03  0.00000000000E+00 0.  1.
      99926    2    1    2    0    0  0.71054273576E-14  0.17763568394E-14 -0.30714215699E+03  0.55168301352E+03  0.45827703718E+03 0.  0.
      99925    2    3    3    0    0  0.58440674847E+02  0.11590533703E+02 -0.31285779901E+03  0.41301135235E+03  0.26296144550E+03 0.  0.
         25    1    4    4    0    0  0.50393401465E+02  0.39101291588E+02 -0.18007827370E+03  0.22835082367E+03  0.12509000000E+03 0.  0.
         25    1    3    3    0    0 -0.58440674847E+02 -0.11590533703E+02  0.57156420213E+01  0.13867166117E+03  0.12509000000E+03 0.  0.
         25    1    4    4    0    0  0.80472733824E+01 -0.27510757885E+02 -0.13277952531E+03  0.18466052868E+03  0.12509000000E+03 0.  0.
<mgrwt>
<rscale>  2 0.45827704E+03</rscale>
<asrwt>0</asrwt>
<pdfrwt beam="1">  1       21 0.17980945E-01 0.45827704E+03</pdfrwt>
<pdfrwt beam="2">  1       21 0.63148910E-01 0.45827704E+03</pdfrwt>
<totfact> 0.60179925E+04</totfact>
</mgrwt>
</event>
<event>
 7    0  0.4737014E-002  0.4550493E+03  0.7546771E-02  0.1026227E+00
         21   -1    0    0  502  501  0.00000000000E+00  0.00000000000E+00  0.42231135611E+03  0.42231135611E+03  0.00000000000E+00 0.  1.
         21   -1    0    0  501  502 -0.00000000000E+00 -0.00000000000E+00 -0.12258126061E+03  0.12258126061E+03  0.00000000000E+00 0.  1.
      99926    2    1    2    0    0  0.00000000000E+00  0.00000000000E+00  0.29973009550E+03  0.54489261672E+03  0.45504926503E+03 0.  0.
      99925    2    3    3    0    0 -0.66496941385E+02  0.91560753615E+02  0.19495069466E+03  0.34631908939E+03  0.26291809277E+03 0.  0.
         25    1    3    3    0    0  0.66496941385E+02 -0.91560753615E+02  0.10477940084E+03  0.19857352733E+03  0.12509000000E+03 0.  0.
         25    1    4    4    0    0 -0.65519202782E+01  0.24730408834E+02  0.57925710718E+02  0.14020491019E+03  0.12509000000E+03 0.  0.
         25    1    4    4    0    0 -0.59945021107E+02  0.66830344781E+02  0.13702498394E+03  0.20611417919E+03  0.12509000000E+03 0.  0.
<mgrwt>
<rscale>  2 0.45504927E+03</rscale>
<asrwt>0</asrwt>
<pdfrwt beam="1">  1       21 0.62104610E-01 0.45504927E+03</pdfrwt>
<pdfrwt beam="2">  1       21 0.18026656E-01 0.45504927E+03</pdfrwt>
<totfact> 0.62181036E+04</totfact>
</mgrwt>
</event>
<event>
 7    0  0.4737014E-002  0.4236447E+03  0.7546771E-02  0.1035887E+00
         21   -1    0    0  502  501  0.00000000000E+00  0.00000000000E+00  0.60643128124E+03  0.60643128124E+03  0.00000000000E+00 0.  1.
         21   -1    0    0  501  502 -0.00000000000E+00 -0.00000000000E+00 -0.73988125315E+02  0.73988125315E+02  0.00000000000E+00 0.  1.
      99926    2    1    2    0    0  0.00000000000E+00 -0.44408920985E-15  0.53244315592E+03  0.68041940655E+03  0.42364472678E+03 0.  0.
      99925    2    3    3    0    0 -0.47696569425E+02  0.20836672698E+01  0.44945936539E+03  0.52289759220E+03  0.26292368930E+03 0.  0.
         25    1    4    4    0    0 -0.33242507189E+02 -0.34173887013E+02  0.26144489329E+03  0.29372412085E+03  0.12509000000E+03 0.  0.
         25    1    3    3    0    0  0.47696569425E+02 -0.20836672698E+01  0.82983790536E+02  0.15752181435E+03  0.12509000000E+03 0.  0.
         25    1    4    4    0    0 -0.14454062236E+02  0.36257554283E+02  0.18801447209E+03  0.22917347136E+03  0.12509000000E+03 0.  0.
<mgrwt>
<rscale>  2 0.42364473E+03</rscale>
<asrwt>0</asrwt>
<pdfrwt beam="1">  1       21 0.89181068E-01 0.42364473E+03</pdfrwt>
<pdfrwt beam="2">  1       21 0.10880607E-01 0.42364473E+03</pdfrwt>
<totfact> 0.69646226E+04</totfact>
</mgrwt>
</event>
<event>
 7    0  0.4737014E-002  0.4546764E+03  0.7546771E-02  0.1026337E+00
         21   -1    0    0  502  501  0.00000000000E+00  0.00000000000E+00  0.14734305032E+03  0.14734305032E+03  0.00000000000E+00 0.  1.
         21   -1    0    0  501  502 -0.00000000000E+00 -0.00000000000E+00 -0.35076413877E+03  0.35076413877E+03  0.00000000000E+00 0.  1.
      99926    2    1    2    0    0  0.00000000000E+00 -0.71054273576E-14 -0.20342108846E+03  0.49810718909E+03  0.45467640427E+03 0.  0.
      99925    2    3    3    0    0 -0.77541434562E+02  0.51579069653E+02 -0.19795232552E+03  0.34206075380E+03  0.26295885916E+03 0.  0.
         25    1    4    4    0    0 -0.26297156691E+02  0.19480400167E+02 -0.48748860004E+02  0.13818460802E+03  0.12509000000E+03 0.  0.
         25    1    3    3    0    0  0.77541434562E+02 -0.51579069653E+02 -0.54687629342E+01  0.15604643529E+03  0.12509000000E+03 0.  0.
         25    1    4    4    0    0 -0.51244277871E+02  0.32098669487E+02 -0.14920346552E+03  0.20387614578E+03  0.12509000000E+03 0.  0.
<mgrwt>
<rscale>  2 0.45467640E+03</rscale>
<asrwt>0</asrwt>
<pdfrwt beam="1">  1       21 0.21668096E-01 0.45467640E+03</pdfrwt>
<pdfrwt beam="2">  1       21 0.51582960E-01 0.45467640E+03</pdfrwt>
<totfact> 0.65572120E+04</totfact>
</mgrwt>
</event>
<event>
 7    0  0.4737014E-002  0.4567613E+03  0.7546771E-02  0.1025725E+00
         21   -1    0    0  502  501  0.00000000000E+00  0.00000000000E+00  0.87286134873E+03  0.87286134873E+03  0.00000000000E+00 0.  1.
         21   -1    0    0  501  502 -0.00000000000E+00 -0.00000000000E+00 -0.59754869327E+02  0.59754869327E+02  0.00000000000E+00 0.  1.
      99926    2    1    2    0    0  0.00000000000E+00 -0.14210854715E-13  0.81310647941E+03  0.93261621806E+03  0.45676127609E+03 0.  0.
      99925    2    3    3    0    0  0.62639701320E+02 -0.68816269437E+02  0.64814650203E+03  0.70563887699E+03  0.26300746285E+03 0.  0.
         25    1    4    4    0    0  0.99624673639E+01 -0.61638801831E+02  0.27477738918E+03  0.30829971514E+03  0.12509000000E+03 0.  0.
         25    1    3    3    0    0 -0.62639701320E+02  0.68816269437E+02  0.16495997738E+03  0.22697734107E+03  0.12509000000E+03 0.  0.
         25    1    4    4    0    0  0.52677233957E+02 -0.71774676064E+01  0.37336911284E+03  0.39733916186E+03  0.12509000000E+03 0.  0.
<mgrwt>
<rscale>  2 0.45676128E+03</rscale>
<asrwt>0</asrwt>
<pdfrwt beam="1">  1       21 0.12836196E+00 0.45676128E+03</pdfrwt>
<pdfrwt beam="2">  1       21 0.87874813E-02 0.45676128E+03</pdfrwt>
<totfact> 0.41281266E+04</totfact>
</mgrwt>
</event>
<event>
 7    0  0.4737014E-002  0.4580046E+03  0.7546771E-02  0.1025362E+00
         21   -1    0    0  502  501  0.00000000000E+00  0.00000000000E+00  0.97509160297E+03  0.97509160297E+03  0.00000000000E+00 0.  1.
         21   -1    0    0  501  502 -0.00000000000E+00 -0.00000000000E+00 -0.53781677714E+02  0.53781677714E+02  0.00000000000E+00 0.  1.
      99926    2    1    2    0    0  0.00000000000E+00  0.00000000000E+00  0.92130992525E+03  0.10288732807E+04  0.45800463898E+03 0.  0.
      99925    2    3    3    0    0  0.87597103555E+02  0.66986731034E+02  0.65842710497E+03  0.71756096164E+03  0.26307224564E+03 0.  0.
         25    1    4    4    0    0  0.25204416014E+02  0.67056562355E+02  0.36860134840E+03  0.39578568352E+03  0.12509000000E+03 0.  0.
         25    1    3    3    0    0 -0.87597103555E+02 -0.66986731034E+02  0.26288282028E+03  0.31131231904E+03  0.12509000000E+03 0.  0.
         25    1    4    4    0    0  0.62392687541E+02 -0.69831320642E-01  0.28982575657E+03  0.32177527812E+03  0.12509000000E+03 0.  0.
<mgrwt>
<rscale>  2 0.45800464E+03</rscale>
<asrwt>0</asrwt>
<pdfrwt beam="1">  1       21 0.14339581E+00 0.45800464E+03</pdfrwt>
<pdfrwt beam="2">  1       21 0.79090709E-02 0.45800464E+03</pdfrwt>
<totfact> 0.37182389E+04</totfact>
</mgrwt>
</event>
<event>
 7    0  0.4737014E-002  0.4529021E+03  0.7546771E-02  0.1026860E+00
         21   -1    0    0  502  501  0.00000000000E+00  0.00000000000E+00  0.41769349541E+02  0.41769349541E+02  0.00000000000E+00 0.  1.
         21   -1    0    0  501  502 -0.00000000000E+00 -0.00000000000E+00 -0.12276961669E+04  0.12276961669E+04  0.00000000000E+00 0.  1.
      99926    2    1    2    0    0 -0.71054273576E-14  0.00000000000E+00 -0.11859268174E+04  0.12694655164E+04  0.45290206591E+03 0.  0.
      99925    2    3    3    0    0 -0.46255498284E+02 -0.80723264531E+02 -0.91839230972E+03  0.95982372754E+03  0.26298543084E+03 0.  0.
         25    1    4    4    0    0  0.65328398804E+01 -0.34794181094E+02 -0.53346895067E+03  0.54908099809E+03  0.12509000000E+03 0.  0.
         25    1    4    4    0    0 -0.52788338164E+02 -0.45929083437E+02 -0.38492335904E+03  0.41074272944E+03  0.12509000000E+03 0.  0.
         25    1    3    3    0    0  0.46255498284E+02  0.80723264531E+02 -0.26753450764E+03  0.30964178890E+03  0.12509000000E+03 0.  0.
<mgrwt>
<rscale>  2 0.45290207E+03</rscale>
<asrwt>0</asrwt>
<pdfrwt beam="1">  1       21 0.61425517E-02 0.45290207E+03</pdfrwt>
<pdfrwt beam="2">  1       21 0.18054354E+00 0.45290207E+03</pdfrwt>
<totfact> 0.30509685E+04</totfact>
</mgrwt>
</event>
<event>
 7    0  0.4737014E-002  0.4534443E+03  0.7546771E-02  0.1026700E+00
         21   -1    0    0  502  501  0.00000000000E+00  0.00000000000E+00  0.94658080504E+02  0.94658080504E+02  0.00000000000E+00 0.  1.
         21   -1    0    0  501  502 -0.00000000000E+00 -0.00000000000E+00 -0.54303788425E+03  0.54303788425E+03  0.00000000000E+00 0.  1.
      99926    2    1    2    0    0  0.00000000000E+00  0.14210854715E-13 -0.44837980375E+03  0.63769596475E+03  0.45344425794E+03 0.  0.
      99925    2    3    3    0    0  0.10493518085E+02 -0.99837932014E+02 -0.21484336227E+03  0.35438605637E+03  0.26335162815E+03 0.  0.
         25    1    4    4    0    0  0.25969068070E+02 -0.84302503440E+02 -0.97528233279E+02  0.18149536900E+03  0.12509000000E+03 0.  0.
         25    1    3    3    0    0 -0.10493518085E+02  0.99837932014E+02 -0.23353644148E+03  0.28330990839E+03  0.12509000000E+03 0.  0.
         25    1    4    4    0    0 -0.15475549985E+02 -0.15535428575E+02 -0.11731512899E+03  0.17289068736E+03  0.12509000000E+03 0.  0.
<mgrwt>
<rscale>  2 0.45344426E+03</rscale>
<asrwt>0</asrwt>
<pdfrwt beam="1">  1       21 0.13920306E-01 0.45344426E+03</pdfrwt>
<pdfrwt beam="2">  1       21 0.79858513E-01 0.45344426E+03</pdfrwt>
<totfact> 0.57113968E+04</totfact>
</mgrwt>
</event>
<event>
 7    0  0.4737014E-002  0.4575760E+03  0.7546771E-02  0.1025487E+00
         21   -1    0    0  502  501  0.00000000000E+00  0.00000000000E+00  0.25179260349E+03  0.25179260349E+03  0.00000000000E+00 0. -1.
         21   -1    0    0  501  502 -0.00000000000E+00 -0.00000000000E+00 -0.20788518639E+03  0.20788518639E+03  0.00000000000E+00 0. -1.
      99926    2    1    2    0    0  0.00000000000E+00  0.00000000000E+00  0.43907417098E+02  0.45967778988E+03  0.45757601470E+03 0.  0.
      99925    2    3    3    0    0 -0.39819357447E+02 -0.90280993674E+02 -0.35182010070E+02  0.28180456357E+03  0.26161001352E+03 0.  0.
         25    1    4    4    0    0  0.62202579982E+01 -0.48937580641E+02 -0.45271517269E+02  0.14188233429E+03  0.12509000000E+03 0.  0.
         25    1    4    4    0    0 -0.46039615445E+02 -0.41343413033E+02  0.10089507199E+02  0.13992222928E+03  0.12509000000E+03 0.  0.
         25    1    3    3    0    0  0.39819357447E+02  0.90280993674E+02  0.79089427167E+02  0.17787322630E+03  0.12509000000E+03 0.  0.
<mgrwt>
<rscale>  2 0.45757601E+03</rscale>
<asrwt>0</asrwt>
<pdfrwt beam="1">  1       21 0.37028324E-01 0.45757601E+03</pdfrwt>
<pdfrwt beam="2">  1       21 0.30571351E-01 0.45757601E+03</pdfrwt>
<totfact> 0.66820498E+04</totfact>
</mgrwt>
</event>
<event>
 7    0  0.4737014E-002  0.4587601E+03  0.7546771E-02  0.1025141E+00
         21   -1    0    0  502  501  0.00000000000E+00  0.00000000000E+00  0.25584908552E+04  0.25584908552E+04  0.00000000000E+00 0. -1.
         21   -1    0    0  501  502 -0.00000000000E+00 -0.00000000000E+00 -0.20564940366E+02  0.20564940366E+02  0.00000000000E+00 0. -1.
      99926    2    1    2    0    0  0.14210854715E-13 -0.35527136788E-14  0.25379259148E+04  0.25790557955E+04  0.45876011973E+03 0.  0.
      99925    2    3    3    0    0  0.10883591864E+03 -0.30544407291E+02  0.14285796396E+04  0.14569707344E+04  0.26295573055E+03 0.  0.
         25    1    3    3    0    0 -0.10883591864E+03  0.30544407291E+02  0.11093462752E+04  0.11220850611E+04  0.12509000000E+03 0.  0.
         25    1    4    4    0    0  0.33966225432E+02 -0.62600965416E-01  0.50026930917E+03  0.51678873651E+03  0.12509000000E+03 0.  0.
         25    1    4    4    0    0  0.74869693208E+02 -0.30481806325E+02  0.92831033046E+03  0.94018199792E+03  0.12509000000E+03 0.  0.
<mgrwt>
<rscale>  2 0.45876012E+03</rscale>
<asrwt>0</asrwt>
<pdfrwt beam="1">  1       21 0.37624844E+00 0.45876012E+03</pdfrwt>
<pdfrwt beam="2">  1       21 0.30242577E-02 0.45876012E+03</pdfrwt>
<totfact> 0.61739159E+03</totfact>
</mgrwt>
</event>
<event>
 7    0  0.4737014E-002  0.4569979E+03  0.7546771E-02  0.1025656E+00
         21   -1    0    0  502  501  0.00000000000E+00  0.00000000000E+00  0.43502935604E+03  0.43502935604E+03  0.00000000000E+00 0. -1.
         21   -1    0    0  501  502 -0.00000000000E+00 -0.00000000000E+00 -0.12001894755E+03  0.12001894755E+03  0.00000000000E+00 0. -1.
      99926    2    1    2    0    0  0.71054273576E-14  0.00000000000E+00  0.31501040848E+03  0.55504830359E+03  0.45699787950E+03 0.  0.
      99925    2    3    3    0    0  0.60526379230E+02 -0.72214451253E+02  0.11761035917E+03  0.30307081031E+03  0.26294742806E+03 0.  0.
         25    1    4    4    0    0  0.36779760044E+02 -0.49248783137E+00  0.76887828807E+02  0.15136789492E+03  0.12509000000E+03 0.  0.
         25    1    3    3    0    0 -0.60526379230E+02  0.72214451253E+02  0.19740004931E+03  0.25197749328E+03  0.12509000000E+03 0.  0.
         25    1    4    4    0    0  0.23746619186E+02 -0.71721963421E+02  0.40722530368E+02  0.15170291540E+03  0.12509000000E+03 0.  0.
<mgrwt>
<rscale>  2 0.45699788E+03</rscale>
<asrwt>0</asrwt>
<pdfrwt beam="1">  1       21 0.63974905E-01 0.45699788E+03</pdfrwt>
<pdfrwt beam="2">  1       21 0.17649845E-01 0.45699788E+03</pdfrwt>
<totfact> 0.60571121E+04</totfact>
</mgrwt>
</event>
<event>
 7    0  0.4737014E-002  0.4495096E+03  0.7546771E-02  0.1027868E+00
         21   -1    0    0  502  501  0.00000000000E+00  0.00000000000E+00  0.21420703802E+03  0.21420703802E+03  0.00000000000E+00 0. -1.
         21   -1    0    0  501  502 -0.00000000000E+00 -0.00000000000E+00 -0.23582194494E+03  0.23582194494E+03  0.00000000000E+00 0. -1.
      99926    2    1    2    0    0  0.00000000000E+00  0.00000000000E+00 -0.21614906922E+02  0.45002898296E+03  0.44950960090E+03 0.  0.
      99925    2    3    3    0    0 -0.63192761161E+02 -0.71852217813E+02 -0.63196587999E+02  0.28714064523E+03  0.26324869447E+03 0.  0.
         25    1    4    4    0    0 -0.45439005435E+02 -0.44625933975E+02  0.60789385551E+01  0.14050138359E+03  0.12509000000E+03 0.  0.
         25    1    3    3    0    0  0.63192761161E+02  0.71852217813E+02  0.41581681077E+02  0.16288833773E+03  0.12509000000E+03 0.  0.
         25    1    4    4    0    0 -0.17753755726E+02 -0.27226283838E+02 -0.69275526554E+02  0.14663926164E+03  0.12509000000E+03 0.  0.
<mgrwt>
<rscale>  2 0.44950960E+03</rscale>
<asrwt>0</asrwt>
<pdfrwt beam="1">  1       21 0.31501035E-01 0.44950960E+03</pdfrwt>
<pdfrwt beam="2">  1       21 0.34679698E-01 0.44950960E+03</pdfrwt>
<totfact> 0.72014978E+04</totfact>
</mgrwt>
</event>
<event>
 7    0  0.4737014E-002  0.4678089E+03  0.7546771E-02  0.1022540E+00
         21   -1    0    0  502  501  0.00000000000E+00  0.00000000000E+00  0.60780287387E+03  0.60780287387E+03  0.00000000000E+00 0.  1.
         21   -1    0    0  501  502 -0.00000000000E+00 -0.00000000000E+00 -0.90014842906E+02  0.90014842906E+02  0.00000000000E+00 0.  1.
      99926    2    1    2    0    0  0.00000000000E+00  0.35527136788E-14  0.51778803097E+03  0.69781771678E+03  0.46780885075E+03 0.  0.
      99925    2    3    3    0    0  0.11889653624E+03  0.31380290702E+02  0.29095151463E+03  0.41107144877E+03  0.26307003469E+03 0.  0.
         25    1    3    3    0    0 -0.11889653624E+03 -0.31380290702E+02  0.22683651634E+03  0.28674626801E+03  0.12509000000E+03 0.  0.
         25    1    4    4    0    0  0.88470186084E+02  0.46032702032E+02  0.14510279045E+03  0.21598220153E+03  0.12509000000E+03 0.  0.
         25    1    4    4    0    0  0.30426350159E+02 -0.14652411331E+02  0.14584872418E+03  0.19508924724E+03  0.12509000000E+03 0.  0.
<mgrwt>
<rscale>  2 0.46780885E+03</rscale>
<asrwt>0</asrwt>
<pdfrwt beam="1">  1       21 0.89382774E-01 0.46780885E+03</pdfrwt>
<pdfrwt beam="2">  1       21 0.13237477E-01 0.46780885E+03</pdfrwt>
<totfact> 0.47995206E+04</totfact>
</mgrwt>
</event>
<event>
 7    0  0.4737014E-002  0.4512967E+03  0.7546771E-02  0.1027336E+00
         21   -1    0    0  502  501  0.00000000000E+00  0.00000000000E+00  0.44846049198E+03  0.44846049198E+03  0.00000000000E+00 0.  1.
         21   -1    0    0  501  502 -0.00000000000E+00 -0.00000000000E+00 -0.11353768616E+03  0.11353768616E+03  0.00000000000E+00 0.  1.
      99926    2    1    2    0    0  0.00000000000E+00  0.00000000000E+00  0.33492280583E+03  0.56199817814E+03  0.45129665007E+03 0.  0.
      99925    2    3    3    0    0  0.73111688189E+02  0.80893982863E+02  0.19691412583E+03  0.34616708847E+03  0.26299681514E+03 0.  0.
         25    1    4    4    0    0  0.70552122479E+02  0.67921044127E+02  0.11315890314E+03  0.19504695763E+03  0.12509000000E+03 0.  0.
         25    1    4    4    0    0  0.25595657104E+01  0.12972938735E+02  0.83755222691E+02  0.15112013084E+03  0.12509000000E+03 0.  0.
         25    1    3    3    0    0 -0.73111688189E+02 -0.80893982863E+02  0.13800867999E+03  0.21583108967E+03  0.12509000000E+03 0.  0.
<mgrwt>
<rscale>  2 0.45129665E+03</rscale>
<asrwt>0</asrwt>
<pdfrwt beam="1">  1       21 0.65950072E-01 0.45129665E+03</pdfrwt>
<pdfrwt beam="2">  1       21 0.16696719E-01 0.45129665E+03</pdfrwt>
<totfact> 0.62902918E+04</totfact>
</mgrwt>
</event>
<event>
 7    0  0.4737014E-002  0.4578525E+03  0.7546771E-02  0.1025406E+00
         21   -1    0    0  502  501  0.00000000000E+00  0.00000000000E+00  0.18875895523E+03  0.18875895523E+03  0.00000000000E+00 0. -1.
         21   -1    0    0  501  502 -0.00000000000E+00 -0.00000000000E+00 -0.27764104548E+03  0.27764104548E+03  0.00000000000E+00 0. -1.
      99926    2    1    2    0    0 -0.14210854715E-13  0.00000000000E+00 -0.88882090243E+02  0.46640000071E+03  0.45785252505E+03 0.  0.
      99925    2    3    3    0    0 -0.91493787028E+02 -0.20239200907E+02  0.13485012700E+02  0.27956512660E+03  0.26304766892E+03 0.  0.
         25    1    3    3    0    0  0.91493787028E+02  0.20239200907E+02 -0.10236710294E+03  0.18683487411E+03  0.12509000000E+03 0.  0.
         25    1    4    4    0    0 -0.66342746932E+02  0.73792389087E+00 -0.26839102852E+02  0.14411714036E+03  0.12509000000E+03 0.  0.
         25    1    4    4    0    0 -0.25151040096E+02 -0.20977124798E+02  0.40324115553E+02  0.13544798624E+03  0.12509000000E+03 0.  0.
<mgrwt>
<rscale>  2 0.45785253E+03</rscale>
<asrwt>0</asrwt>
<pdfrwt beam="1">  1       21 0.27758670E-01 0.45785253E+03</pdfrwt>
<pdfrwt beam="2">  1       21 0.40829565E-01 0.45785253E+03</pdfrwt>
<totfact> 0.66192676E+04</totfact>
</mgrwt>
</event>
<event>
 7    0  0.4737014E-002  0.4529218E+03  0.7546771E-02  0.1026854E+00
         21   -1    0    0  502  501  0.00000000000E+00  0.00000000000E+00  0.32842877041E+03  0.32842877041E+03  0.00000000000E+00 0.  1.
         21   -1    0    0  501  502 -0.00000000000E+00 -0.00000000000E+00 -0.15615116431E+03  0.15615116431E+03  0.00000000000E+00 0.  1.
      99926    2    1    2    0    0  0.00000000000E+00  0.00000000000E+00  0.17227760610E+03  0.48457993472E+03  0.45292178085E+03 0.  0.
      99925    2    3    3    0    0 -0.92359662261E+02 -0.56829228892E+02  0.14122822502E+03  0.31614169490E+03  0.26122842732E+03 0.  0.
         25    1    4    4    0    0 -0.61524179789E+02 -0.41073450295E+02  0.11101491760E+03  0.18287720757E+03  0.12509000000E+03 0.  0.
         25    1    4    4    0    0 -0.30835482472E+02 -0.15755778596E+02  0.30213307422E+02  0.13326448733E+03  0.12509000000E+03 0.  0.
         25    1    3    3    0    0  0.92359662261E+02  0.56829228892E+02  0.31049381077E+02  0.16843823982E+03  0.12509000000E+03 0.  0.
<mgrwt>
<rscale>  2 0.45292178E+03</rscale>
<asrwt>0</asrwt>
<pdfrwt beam="1">  1       21 0.48298349E-01 0.45292178E+03</pdfrwt>
<pdfrwt beam="2">  1       21 0.22963407E-01 0.45292178E+03</pdfrwt>
<totfact> 0.67474531E+04</totfact>
</mgrwt>
</event>
<event>
 7    0  0.4737014E-002  0.4657461E+03  0.7546771E-02  0.1023128E+00
         21   -1    0    0  502  501  0.00000000000E+00  0.00000000000E+00  0.33709800034E+03  0.33709800034E+03  0.00000000000E+00 0.  1.
         21   -1    0    0  501  502 -0.00000000000E+00 -0.00000000000E+00 -0.16087264638E+03  0.16087264638E+03  0.00000000000E+00 0.  1.
      99926    2    1    2    0    0  0.00000000000E+00  0.00000000000E+00  0.17622535396E+03  0.49797064672E+03  0.46574605700E+03 0.  0.
      99925    2    3    3    0    0  0.28132919836E+02  0.11894064169E+03  0.95968776035E+02  0.30554672974E+03  0.26307881073E+03 0.  0.
         25    1    3    3    0    0 -0.28132919836E+02 -0.11894064169E+03  0.80256577926E+02  0.19242391698E+03  0.12509000000E+03 0.  0.
         25    1    4    4    0    0  0.11601222969E+02  0.45120600434E+02  0.86488456372E+02  0.15905413589E+03  0.12509000000E+03 0.  0.
         25    1    4    4    0    0  0.16531696867E+02  0.73820041256E+02  0.94803196632E+01  0.14649259385E+03  0.12509000000E+03 0.  0.
<mgrwt>
<rscale>  2 0.46574606E+03</rscale>
<asrwt>0</asrwt>
<pdfrwt beam="1">  1       21 0.49573236E-01 0.46574606E+03</pdfrwt>
<pdfrwt beam="2">  1       21 0.23657742E-01 0.46574606E+03</pdfrwt>
<totfact> 0.60118793E+04</totfact>
</mgrwt>
</event>
<event>
 7    0  0.4737014E-002  0.4538744E+03  0.7546771E-02  0.1026573E+00
         21   -1    0    0  502  501  0.00000000000E+00  0.00000000000E+00  0.33143198571E+02  0.33143198571E+02  0.00000000000E+00 0.  1.
         21   -1    0    0  501  502 -0.00000000000E+00 -0.00000000000E+00 -0.15538784679E+04  0.15538784679E+04  0.00000000000E+00 0.  1.
      99926    2    1    2    0    0  0.00000000000E+00 -0.35527136788E-14 -0.15207352693E+04  0.15870216665E+04  0.45387444351E+03 0.  0.
      99925    2    3    3    0    0 -0.10800039443E+03 -0.29781336982E+02 -0.97168180995E+03  0.10128629579E+04  0.26301106164E+03 0.  0.
         25    1    4    4    0    0 -0.57948267596E+02 -0.48597031147E+02 -0.42209001940E+03  0.44668463790E+03  0.12509000000E+03 0.  0.
         25    1    3    3    0    0  0.10800039443E+03  0.29781336982E+02 -0.54905345939E+03  0.57415870854E+03  0.12509000000E+03 0.  0.
         25    1    4    4    0    0 -0.50052126833E+02  0.18815694165E+02 -0.54959179055E+03  0.56617832005E+03  0.12509000000E+03 0.  0.
<mgrwt>
<rscale>  2 0.45387444E+03</rscale>
<asrwt>0</asrwt>
<pdfrwt beam="1">  1       21 0.48739993E-02 0.45387444E+03</pdfrwt>
<pdfrwt beam="2">  1       21 0.22851156E+00 0.45387444E+03</pdfrwt>
<totfact> 0.21915506E+04</totfact>
</mgrwt>
</event>
<event>
 7    0  0.4737014E-002  0.4471169E+03  0.7546771E-02  0.1028585E+00
         21   -1    0    0  502  501  0.00000000000E+00  0.00000000000E+00  0.18943107246E+03  0.18943107246E+03  0.00000000000E+00 0. -1.
         21   -1    0    0  501  502 -0.00000000000E+00 -0.00000000000E+00 -0.26383412208E+03  0.26383412208E+03  0.00000000000E+00 0. -1.
      99926    2    1    2    0    0  0.00000000000E+00  0.71054273576E-14 -0.74403049621E+02  0.45326519454E+03  0.44711690059E+03 0.  0.
      99925    2    3    3    0    0 -0.32043957016E+02 -0.34741002988E+02  0.48281086595E+02  0.27179162112E+03  0.26326007962E+03 0.  0.
         25    1    3    3    0    0  0.32043957016E+02  0.34741002988E+02 -0.12268413622E+03  0.18147357342E+03  0.12509000000E+03 0.  0.
         25    1    4    4    0    0  0.32622028285E+01 -0.22455644675E+02  0.60253981346E+02  0.14068741349E+03  0.12509000000E+03 0.  0.
         25    1    4    4    0    0 -0.35306159845E+02 -0.12285358313E+02 -0.11972894751E+02  0.13110420764E+03  0.12509000000E+03 0.  0.
<mgrwt>
<rscale>  2 0.44711690E+03</rscale>
<asrwt>0</asrwt>
<pdfrwt beam="1">  1       21 0.27857511E-01 0.44711690E+03</pdfrwt>
<pdfrwt beam="2">  1       21 0.38799135E-01 0.44711690E+03</pdfrwt>
<totfact> 0.73166561E+04</totfact>
</mgrwt>
</event>
<event>
 7    0  0.4737014E-002  0.4525011E+03  0.7546771E-02  0.1026979E+00
         21   -1    0    0  502  501  0.00000000000E+00  0.00000000000E+00  0.86566295274E+02  0.86566295274E+02  0.00000000000E+00 0. -1.
         21   -1    0    0  501  502 -0.00000000000E+00 -0.00000000000E+00 -0.59133063518E+03  0.59133063518E+03  0.00000000000E+00 0. -1.
      99926    2    1    2    0    0  0.14210854715E-13  0.35527136788E-14 -0.50476433990E+03  0.67789693045E+03  0.45250106019E+03 0.  0.
      99925    2    3    3    0    0 -0.96623794923E+02 -0.21808219737E+02 -0.24459425384E+03  0.37269578698E+03  0.26318063080E+03 0.  0.
         25    1    4    4    0    0 -0.40840551190E+02  0.47032954922E+01 -0.16830605324E+03  0.21369255314E+03  0.12509000000E+03 0.  0.
         25    1    4    4    0    0 -0.55783243733E+02 -0.26511515229E+02 -0.76288200600E+02  0.15900323384E+03  0.12509000000E+03 0.  0.
         25    1    3    3    0    0  0.96623794923E+02  0.21808219737E+02 -0.26017008607E+03  0.30520114347E+03  0.12509000000E+03 0.  0.
<mgrwt>
<rscale>  2 0.45250106E+03</rscale>
<asrwt>0</asrwt>
<pdfrwt beam="1">  1       21 0.12730337E-01 0.45250106E+03</pdfrwt>
<pdfrwt beam="2">  1       21 0.86960388E-01 0.45250106E+03</pdfrwt>
<totfact> 0.55198248E+04</totfact>
</mgrwt>
</event>
<event>
 7    0  0.4737014E-002  0.4484633E+03  0.7546771E-02  0.1028181E+00
         21   -1    0    0  502  501  0.00000000000E+00  0.00000000000E+00  0.16315895161E+03  0.16315895161E+03  0.00000000000E+00 0. -1.
         21   -1    0    0  501  502 -0.00000000000E+00 -0.00000000000E+00 -0.30816469820E+03  0.30816469820E+03  0.00000000000E+00 0. -1.
      99926    2    1    2    0    0  0.00000000000E+00 -0.14210854715E-13 -0.14500574659E+03  0.47132364981E+03  0.44846328314E+03 0.  0.
      99925    2    3    3    0    0 -0.80011211600E+02  0.70421619347E+02 -0.10049571507E+03  0.30106017909E+03  0.26301491257E+03 0.  0.
         25    1    4    4    0    0 -0.32975692942E+01  0.27039471584E+02 -0.66697651217E+02  0.14435405005E+03  0.12509000000E+03 0.  0.
         25    1    4    4    0    0 -0.76713642306E+02  0.43382147763E+02 -0.33798063851E+02  0.15670612905E+03  0.12509000000E+03 0.  0.
         25    1    3    3    0    0  0.80011211600E+02 -0.70421619347E+02 -0.44510031525E+02  0.17026347071E+03  0.12509000000E+03 0.  0.
<mgrwt>
<rscale>  2 0.44846328E+03</rscale>
<asrwt>0</asrwt>
<pdfrwt beam="1">  1       21 0.23993964E-01 0.44846328E+03</pdfrwt>
<pdfrwt beam="2">  1       21 0.45318337E-01 0.44846328E+03</pdfrwt>
<totfact> 0.70946830E+04</totfact>
</mgrwt>
</event>
<event>
 7    0  0.4737014E-002  0.4524414E+03  0.7546771E-02  0.1026996E+00
         21   -1    0    0  502  501  0.00000000000E+00  0.00000000000E+00  0.15311924056E+03  0.15311924056E+03  0.00000000000E+00 0.  1.
         21   -1    0    0  501  502 -0.00000000000E+00 -0.00000000000E+00 -0.33422185049E+03  0.33422185049E+03  0.00000000000E+00 0.  1.
      99926    2    1    2    0    0  0.14210854715E-13  0.00000000000E+00 -0.18110260993E+03  0.48734109105E+03  0.45244135941E+03 0.  0.
      99925    2    3    3    0    0 -0.89517450730E+02 -0.32319336073E+02 -0.17526845993E+03  0.33005326929E+03  0.26297949360E+03 0.  0.
         25    1    4    4    0    0 -0.35904782752E+02  0.23766923375E+02 -0.77066776031E+02  0.15310393901E+03  0.12509000000E+03 0.  0.
         25    1    4    4    0    0 -0.53612667979E+02 -0.56086259448E+02 -0.98201683897E+02  0.17694933028E+03  0.12509000000E+03 0.  0.
         25    1    3    3    0    0  0.89517450730E+02  0.32319336073E+02 -0.58341500038E+01  0.15728782177E+03  0.12509000000E+03 0.  0.
<mgrwt>
<rscale>  2 0.45244136E+03</rscale>
<asrwt>0</asrwt>
<pdfrwt beam="1">  1       21 0.22517535E-01 0.45244136E+03</pdfrwt>
<pdfrwt beam="2">  1       21 0.49150272E-01 0.45244136E+03</pdfrwt>
<totfact> 0.67530788E+04</totfact>
</mgrwt>
</event>
<event>
 6    0  0.4737014E-002  0.5381220E+03  0.7546771E-02  0.1004281E+00
         21   -1    0    0  502  501  0.00000000000E+00  0.00000000000E+00  0.10745063879E+03  0.10745063879E+03  0.00000000000E+00 0.  1.
         21   -1    0    0  501  502 -0.00000000000E+00 -0.00000000000E+00 -0.67374021002E+03  0.67374021002E+03  0.00000000000E+00 0.  1.
      99926    2    1    2    0    0  0.00000000000E+00  0.00000000000E+00 -0.56628957123E+03  0.78119084882E+03  0.53812197854E+03 0.  0.
         25    1    3    3    0    0 -0.26595324345E+02 -0.10359723894E+02 -0.27185279628E+03  0.30060952430E+03  0.12509000000E+03 0.  0.
         25    1    3    3    0    0  0.71280957589E+02 -0.69363691073E+02 -0.14285829043E+02  0.16044902482E+03  0.12509000000E+03 0.  0.
         25    1    3    3    0    0 -0.44685633244E+02  0.79723414968E+02 -0.28015094592E+03  0.32013229970E+03  0.12509000000E+03 0.  0.
<mgrwt>
<rscale>  2 0.53812198E+03</rscale>
<asrwt>0</asrwt>
<pdfrwt beam="1">  1       21 0.15801565E-01 0.53812198E+03</pdfrwt>
<pdfrwt beam="2">  1       21 0.99079443E-01 0.53812198E+03</pdfrwt>
<totfact> 0.26593819E+04</totfact>
</mgrwt>
</event>
<event>
 7    0  0.4737014E-002  0.4542059E+03  0.7546771E-02  0.1026475E+00
         21   -1    0    0  502  501  0.00000000000E+00  0.00000000000E+00  0.12343385870E+04  0.12343385870E+04  0.00000000000E+00 0.  1.
         21   -1    0    0  501  502 -0.00000000000E+00 -0.00000000000E+00 -0.41784116666E+02  0.41784116666E+02  0.00000000000E+00 0.  1.
      99926    2    1    2    0    0 -0.53290705182E-14 -0.14210854715E-13  0.11925544703E+04  0.12761227036E+04  0.45420588954E+03 0.  0.
      99925    2    3    3    0    0 -0.13914653774E+02 -0.10780519436E+03  0.83113193684E+03  0.87851821005E+03  0.26305583332E+03 0.  0.
         25    1    4    4    0    0 -0.46503794211E+02 -0.50452829335E+02  0.44441912193E+03  0.46675899016E+03  0.12509000000E+03 0.  0.
         25    1    4    4    0    0  0.32589140437E+02 -0.57352365021E+02  0.38671281491E+03  0.41175921989E+03  0.12509000000E+03 0.  0.
         25    1    3    3    0    0  0.13914653774E+02  0.10780519436E+03  0.36142253345E+03  0.39760449357E+03  0.12509000000E+03 0.  0.
<mgrwt>
<rscale>  2 0.45420589E+03</rscale>
<asrwt>0</asrwt>
<pdfrwt beam="1">  1       21 0.18152036E+00 0.45420589E+03</pdfrwt>
<pdfrwt beam="2">  1       21 0.61447238E-02 0.45420589E+03</pdfrwt>
<totfact> 0.30001151E+04</totfact>
</mgrwt>
</event>
<event>
 7    0  0.4737014E-002  0.4272114E+03  0.7546771E-02  0.1034745E+00
         21   -1    0    0  502  501  0.00000000000E+00  0.00000000000E+00  0.14219961606E+03  0.14219961606E+03  0.00000000000E+00 0.  1.
         21   -1    0    0  501  502 -0.00000000000E+00 -0.00000000000E+00 -0.32086858599E+03  0.32086858599E+03  0.00000000000E+00 0.  1.
      99926    2    1    2    0    0  0.00000000000E+00  0.00000000000E+00 -0.17866896993E+03  0.46306820205E+03  0.42721137500E+03 0.  0.
      99925    2    3    3    0    0 -0.48040042662E+02  0.26782415277E+02 -0.45938808670E+02  0.27256899660E+03  0.26297973363E+03 0.  0.
         25    1    4    4    0    0 -0.51419680858E+02  0.34645364828E+02 -0.46600174554E+02  0.14718481325E+03  0.12509000000E+03 0.  0.
         25    1    3    3    0    0  0.48040042662E+02 -0.26782415277E+02 -0.13273016126E+03  0.19049920544E+03  0.12509000000E+03 0.  0.
         25    1    4    4    0    0  0.33796381953E+01 -0.78629495514E+01  0.66136588461E+00  0.12538418335E+03  0.12509000000E+03 0.  0.
<mgrwt>
<rscale>  2 0.42721138E+03</rscale>
<asrwt>0</asrwt>
<pdfrwt beam="1">  1       21 0.20911709E-01 0.42721138E+03</pdfrwt>
<pdfrwt beam="2">  1       21 0.47186555E-01 0.42721138E+03</pdfrwt>
<totfact> 0.85264223E+04</totfact>
</mgrwt>
</event>
<event>
 7    0  0.4737014E-002  0.4607958E+03  0.7546771E-02  0.1024551E+00
         21   -1    0    0  502  501  0.00000000000E+00  0.00000000000E+00  0.47870469591E+03  0.47870469591E+03  0.00000000000E+00 0.  1.
         21   -1    0    0  501  502 -0.00000000000E+00 -0.00000000000E+00 -0.11088924318E+03  0.11088924318E+03  0.00000000000E+00 0.  1.
      99926    2    1    2    0    0  0.35527136788E-14 -0.14210854715E-13  0.36781545273E+03  0.58959393909E+03  0.46079583955E+03 0.  0.
      99925    2    3    3    0    0 -0.31117461847E+02 -0.10522077252E+03  0.17293143205E+03  0.33333821327E+03  0.26300071641E+03 0.  0.
         25    1    4    4    0    0  0.18047141490E+02 -0.56639947230E+02  0.58881446009E+02  0.15049357369E+03  0.12509000000E+03 0.  0.
         25    1    4    4    0    0 -0.49164603338E+02 -0.48580825287E+02  0.11404998604E+03  0.18284463958E+03  0.12509000000E+03 0.  0.
         25    1    3    3    0    0  0.31117461847E+02  0.10522077252E+03  0.19488402068E+03  0.25625572582E+03  0.12509000000E+03 0.  0.
<mgrwt>
<rscale>  2 0.46079584E+03</rscale>
<asrwt>0</asrwt>
<pdfrwt beam="1">  1       21 0.70397749E-01 0.46079584E+03</pdfrwt>
<pdfrwt beam="2">  1       21 0.16307242E-01 0.46079584E+03</pdfrwt>
<totfact> 0.56681884E+04</totfact>
</mgrwt>
</event>
<event>
 7    0  0.4737014E-002  0.4574144E+03  0.7546771E-02  0.1025534E+00
         21   -1    0    0  502  501  0.00000000000E+00  0.00000000000E+00  0.54335550536E+03  0.54335550536E+03  0.00000000000E+00 0.  1.
         21   -1    0    0  501  502 -0.00000000000E+00 -0.00000000000E+00 -0.96266592720E+02  0.96266592720E+02  0.00000000000E+00 0.  1.
      99926    2    1    2    0    0  0.00000000000E+00 -0.14210854715E-13  0.44708891264E+03  0.63962209808E+03  0.45741439914E+03 0.  0.
      99925    2    3    3    0    0  0.58379272127E+02 -0.69036133256E+02  0.38119002062E+03  0.47179987315E+03  0.26289762528E+03 0.  0.
         25    1    4    4    0    0  0.19780007281E+02 -0.74595153730E+02  0.20079780502E+03  0.24884322826E+03  0.12509000000E+03 0.  0.
         25    1    3    3    0    0 -0.58379272127E+02  0.69036133256E+02  0.65898892019E+02  0.16782222492E+03  0.12509000000E+03 0.  0.
         25    1    4    4    0    0  0.38599264846E+02  0.55590204737E+01  0.18039221560E+03  0.22295664490E+03  0.12509000000E+03 0.  0.
<mgrwt>
<rscale>  2 0.45741440E+03</rscale>
<asrwt>0</asrwt>
<pdfrwt beam="1">  1       21 0.79905220E-01 0.45741440E+03</pdfrwt>
<pdfrwt beam="2">  1       21 0.14156852E-01 0.45741440E+03</pdfrwt>
<totfact> 0.55243205E+04</totfact>
</mgrwt>
</event>
<event>
 7    0  0.4737014E-002  0.4549144E+03  0.7546771E-02  0.1026267E+00
         21   -1    0    0  502  501  0.00000000000E+00  0.00000000000E+00  0.19635217942E+03  0.19635217942E+03  0.00000000000E+00 0. -1.
         21   -1    0    0  501  502 -0.00000000000E+00 -0.00000000000E+00 -0.26348970983E+03  0.26348970983E+03  0.00000000000E+00 0. -1.
      99926    2    1    2    0    0  0.00000000000E+00  0.00000000000E+00 -0.67137530402E+02  0.45984188925E+03  0.45491440417E+03 0.  0.
      99925    2    3    3    0    0 -0.71124127004E+02 -0.16056180747E+02  0.45048711308E+02  0.27667610830E+03  0.26306622765E+03 0.  0.
         25    1    4    4    0    0 -0.26758955759E+02 -0.26479890130E+02  0.57970906834E+02  0.14291732027E+03  0.12509000000E+03 0.  0.
         25    1    3    3    0    0  0.71124127004E+02  0.16056180747E+02 -0.11218624171E+03  0.18316578095E+03  0.12509000000E+03 0.  0.
         25    1    4    4    0    0 -0.44365171244E+02  0.10423709383E+02 -0.12922195526E+02  0.13375878803E+03  0.12509000000E+03 0.  0.
<mgrwt>
<rscale>  2 0.45491440E+03</rscale>
<asrwt>0</asrwt>
<pdfrwt beam="1">  1       21 0.28875320E-01 0.45491440E+03</pdfrwt>
<pdfrwt beam="2">  1       21 0.38748487E-01 0.45491440E+03</pdfrwt>
<totfact> 0.68238665E+04</totfact>
</mgrwt>
</event>
<event>
 7    0  0.4737014E-002  0.4527936E+03  0.7546771E-02  0.1026892E+00
         21   -1    0    0  502  501  0.00000000000E+00  0.00000000000E+00  0.37467507364E+03  0.37467507364E+03  0.00000000000E+00 0. -1.
         21   -1    0    0  501  502 -0.00000000000E+00 -0.00000000000E+00 -0.13679986928E+03  0.13679986928E+03  0.00000000000E+00 0. -1.
      99926    2    1    2    0    0  0.00000000000E+00  0.14210854715E-13  0.23787520436E+03  0.51147494293E+03  0.45279355604E+03 0.  0.
      99925    2    3    3    0    0 -0.70848194580E+02 -0.69996963171E+02  0.94357041598E+02  0.29661682073E+03  0.26298145470E+03 0.  0.
         25    1    4    4    0    0 -0.54125559729E+02 -0.72352353124E+02  0.62079551363E+02  0.16633044825E+03  0.12509000000E+03 0.  0.
         25    1    3    3    0    0  0.70848194580E+02  0.69996963171E+02  0.14351816277E+03  0.21485812219E+03  0.12509000000E+03 0.  0.
         25    1    4    4    0    0 -0.16722634851E+02  0.23553899529E+01  0.32277490235E+02  0.13028637248E+03  0.12509000000E+03 0.  0.
<mgrwt>
<rscale>  2 0.45279356E+03</rscale>
<asrwt>0</asrwt>
<pdfrwt beam="1">  1       21 0.55099276E-01 0.45279356E+03</pdfrwt>
<pdfrwt beam="2">  1       21 0.20117628E-01 0.45279356E+03</pdfrwt>
<totfact> 0.65613151E+04</totfact>
</mgrwt>
</event>
<event>
 7    0  0.4737014E-002  0.4439804E+03  0.7546771E-02  0.1029533E+00
         21   -1    0    0  502  501  0.00000000000E+00  0.00000000000E+00  0.12567759775E+03  0.12567759775E+03  0.00000000000E+00 0. -1.
         21   -1    0    0  501  502 -0.00000000000E+00 -0.00000000000E+00 -0.39211159668E+03  0.39211159668E+03  0.00000000000E+00 0. -1.
      99926    2    1    2    0    0  0.00000000000E+00  0.00000000000E+00 -0.26643399893E+03  0.51778919443E+03  0.44398037578E+03 0.  0.
      99925    2    3    3    0    0  0.79011190780E+02 -0.44489839505E+02 -0.22473432198E+03  0.35776268023E+03  0.26318530697E+03 0.  0.
         25    1    4    4    0    0  0.44538347222E+01 -0.35725021869E+02 -0.12904829839E+03  0.18329507699E+03  0.12509000000E+03 0.  0.
         25    1    3    3    0    0 -0.79011190780E+02  0.44489839505E+02 -0.41699676950E+02  0.16002651420E+03  0.12509000000E+03 0.  0.
         25    1    4    4    0    0  0.74557356058E+02 -0.87648176361E+01 -0.95686023593E+02  0.17446760324E+03  0.12509000000E+03 0.  0.
<mgrwt>
<rscale>  2 0.44398038E+03</rscale>
<asrwt>0</asrwt>
<pdfrwt beam="1">  1       21 0.18482000E-01 0.44398038E+03</pdfrwt>
<pdfrwt beam="2">  1       21 0.57663469E-01 0.44398038E+03</pdfrwt>
<totfact> 0.69953496E+04</totfact>
</mgrwt>
</event>
<event>
 7    0  0.4737014E-002  0.4596490E+03  0.7546771E-02  0.1024883E+00
         21   -1    0    0  502  501  0.00000000000E+00  0.00000000000E+00  0.80703005553E+03  0.80703005553E+03  0.00000000000E+00 0. -1.
         21   -1    0    0  501  502 -0.00000000000E+00 -0.00000000000E+00 -0.65448997247E+02  0.65448997247E+02  0.00000000000E+00 0. -1.
      99926    2    1    2    0    0  0.00000000000E+00  0.00000000000E+00  0.74158105828E+03  0.87247905278E+03  0.45964903082E+03 0.  0.
      99925    2    3    3    0    0 -0.35851390576E+02  0.73135324876E+02  0.30479428152E+03  0.41089017249E+03  0.26324338899E+03 0.  0.
         25    1    4    4    0    0 -0.58931009506E+02  0.35750749718E+02  0.16486804089E+03  0.21812830855E+03  0.12509000000E+03 0.  0.
         25    1    4    4    0    0  0.23079618930E+02  0.37384575157E+02  0.13992624063E+03  0.19276186393E+03  0.12509000000E+03 0.  0.
         25    1    3    3    0    0  0.35851390576E+02 -0.73135324876E+02  0.43678677677E+03  0.46158888029E+03  0.12509000000E+03 0.  0.
<mgrwt>
<rscale>  2 0.45964903E+03</rscale>
<asrwt>0</asrwt>
<pdfrwt beam="1">  1       21 0.11868088E+00 0.45964903E+03</pdfrwt>
<pdfrwt beam="2">  1       21 0.96248530E-02 0.45964903E+03</pdfrwt>
<totfact> 0.42862693E+04</totfact>
</mgrwt>
</event>
<event>
 7    0  0.4737014E-002  0.4904168E+03  0.7546771E-02  0.1016311E+00
         21   -1    0    0  502  501  0.00000000000E+00  0.00000000000E+00  0.16319962890E+03  0.16319962890E+03  0.00000000000E+00 0. -1.
         21   -1    0    0  501  502 -0.00000000000E+00 -0.00000000000E+00 -0.36842706479E+03  0.36842706479E+03  0.00000000000E+00 0. -1.
      99926    2    1    2    0    0  0.00000000000E+00  0.00000000000E+00 -0.20522743589E+03  0.53162669369E+03  0.49041680334E+03 0.  0.
      99925    2    3    3    0    0 -0.13168091417E+03  0.46521142166E+02 -0.89361666924E+02  0.31122600326E+03  0.26338572050E+03 0.  0.
         25    1    3    3    0    0  0.13168091417E+03 -0.46521142166E+02 -0.11586576896E+03  0.22040069043E+03  0.12509000000E+03 0.  0.
         25    1    4    4    0    0 -0.79776579658E+02 -0.13265466634E+02 -0.58322198079E+02  0.15996644072E+03  0.12509000000E+03 0.  0.
         25    1    4    4    0    0 -0.51904334513E+02  0.59786608800E+02 -0.31039468845E+02  0.15125956254E+03  0.12509000000E+03 0.  0.
<mgrwt>
<rscale>  2 0.49041680E+03</rscale>
<asrwt>0</asrwt>
<pdfrwt beam="1">  1       21 0.23999945E-01 0.49041680E+03</pdfrwt>
<pdfrwt beam="2">  1       21 0.54180451E-01 0.49041680E+03</pdfrwt>
<totfact> 0.48094915E+04</totfact>
</mgrwt>
</event>
<event>
 7    0  0.4737014E-002  0.4560432E+03  0.7546771E-02  0.1025935E+00
         21   -1    0    0  502  501  0.00000000000E+00  0.00000000000E+00  0.34577839216E+03  0.34577839216E+03  0.00000000000E+00 0.  1.
         21   -1    0    0  501  502 -0.00000000000E+00 -0.00000000000E+00 -0.15036754612E+03  0.15036754612E+03  0.00000000000E+00 0.  1.
      99926    2    1    2    0    0  0.00000000000E+00  0.71054273576E-14  0.19541084605E+03  0.49614593828E+03  0.45604319238E+03 0.  0.
      99925    2    3    3    0    0  0.98456958520E+02  0.43243286664E+02  0.16448665916E+03  0.32831397483E+03  0.26300275759E+03 0.  0.
         25    1    3    3    0    0 -0.98456958520E+02 -0.43243286664E+02  0.30924186890E+02  0.16783196346E+03  0.12509000000E+03 0.  0.
         25    1    4    4    0    0  0.46109355429E+02 -0.28255899364E+01  0.11709684056E+03  0.17746333363E+03  0.12509000000E+03 0.  0.
         25    1    4    4    0    0  0.52347603090E+02  0.46068876600E+02  0.47389818601E+02  0.15085064119E+03  0.12509000000E+03 0.  0.
<mgrwt>
<rscale>  2 0.45604319E+03</rscale>
<asrwt>0</asrwt>
<pdfrwt beam="1">  1       21 0.50849763E-01 0.45604319E+03</pdfrwt>
<pdfrwt beam="2">  1       21 0.22112874E-01 0.45604319E+03</pdfrwt>
<totfact> 0.65002294E+04</totfact>
</mgrwt>
</event>
<event>
 7    0  0.4737014E-002  0.4546664E+03  0.7546771E-02  0.1026340E+00
         21   -1    0    0  502  501  0.00000000000E+00  0.00000000000E+00  0.26617158346E+03  0.26617158346E+03  0.00000000000E+00 0.  1.
         21   -1    0    0  501  502 -0.00000000000E+00 -0.00000000000E+00 -0.19416191929E+03  0.19416191929E+03  0.00000000000E+00 0.  1.
      99926    2    1    2    0    0  0.35527136788E-14  0.00000000000E+00  0.72009664175E+02  0.46033350275E+03  0.45466640740E+03 0.  0.
      99925    2    3    3    0    0  0.20416041819E+02  0.11096062646E+03  0.47819597128E+02  0.29015200308E+03  0.26300645550E+03 0.  0.
         25    1    4    4    0    0  0.46386041911E+02  0.60537345895E+02  0.62009143661E+01  0.14663694818E+03  0.12509000000E+03 0.  0.
         25    1    4    4    0    0 -0.25970000092E+02  0.50423280565E+02  0.41618682762E+02  0.14351505490E+03  0.12509000000E+03 0.  0.
         25    1    3    3    0    0 -0.20416041819E+02 -0.11096062646E+03  0.24190067047E+02  0.17018149968E+03  0.12509000000E+03 0.  0.
<mgrwt>
<rscale>  2 0.45466641E+03</rscale>
<asrwt>0</asrwt>
<pdfrwt beam="1">  1       21 0.39142880E-01 0.45466641E+03</pdfrwt>
<pdfrwt beam="2">  1       21 0.28553224E-01 0.45466641E+03</pdfrwt>
<totfact> 0.68337857E+04</totfact>
</mgrwt>
</event>
<event>
 7    0  0.4737014E-002  0.4621416E+03  0.7546771E-02  0.1024162E+00
         21   -1    0    0  502  501  0.00000000000E+00  0.00000000000E+00  0.10232581661E+03  0.10232581661E+03  0.00000000000E+00 0.  1.
         21   -1    0    0  501  502 -0.00000000000E+00 -0.00000000000E+00 -0.52180108845E+03  0.52180108845E+03  0.00000000000E+00 0.  1.
      99926    2    1    2    0    0  0.00000000000E+00  0.35527136788E-14 -0.41947527184E+03  0.62412690506E+03  0.46214163406E+03 0.  0.
      99925    2    3    3    0    0 -0.92042902640E+02 -0.25438497707E+02 -0.36015066615E+03  0.45594269048E+03  0.26278550490E+03 0.  0.
         25    1    3    3    0    0  0.92042902640E+02  0.25438497707E+02 -0.59324605694E+02  0.16818421458E+03  0.12509000000E+03 0.  0.
         25    1    4    4    0    0 -0.72219423610E+02 -0.37291126658E+02 -0.22843953191E+03  0.27283401751E+03  0.12509000000E+03 0.  0.
         25    1    4    4    0    0 -0.19823479030E+02  0.11852628951E+02 -0.13171113424E+03  0.18310867297E+03  0.12509000000E+03 0.  0.
<mgrwt>
<rscale>  2 0.46214163E+03</rscale>
<asrwt>0</asrwt>
<pdfrwt beam="1">  1       21 0.15047914E-01 0.46214163E+03</pdfrwt>
<pdfrwt beam="2">  1       21 0.76735453E-01 0.46214163E+03</pdfrwt>
<totfact> 0.54101330E+04</totfact>
</mgrwt>
</event>
<event>
 7    0  0.4737014E-002  0.4579185E+03  0.7546771E-02  0.1025387E+00
         21   -1    0    0  502  501  0.00000000000E+00  0.00000000000E+00  0.13504991749E+03  0.13504991749E+03  0.00000000000E+00 0.  1.
         21   -1    0    0  501  502 -0.00000000000E+00 -0.00000000000E+00 -0.38817010971E+03  0.38817010971E+03  0.00000000000E+00 0.  1.
      99926    2    1    2    0    0 -0.71054273576E-14 -0.35527136788E-14 -0.25312019222E+03  0.52322002720E+03  0.45791851366E+03 0.  0.
      99925    2    3    3    0    0 -0.48036447081E+02 -0.16082564875E+02 -0.39738404503E+02  0.27074142499E+03  0.26297457914E+03 0.  0.
         25    1    4    4    0    0  0.45149632406E+01  0.21533751025E+02 -0.19167577176E+02  0.12844839992E+03  0.12509000000E+03 0.  0.
         25    1    4    4    0    0 -0.52551410321E+02 -0.37616315900E+02 -0.20570827327E+02  0.14229302508E+03  0.12509000000E+03 0.  0.
         25    1    3    3    0    0  0.48036447081E+02  0.16082564875E+02 -0.21338178772E+03  0.25247860220E+03  0.12509000000E+03 0.  0.
<mgrwt>
<rscale>  2 0.45791851E+03</rscale>
<asrwt>0</asrwt>
<pdfrwt beam="1">  1       21 0.19860282E-01 0.45791851E+03</pdfrwt>
<pdfrwt beam="2">  1       21 0.57083839E-01 0.45791851E+03</pdfrwt>
<totfact> 0.62215342E+04</totfact>
</mgrwt>
</event>
<event>
 7    0  0.4737014E-002  0.4548452E+03  0.7546771E-02  0.1026287E+00
         21   -1    0    0  502  501  0.00000000000E+00  0.00000000000E+00  0.67461643287E+02  0.67461643287E+02  0.00000000000E+00 0. -1.
         21   -1    0    0  501  502 -0.00000000000E+00 -0.00000000000E+00 -0.76667313240E+03  0.76667313240E+03  0.00000000000E+00 0. -1.
      99926    2    1    2    0    0  0.00000000000E+00  0.00000000000E+00 -0.69921148911E+03  0.83413477569E+03  0.45484515772E+03 0.  0.
      99925    2    3    3    0    0  0.10524811615E+03 -0.28629956835E+02 -0.38570105767E+03  0.47940510522E+03  0.26299640424E+03 0.  0.
         25    1    4    4    0    0  0.52115446065E+02 -0.75028826596E+01 -0.12435051089E+03  0.18407300352E+03  0.12509000000E+03 0.  0.
         25    1    4    4    0    0  0.53132670090E+02 -0.21127074176E+02 -0.26135054678E+03  0.29533210170E+03  0.12509000000E+03 0.  0.
         25    1    3    3    0    0 -0.10524811615E+03  0.28629956835E+02 -0.31351043144E+03  0.35472967046E+03  0.12509000000E+03 0.  0.
<mgrwt>
<rscale>  2 0.45484516E+03</rscale>
<asrwt>0</asrwt>
<pdfrwt beam="1">  1       21 0.99208300E-02 0.45484516E+03</pdfrwt>
<pdfrwt beam="2">  1       21 0.11274605E+00 0.45484516E+03</pdfrwt>
<totfact> 0.46213757E+04</totfact>
</mgrwt>
</event>
<event>
 7    0  0.4737014E-002  0.4824560E+03  0.7546771E-02  0.1018462E+00
         21   -1    0    0  502  501  0.00000000000E+00  0.00000000000E+00  0.66008772477E+03  0.66008772477E+03  0.00000000000E+00 0.  1.
         21   -1    0    0  501  502 -0.00000000000E+00 -0.00000000000E+00 -0.88156374736E+02  0.88156374736E+02  0.00000000000E+00 0.  1.
      99926    2    1    2    0    0 -0.71054273576E-14  0.00000000000E+00  0.57193135003E+03  0.74824409951E+03  0.48245597032E+03 0.  0.
      99925    2    3    3    0    0 -0.60337721406E+02  0.63956266163E+02  0.18790280110E+03  0.33489620837E+03  0.26290105195E+03 0.  0.
         25    1    4    4    0    0 -0.33002488278E+02  0.65250471771E+01  0.52120275357E+02  0.13962725979E+03  0.12509000000E+03 0.  0.
         25    1    4    4    0    0 -0.27335233128E+02  0.57431218986E+02  0.13578252574E+03  0.19526894858E+03  0.12509000000E+03 0.  0.
         25    1    3    3    0    0  0.60337721406E+02 -0.63956266163E+02  0.38402854894E+03  0.41334789113E+03  0.12509000000E+03 0.  0.
<mgrwt>
<rscale>  2 0.48245597E+03</rscale>
<asrwt>0</asrwt>
<pdfrwt beam="1">  1       21 0.97071722E-01 0.48245597E+03</pdfrwt>
<pdfrwt beam="2">  1       21 0.12964173E-01 0.48245597E+03</pdfrwt>
<totfact> 0.40812821E+04</totfact>
</mgrwt>
</event>
<event>
 7    0  0.4737014E-002  0.4477491E+03  0.7546771E-02  0.1028395E+00
         21   -1    0    0  502  501  0.00000000000E+00  0.00000000000E+00  0.16273263340E+03  0.16273263340E+03  0.00000000000E+00 0.  1.
         21   -1    0    0  501  502 -0.00000000000E+00 -0.00000000000E+00 -0.30798873365E+03  0.30798873365E+03  0.00000000000E+00 0.  1.
      99926    2    1    2    0    0 -0.17763568394E-14  0.00000000000E+00 -0.14525610025E+03  0.47072136704E+03  0.44774911583E+03 0.  0.
      99925    2    3    3    0    0 -0.45372470275E+01 -0.10372537773E+03 -0.11887881856E+03  0.30603132580E+03  0.26218973715E+03 0.  0.
         25    1    4    4    0    0  0.25181177037E+02 -0.50863869073E+02 -0.28701957695E+02  0.14033009417E+03  0.12509000000E+03 0.  0.
         25    1    4    4    0    0 -0.29718424064E+02 -0.52861508660E+02 -0.90176860867E+02  0.16570123163E+03  0.12509000000E+03 0.  0.
         25    1    3    3    0    0  0.45372470275E+01  0.10372537773E+03 -0.26377281689E+02  0.16469004125E+03  0.12509000000E+03 0.  0.
<mgrwt>
<rscale>  2 0.44774912E+03</rscale>
<asrwt>0</asrwt>
<pdfrwt beam="1">  1       21 0.23931270E-01 0.44774912E+03</pdfrwt>
<pdfrwt beam="2">  1       21 0.45292460E-01 0.44774912E+03</pdfrwt>
<totfact> 0.71403008E+04</totfact>
</mgrwt>
</event>
<event>
 7    0  0.4737014E-002  0.4263870E+03  0.7546771E-02  0.1035007E+00
         21   -1    0    0  502  501  0.00000000000E+00  0.00000000000E+00  0.66681699792E+02  0.66681699792E+02  0.00000000000E+00 0.  1.
         21   -1    0    0  501  502 -0.00000000000E+00 -0.00000000000E+00 -0.68161823782E+03  0.68161823782E+03  0.00000000000E+00 0.  1.
      99926    2    1    2    0    0  0.71054273576E-14  0.00000000000E+00 -0.61493653803E+03  0.74829993761E+03  0.42638697310E+03 0.  0.
      99925    2    3    3    0    0 -0.44699214544E+02  0.64136643292E+02 -0.34712951549E+03  0.44255553747E+03  0.26314439844E+03 0.  0.
         25    1    3    3    0    0  0.44699214544E+02 -0.64136643292E+02 -0.26780702254E+03  0.30574440014E+03  0.12509000000E+03 0.  0.
         25    1    4    4    0    0 -0.40895678614E+00  0.42579826659E+02 -0.11934125516E+03  0.17805350928E+03  0.12509000000E+03 0.  0.
         25    1    4    4    0    0 -0.44290257758E+02  0.21556816633E+02 -0.22778826033E+03  0.26450202819E+03  0.12509000000E+03 0.  0.
<mgrwt>
<rscale>  2 0.42638697E+03</rscale>
<asrwt>0</asrwt>
<pdfrwt beam="1">  1       21 0.98061330E-02 0.42638697E+03</pdfrwt>
<pdfrwt beam="2">  1       21 0.10023797E+00 0.42638697E+03</pdfrwt>
<totfact> 0.63470969E+04</totfact>
</mgrwt>
</event>
<event>
 7    0  0.4737014E-002  0.4508008E+03  0.7546771E-02  0.1027484E+00
         21   -1    0    0  502  501  0.00000000000E+00  0.00000000000E+00  0.91207842411E+02  0.91207842411E+02  0.00000000000E+00 0.  1.
         21   -1    0    0  501  502 -0.00000000000E+00 -0.00000000000E+00 -0.55702823587E+03  0.55702823587E+03  0.00000000000E+00 0.  1.
      99926    2    1    2    0    0  0.00000000000E+00  0.00000000000E+00 -0.46582039345E+03  0.64823607828E+03  0.45080081435E+03 0.  0.
      99925    2    3    3    0    0 -0.46696412139E+02  0.73091074666E+02 -0.38981674547E+03  0.47809812628E+03  0.26286472415E+03 0.  0.
         25    1    3    3    0    0  0.46696412139E+02 -0.73091074666E+02 -0.76003647987E+02  0.17013795200E+03  0.12509000000E+03 0.  0.
         25    1    4    4    0    0 -0.12344309277E+02  0.18144298381E+02 -0.24559097611E+03  0.27648514098E+03  0.12509000000E+03 0.  0.
         25    1    4    4    0    0 -0.34352102862E+02  0.54946776285E+02 -0.14422576936E+03  0.20161298530E+03  0.12509000000E+03 0.  0.
<mgrwt>
<rscale>  2 0.45080081E+03</rscale>
<asrwt>0</asrwt>
<pdfrwt beam="1">  1       21 0.13412918E-01 0.45080081E+03</pdfrwt>
<pdfrwt beam="2">  1       21 0.81915915E-01 0.45080081E+03</pdfrwt>
<totfact> 0.57690778E+04</totfact>
</mgrwt>
</event>
<event>
 7    0  0.4737014E-002  0.4445715E+03  0.7546771E-02  0.1029353E+00
         21   -1    0    0  502  501  0.00000000000E+00  0.00000000000E+00  0.75622528187E+02  0.75622528187E+02  0.00000000000E+00 0.  1.
         21   -1    0    0  501  502 -0.00000000000E+00 -0.00000000000E+00 -0.65338945203E+03  0.65338945203E+03  0.00000000000E+00 0.  1.
      99926    2    1    2    0    0 -0.26645352591E-14  0.35527136788E-14 -0.57776692385E+03  0.72901198022E+03  0.44457153419E+03 0.  0.
      99925    2    3    3    0    0 -0.34487400434E+01  0.24049040637E+02 -0.53146555868E+03  0.59343331420E+03  0.26290151802E+03 0.  0.
         25    1    3    3    0    0  0.34487400434E+01 -0.24049040637E+02 -0.46301365164E+02  0.13557866602E+03  0.12509000000E+03 0.  0.
         25    1    4    4    0    0 -0.28261256773E+02 -0.17718196762E+02 -0.27663671054E+03  0.30543086100E+03  0.12509000000E+03 0.  0.
         25    1    4    4    0    0  0.24812516730E+02  0.41767237399E+02 -0.25482884814E+03  0.28800245321E+03  0.12509000000E+03 0.  0.
<mgrwt>
<rscale>  2 0.44457153E+03</rscale>
<asrwt>0</asrwt>
<pdfrwt beam="1">  1       21 0.11120960E-01 0.44457153E+03</pdfrwt>
<pdfrwt beam="2">  1       21 0.96086685E-01 0.44457153E+03</pdfrwt>
<totfact> 0.55792424E+04</totfact>
</mgrwt>
</event>
<event>
 7    0  0.4737014E-002  0.4512940E+03  0.7546771E-02  0.1027337E+00
         21   -1    0    0  502  501  0.00000000000E+00  0.00000000000E+00  0.22711002479E+02  0.22711002479E+02  0.00000000000E+00 0.  1.
         21   -1    0    0  501  502 -0.00000000000E+00 -0.00000000000E+00 -0.22419341836E+04  0.22419341836E+04  0.00000000000E+00 0.  1.
      99926    2    1    2    0    0  0.00000000000E+00  0.14210854715E-13 -0.22192231811E+04  0.22646451860E+04  0.45129401858E+03 0.  0.
      99925    2    3    3    0    0  0.81311563107E+02 -0.71759514979E+02 -0.12983460348E+04  0.13290046435E+04  0.26227832156E+03 0.  0.
         25    1    4    4    0    0  0.81580226556E+02 -0.41458095369E+02 -0.69019772645E+03  0.70738569164E+03  0.12509000000E+03 0.  0.
         25    1    4    4    0    0 -0.26866344825E+00 -0.30301419610E+02 -0.60814830838E+03  0.62161895184E+03  0.12509000000E+03 0.  0.
         25    1    3    3    0    0 -0.81311563107E+02  0.71759514979E+02 -0.92087714624E+03  0.93564054255E+03  0.12509000000E+03 0.  0.
<mgrwt>
<rscale>  2 0.45129402E+03</rscale>
<asrwt>0</asrwt>
<pdfrwt beam="1">  1       21 0.33398534E-02 0.45129402E+03</pdfrwt>
<pdfrwt beam="2">  1       21 0.32969620E+00 0.45129402E+03</pdfrwt>
<totfact> 0.10138881E+04</totfact>
</mgrwt>
</event>
<event>
 7    0  0.4737014E-002  0.4628426E+03  0.7546771E-02  0.1023960E+00
         21   -1    0    0  502  501  0.00000000000E+00  0.00000000000E+00  0.29669068524E+03  0.29669068524E+03  0.00000000000E+00 0.  1.
         21   -1    0    0  501  502 -0.00000000000E+00 -0.00000000000E+00 -0.18051065266E+03  0.18051065266E+03  0.00000000000E+00 0.  1.
      99926    2    1    2    0    0  0.71054273576E-14  0.00000000000E+00  0.11618003258E+03  0.47720133790E+03  0.46284264812E+03 0.  0.
      99925    2    3    3    0    0  0.63564906645E+02  0.61007328856E+02  0.15726299682E+03  0.31877877138E+03  0.26291797843E+03 0.  0.
         25    1    3    3    0    0 -0.63564906645E+02 -0.61007328856E+02 -0.41082964247E+02  0.15842256652E+03  0.12509000000E+03 0.  0.
         25    1    4    4    0    0  0.10110751305E+02  0.54866669709E+02  0.51385342768E+02  0.14628923504E+03  0.12509000000E+03 0.  0.
         25    1    4    4    0    0  0.53454155340E+02  0.61406591466E+01  0.10587765406E+03  0.17248953634E+03  0.12509000000E+03 0.  0.
<mgrwt>
<rscale>  2 0.46284265E+03</rscale>
<asrwt>0</asrwt>
<pdfrwt beam="1">  1       21 0.43630983E-01 0.46284265E+03</pdfrwt>
<pdfrwt beam="2">  1       21 0.26545684E-01 0.46284265E+03</pdfrwt>
<totfact> 0.62898297E+04</totfact>
</mgrwt>
</event>
<event>
 7    0  0.4737014E-002  0.4544195E+03  0.7546771E-02  0.1026412E+00
         21   -1    0    0  502  501  0.00000000000E+00  0.00000000000E+00  0.11806206650E+04  0.11806206650E+04  0.00000000000E+00 0. -1.
         21   -1    0    0  501  502 -0.00000000000E+00 -0.00000000000E+00 -0.43726388688E+02  0.43726388688E+02  0.00000000000E+00 0. -1.
      99926    2    1    2    0    0  0.00000000000E+00  0.00000000000E+00  0.11368942763E+04  0.12243470537E+04  0.45441953343E+03 0.  0.
      99925    2    3    3    0    0 -0.99320410338E+02  0.16461013059E+02  0.85167257758E+03  0.89703308456E+03  0.26303358439E+03 0.  0.
         25    1    3    3    0    0  0.99320410338E+02 -0.16461013059E+02  0.28522169869E+03  0.32731396910E+03  0.12509000000E+03 0.  0.
         25    1    4    4    0    0 -0.39558554571E+02  0.16342132337E+02  0.53947598361E+03  0.55544017637E+03  0.12509000000E+03 0.  0.
         25    1    4    4    0    0 -0.59761855767E+02  0.11888072155E+00  0.31219659398E+03  0.34159290819E+03  0.12509000000E+03 0.  0.
<mgrwt>
<rscale>  2 0.45441953E+03</rscale>
<asrwt>0</asrwt>
<pdfrwt beam="1">  1       21 0.17362066E+00 0.45441953E+03</pdfrwt>
<pdfrwt beam="2">  1       21 0.64303521E-02 0.45441953E+03</pdfrwt>
<totfact> 0.31535660E+04</totfact>
</mgrwt>
</event>
<event>
 7    0  0.4737014E-002  0.4563869E+03  0.7546771E-02  0.1025834E+00
         21   -1    0    0  502  501  0.00000000000E+00  0.00000000000E+00  0.48692869350E+03  0.48692869350E+03  0.00000000000E+00 0. -1.
         21   -1    0    0  501  502 -0.00000000000E+00 -0.00000000000E+00 -0.10694022056E+03  0.10694022056E+03  0.00000000000E+00 0. -1.
      99926    2    1    2    0    0  0.00000000000E+00  0.00000000000E+00  0.37998847294E+03  0.59386891407E+03  0.45638694934E+03 0.  0.
      99925    2    3    3    0    0  0.10155427865E+03 -0.34598990870E+02  0.28971124538E+03  0.40596508867E+03  0.26337176356E+03 0.  0.
         25    1    4    4    0    0  0.18735864448E+02  0.42336832045E+00  0.16410859052E+03  0.20719640306E+03  0.12509000000E+03 0.  0.
         25    1    4    4    0    0  0.82818414201E+02 -0.35022359190E+02  0.12560265486E+03  0.19876868561E+03  0.12509000000E+03 0.  0.
         25    1    3    3    0    0 -0.10155427865E+03  0.34598990870E+02  0.90277227562E+02  0.18790382539E+03  0.12509000000E+03 0.  0.
<mgrwt>
<rscale>  2 0.45638695E+03</rscale>
<asrwt>0</asrwt>
<pdfrwt beam="1">  1       21 0.71607160E-01 0.45638695E+03</pdfrwt>
<pdfrwt beam="2">  1       21 0.15726503E-01 0.45638695E+03</pdfrwt>
<totfact> 0.58414349E+04</totfact>
</mgrwt>
</event>
<event>
 7    0  0.4737014E-002  0.4537901E+03  0.7546771E-02  0.1026598E+00
         21   -1    0    0  502  501  0.00000000000E+00  0.00000000000E+00  0.26979666366E+03  0.26979666366E+03  0.00000000000E+00 0.  1.
         21   -1    0    0  501  502 -0.00000000000E+00 -0.00000000000E+00 -0.19081538396E+03  0.19081538396E+03  0.00000000000E+00 0.  1.
      99926    2    1    2    0    0  0.00000000000E+00 -0.71054273576E-14  0.78981279704E+02  0.46061204762E+03  0.45379005704E+03 0.  0.
      99925    2    3    3    0    0 -0.90227604884E+02 -0.34863117200E+02  0.10574498458E+03  0.30023667039E+03  0.26382493979E+03 0.  0.
         25    1    3    3    0    0  0.90227604884E+02  0.34863117200E+02 -0.26763704878E+02  0.16037537723E+03  0.12509000000E+03 0.  0.
         25    1    4    4    0    0 -0.57617835813E+02  0.88789100170E+01  0.85304292349E+02  0.16224358366E+03  0.12509000000E+03 0.  0.
         25    1    4    4    0    0 -0.32609769071E+02 -0.43742027217E+02  0.20440692233E+02  0.13799308672E+03  0.12509000000E+03 0.  0.
<mgrwt>
<rscale>  2 0.45379006E+03</rscale>
<asrwt>0</asrwt>
<pdfrwt beam="1">  1       21 0.39675980E-01 0.45379006E+03</pdfrwt>
<pdfrwt beam="2">  1       21 0.28061086E-01 0.45379006E+03</pdfrwt>
<totfact> 0.68796391E+04</totfact>
</mgrwt>
</event>
<event>
 7    0  0.4737014E-002  0.4569766E+03  0.7546771E-02  0.1025662E+00
         21   -1    0    0  502  501  0.00000000000E+00  0.00000000000E+00  0.73207167647E+02  0.73207167647E+02  0.00000000000E+00 0.  1.
         21   -1    0    0  501  502 -0.00000000000E+00 -0.00000000000E+00 -0.71313928241E+03  0.71313928241E+03  0.00000000000E+00 0.  1.
      99926    2    1    2    0    0  0.14210854715E-13  0.00000000000E+00 -0.63993211476E+03  0.78634645006E+03  0.45697661648E+03 0.  0.
      99925    2    3    3    0    0  0.93348711801E+02  0.67122251316E+02 -0.40161005973E+03  0.49366182690E+03  0.26304368582E+03 0.  0.
         25    1    3    3    0    0 -0.93348711801E+02 -0.67122251316E+02 -0.23832205503E+03  0.29268462316E+03  0.12509000000E+03 0.  0.
         25    1    4    4    0    0  0.66738785554E+02  0.42076855361E+02 -0.15197086159E+03  0.21205465835E+03  0.12509000000E+03 0.  0.
         25    1    4    4    0    0  0.26609926247E+02  0.25045395955E+02 -0.24963919814E+03  0.28160716856E+03  0.12509000000E+03 0.  0.
<mgrwt>
<rscale>  2 0.45697662E+03</rscale>
<asrwt>0</asrwt>
<pdfrwt beam="1">  1       21 0.10765760E-01 0.45697662E+03</pdfrwt>
<pdfrwt beam="2">  1       21 0.10487342E+00 0.45697662E+03</pdfrwt>
<totfact> 0.47688196E+04</totfact>
</mgrwt>
</event>
<event>
 7    0  0.4737014E-002  0.4587751E+03  0.7546771E-02  0.1025137E+00
         21   -1    0    0  502  501  0.00000000000E+00  0.00000000000E+00  0.65415971289E+03  0.65415971289E+03  0.00000000000E+00 0. -1.
         21   -1    0    0  501  502 -0.00000000000E+00 -0.00000000000E+00 -0.80437012781E+02  0.80437012781E+02  0.00000000000E+00 0. -1.
      99926    2    1    2    0    0  0.00000000000E+00  0.00000000000E+00  0.57372270011E+03  0.73459672567E+03  0.45877512220E+03 0.  0.
      99925    2    3    3    0    0 -0.31986868799E+02 -0.44422202155E+02  0.52448218610E+03  0.58944636177E+03  0.26337987404E+03 0.  0.
         25    1    3    3    0    0  0.31986868799E+02  0.44422202155E+02  0.49240514009E+02  0.14515036390E+03  0.12509000000E+03 0.  0.
         25    1    4    4    0    0 -0.43786596904E+02 -0.32299359038E+02  0.33563542756E+03  0.36229706457E+03  0.12509000000E+03 0.  0.
         25    1    4    4    0    0  0.11799728106E+02 -0.12122843116E+02  0.18884675854E+03  0.22714929720E+03  0.12509000000E+03 0.  0.
<mgrwt>
<rscale>  2 0.45877512E+03</rscale>
<asrwt>0</asrwt>
<pdfrwt beam="1">  1       21 0.96199955E-01 0.45877512E+03</pdfrwt>
<pdfrwt beam="2">  1       21 0.11828973E-01 0.45877512E+03</pdfrwt>
<totfact> 0.49576508E+04</totfact>
</mgrwt>
</event>
<event>
 7    0  0.4737014E-002  0.4607488E+03  0.7546771E-02  0.1024564E+00
         21   -1    0    0  502  501  0.00000000000E+00  0.00000000000E+00  0.50549563504E+03  0.50549563504E+03  0.00000000000E+00 0. -1.
         21   -1    0    0  501  502 -0.00000000000E+00 -0.00000000000E+00 -0.10499075257E+03  0.10499075257E+03  0.00000000000E+00 0. -1.
      99926    2    1    2    0    0  0.71054273576E-14  0.00000000000E+00  0.40050488247E+03  0.61048638761E+03  0.46074881289E+03 0.  0.
      99925    2    3    3    0    0  0.38303915260E+02  0.82617486922E+02  0.34923787051E+03  0.44748744993E+03  0.26454694967E+03 0.  0.
         25    1    4    4    0    0  0.33099303786E+02  0.75438640122E+02  0.14933927077E+03  0.21150952278E+03  0.12509000000E+03 0.  0.
         25    1    4    4    0    0  0.52046114738E+01  0.71788467997E+01  0.19989859974E+03  0.23597792715E+03  0.12509000000E+03 0.  0.
         25    1    3    3    0    0 -0.38303915260E+02 -0.82617486922E+02  0.51267011962E+02  0.16299893768E+03  0.12509000000E+03 0.  0.
<mgrwt>
<rscale>  2 0.46074881E+03</rscale>
<asrwt>0</asrwt>
<pdfrwt beam="1">  1       21 0.74337592E-01 0.46074881E+03</pdfrwt>
<pdfrwt beam="2">  1       21 0.15439817E-01 0.46074881E+03</pdfrwt>
<totfact> 0.55475022E+04</totfact>
</mgrwt>
</event>
<event>
 7    0  0.4737014E-002  0.4486244E+03  0.7546771E-02  0.1028133E+00
         21   -1    0    0  502  501  0.00000000000E+00  0.00000000000E+00  0.10555425722E+04  0.10555425722E+04  0.00000000000E+00 0.  1.
         21   -1    0    0  501  502 -0.00000000000E+00 -0.00000000000E+00 -0.47668345164E+02  0.47668345164E+02  0.00000000000E+00 0.  1.
      99926    2    1    2    0    0 -0.71054273576E-14  0.00000000000E+00  0.10078742270E+04  0.11032109174E+04  0.44862442050E+03 0.  0.
      99925    2    3    3    0    0  0.46436381415E+02  0.42618131832E+02  0.42526240858E+03  0.50399753151E+03  0.26304515380E+03 0.  0.
         25    1    4    4    0    0 -0.16027891904E+02  0.24248749830E+02  0.22490366540E+03  0.25898660582E+03  0.12509000000E+03 0.  0.
         25    1    4    4    0    0  0.62464273319E+02  0.18369382002E+02  0.20035874318E+03  0.24501092569E+03  0.12509000000E+03 0.  0.
         25    1    3    3    0    0 -0.46436381415E+02 -0.42618131832E+02  0.58261181845E+03  0.59921338585E+03  0.12509000000E+03 0.  0.
<mgrwt>
<rscale>  2 0.44862442E+03</rscale>
<asrwt>0</asrwt>
<pdfrwt beam="1">  1       21 0.15522683E+00 0.44862442E+03</pdfrwt>
<pdfrwt beam="2">  1       21 0.70100515E-02 0.44862442E+03</pdfrwt>
<totfact> 0.37198526E+04</totfact>
</mgrwt>
</event>
<event>
 7    0  0.4737014E-002  0.4530481E+03  0.7546771E-02  0.1026817E+00
         21   -1    0    0  502  501  0.00000000000E+00  0.00000000000E+00  0.10671979192E+04  0.10671979192E+04  0.00000000000E+00 0. -1.
         21   -1    0    0  501  502 -0.00000000000E+00 -0.00000000000E+00 -0.48082126149E+02  0.48082126149E+02  0.00000000000E+00 0. -1.
      99926    2    1    2    0    0  0.00000000000E+00  0.00000000000E+00  0.10191157931E+04  0.11152800454E+04  0.45304809889E+03 0.  0.
      99925    2    3    3    0    0  0.62919248069E+02 -0.55276034333E+02  0.46215417159E+03  0.53833288344E+03  0.26306186217E+03 0.  0.
         25    1    4    4    0    0  0.64349791889E+02 -0.31311190938E+02  0.29362080744E+03  0.32708098853E+03  0.12509000000E+03 0.  0.
         25    1    4    4    0    0 -0.14305438196E+01 -0.23964843395E+02  0.16853336415E+03  0.21125189492E+03  0.12509000000E+03 0.  0.
         25    1    3    3    0    0 -0.62919248069E+02  0.55276034333E+02  0.55696162147E+03  0.57694716191E+03  0.12509000000E+03 0.  0.
<mgrwt>
<rscale>  2 0.45304810E+03</rscale>
<asrwt>0</asrwt>
<pdfrwt beam="1">  1       21 0.15694086E+00 0.45304810E+03</pdfrwt>
<pdfrwt beam="2">  1       21 0.70709016E-02 0.45304810E+03</pdfrwt>
<totfact> 0.35500100E+04</totfact>
</mgrwt>
</event>
<event>
 7    0  0.4737014E-002  0.4709299E+03  0.7546771E-02  0.1021658E+00
         21   -1    0    0  502  501  0.00000000000E+00  0.00000000000E+00  0.19957456609E+03  0.19957456609E+03  0.00000000000E+00 0.  1.
         21   -1    0    0  501  502 -0.00000000000E+00 -0.00000000000E+00 -0.27780966033E+03  0.27780966033E+03  0.00000000000E+00 0.  1.
      99926    2    1    2    0    0  0.35527136788E-14  0.00000000000E+00 -0.78235094236E+02  0.47738422642E+03  0.47092989888E+03 0.  0.
      99925    2    3    3    0    0  0.29526102860E+02 -0.11193048781E+03 -0.10289616759E+03  0.30517533730E+03  0.26295273404E+03 0.  0.
         25    1    4    4    0    0  0.54644114126E+02 -0.66712167058E+02 -0.55568973290E+02  0.16177735112E+03  0.12509000000E+03 0.  0.
         25    1    3    3    0    0 -0.29526102860E+02  0.11193048781E+03  0.24661073354E+02  0.17220888912E+03  0.12509000000E+03 0.  0.
         25    1    4    4    0    0 -0.25118011266E+02 -0.45218320753E+02 -0.47327194300E+02  0.14339798619E+03  0.12509000000E+03 0.  0.
<mgrwt>
<rscale>  2 0.47092990E+03</rscale>
<asrwt>0</asrwt>
<pdfrwt beam="1">  1       21 0.29349201E-01 0.47092990E+03</pdfrwt>
<pdfrwt beam="2">  1       21 0.40854362E-01 0.47092990E+03</pdfrwt>
<totfact> 0.59059847E+04</totfact>
</mgrwt>
</event>
<event>
 7    0  0.4737014E-002  0.4385001E+03  0.7546771E-02  0.1031208E+00
         21   -1    0    0  502  501  0.00000000000E+00  0.00000000000E+00  0.85236882386E+03  0.85236882386E+03  0.00000000000E+00 0. -1.
         21   -1    0    0  501  502 -0.00000000000E+00 -0.00000000000E+00 -0.56396452965E+02  0.56396452965E+02  0.00000000000E+00 0. -1.
      99926    2    1    2    0    0  0.00000000000E+00  0.00000000000E+00  0.79597237090E+03  0.90876527683E+03  0.43850007199E+03 0.  0.
      99925    2    3    3    0    0 -0.43023811928E+02  0.84160216351E+02  0.46399943131E+03  0.54163106277E+03  0.26293486931E+03 0.  0.
         25    1    3    3    0    0  0.43023811928E+02 -0.84160216351E+02  0.33197293959E+03  0.36713421405E+03  0.12509000000E+03 0.  0.
         25    1    4    4    0    0 -0.58564218278E+02  0.58890803918E+02  0.23082322714E+03  0.27536296908E+03  0.12509000000E+03 0.  0.
         25    1    4    4    0    0  0.15540406350E+02  0.25269412433E+02  0.23317620416E+03  0.26626809370E+03  0.12509000000E+03 0.  0.
<mgrwt>
<rscale>  2 0.43850007E+03</rscale>
<asrwt>0</asrwt>
<pdfrwt beam="1">  1       21 0.12534835E+00 0.43850007E+03</pdfrwt>
<pdfrwt beam="2">  1       21 0.82935965E-02 0.43850007E+03</pdfrwt>
<totfact> 0.48866770E+04</totfact>
</mgrwt>
</event>
<event>
 7    0  0.4737014E-002  0.4484864E+03  0.7546771E-02  0.1028174E+00
         21   -1    0    0  502  501  0.00000000000E+00  0.00000000000E+00  0.15305217588E+03  0.15305217588E+03  0.00000000000E+00 0. -1.
         21   -1    0    0  501  502 -0.00000000000E+00 -0.00000000000E+00 -0.32854815729E+03  0.32854815729E+03  0.00000000000E+00 0. -1.
      99926    2    1    2    0    0 -0.71054273576E-14  0.71054273576E-14 -0.17549598141E+03  0.48160033317E+03  0.44848638933E+03 0.  0.
      99925    2    3    3    0    0 -0.45167728691E+02  0.63245062378E+02 -0.19002280879E+03  0.33361858279E+03  0.26296887515E+03 0.  0.
         25    1    4    4    0    0  0.35060084843E+01 -0.14408571725E+01 -0.90387553284E+02  0.15437547102E+03  0.12509000000E+03 0.  0.
         25    1    3    3    0    0  0.45167728691E+02 -0.63245062378E+02  0.14526827376E+02  0.14798175037E+03  0.12509000000E+03 0.  0.
         25    1    4    4    0    0 -0.48673737175E+02  0.64685919551E+02 -0.99635255501E+02  0.17924311177E+03  0.12509000000E+03 0.  0.
<mgrwt>
<rscale>  2 0.44848639E+03</rscale>
<asrwt>0</asrwt>
<pdfrwt beam="1">  1       21 0.22507673E-01 0.44848639E+03</pdfrwt>
<pdfrwt beam="2">  1       21 0.48315906E-01 0.44848639E+03</pdfrwt>
<totfact> 0.70141050E+04</totfact>
</mgrwt>
</event>
<event>
 7    0  0.4737014E-002  0.4963971E+03  0.7546771E-02  0.1014724E+00
         21   -1    0    0  502  501  0.00000000000E+00  0.00000000000E+00  0.58460869884E+02  0.58460869884E+02  0.00000000000E+00 0.  1.
         21   -1    0    0  501  502 -0.00000000000E+00 -0.00000000000E+00 -0.10537392745E+04  0.10537392745E+04  0.00000000000E+00 0.  1.
      99926    2    1    2    0    0  0.00000000000E+00  0.00000000000E+00 -0.99527840465E+03  0.11122001444E+04  0.49639707743E+03 0.  0.
      99925    2    3    3    0    0  0.28419030267E+02 -0.14218671815E+03 -0.53105727963E+03  0.61003138283E+03  0.26285309527E+03 0.  0.
         25    1    3    3    0    0 -0.28419030267E+02  0.14218671815E+03 -0.46422112502E+03  0.50216876159E+03  0.12509000000E+03 0.  0.
         25    1    4    4    0    0  0.43344747877E+02 -0.90033590720E+02 -0.23838685686E+03  0.28715956583E+03  0.12509000000E+03 0.  0.
         25    1    4    4    0    0 -0.14925717610E+02 -0.52153127429E+02 -0.29267042277E+03  0.32287181700E+03  0.12509000000E+03 0.  0.
<mgrwt>
<rscale>  2 0.49639708E+03</rscale>
<asrwt>0</asrwt>
<pdfrwt beam="1">  1       21 0.85971867E-02 0.49639708E+03</pdfrwt>
<pdfrwt beam="2">  1       21 0.15496166E+00 0.49639708E+03</pdfrwt>
<totfact> 0.25712227E+04</totfact>
</mgrwt>
</event>
<event>
 7    0  0.4737014E-002  0.4422234E+03  0.7546771E-02  0.1030067E+00
         21   -1    0    0  502  501  0.00000000000E+00  0.00000000000E+00  0.50119759229E+03  0.50119759229E+03  0.00000000000E+00 0. -1.
         21   -1    0    0  501  502 -0.00000000000E+00 -0.00000000000E+00 -0.97547134028E+02  0.97547134028E+02  0.00000000000E+00 0. -1.
      99926    2    1    2    0    0  0.00000000000E+00  0.00000000000E+00  0.40365045826E+03  0.59874472632E+03  0.44222342186E+03 0.  0.
      99925    2    3    3    0    0  0.43362896161E+02 -0.69346570328E+02  0.17754910822E+03  0.32771222610E+03  0.26302534047E+03 0.  0.
         25    1    3    3    0    0 -0.43362896161E+02  0.69346570328E+02  0.22610135004E+03  0.27103250021E+03  0.12509000000E+03 0.  0.
         25    1    4    4    0    0  0.11093393020E+02  0.59340879134E+01  0.74771871192E+02  0.14627582709E+03  0.12509000000E+03 0.  0.
         25    1    4    4    0    0  0.32269503141E+02 -0.75280658242E+02  0.10277723702E+03  0.18143639902E+03  0.12509000000E+03 0.  0.
<mgrwt>
<rscale>  2 0.44222342E+03</rscale>
<asrwt>0</asrwt>
<pdfrwt beam="1">  1       21 0.73705527E-01 0.44222342E+03</pdfrwt>
<pdfrwt beam="2">  1       21 0.14345167E-01 0.44222342E+03</pdfrwt>
<totfact> 0.65080773E+04</totfact>
</mgrwt>
</event>
<event>
 7    0  0.4737014E-002  0.4539226E+03  0.7546771E-02  0.1026559E+00
         21   -1    0    0  502  501  0.00000000000E+00  0.00000000000E+00  0.11073327438E+03  0.11073327438E+03  0.00000000000E+00 0. -1.
         21   -1    0    0  501  502 -0.00000000000E+00 -0.00000000000E+00 -0.46518471557E+03  0.46518471557E+03  0.00000000000E+00 0. -1.
      99926    2    1    2    0    0  0.00000000000E+00  0.00000000000E+00 -0.35445144120E+03  0.57591798995E+03  0.45392257818E+03 0.  0.
      99925    2    3    3    0    0 -0.67400684321E+02  0.71321253586E+02 -0.29217250590E+03  0.40516744869E+03  0.26299489503E+03 0.  0.
         25    1    3    3    0    0  0.67400684321E+02 -0.71321253586E+02 -0.62278935296E+02  0.17075054126E+03  0.12509000000E+03 0.  0.
         25    1    4    4    0    0 -0.59594389732E+02  0.63473113398E+02 -0.18791975910E+03  0.24195386207E+03  0.12509000000E+03 0.  0.
         25    1    4    4    0    0 -0.78062945884E+01  0.78481401876E+01 -0.10425274680E+03  0.16321358661E+03  0.12509000000E+03 0.  0.
<mgrwt>
<rscale>  2 0.45392258E+03</rscale>
<asrwt>0</asrwt>
<pdfrwt beam="1">  1       21 0.16284305E-01 0.45392258E+03</pdfrwt>
<pdfrwt beam="2">  1       21 0.68409516E-01 0.45392258E+03</pdfrwt>
<totfact> 0.60701059E+04</totfact>
</mgrwt>
</event>
<event>
 7    0  0.4737014E-002  0.4558490E+03  0.7546771E-02  0.1025992E+00
         21   -1    0    0  502  501  0.00000000000E+00  0.00000000000E+00  0.86959265704E+02  0.86959265704E+02  0.00000000000E+00 0.  1.
         21   -1    0    0  501  502 -0.00000000000E+00 -0.00000000000E+00 -0.59740139791E+03  0.59740139791E+03  0.00000000000E+00 0.  1.
      99926    2    1    2    0    0  0.00000000000E+00  0.00000000000E+00 -0.51044213221E+03  0.68436066362E+03  0.45584904033E+03 0.  0.
      99925    2    3    3    0    0 -0.78259766945E+02 -0.76387906107E+02 -0.36953743623E+03  0.46650441567E+03  0.26288543082E+03 0.  0.
         25    1    3    3    0    0  0.78259766945E+02  0.76387906107E+02 -0.14090469598E+03  0.21785624795E+03  0.12509000000E+03 0.  0.
         25    1    4    4    0    0 -0.50720930647E+02  0.10943790101E+01 -0.17126252026E+03  0.21806459918E+03  0.12509000000E+03 0.  0.
         25    1    4    4    0    0 -0.27538836297E+02 -0.77482285117E+02 -0.19827491597E+03  0.24843981649E+03  0.12509000000E+03 0.  0.
<mgrwt>
<rscale>  2 0.45584904E+03</rscale>
<asrwt>0</asrwt>
<pdfrwt beam="1">  1       21 0.12788128E-01 0.45584904E+03</pdfrwt>
<pdfrwt beam="2">  1       21 0.87853144E-01 0.45584904E+03</pdfrwt>
<totfact> 0.53402700E+04</totfact>
</mgrwt>
</event>
<event>
 7    0  0.4737014E-002  0.4618401E+03  0.7546771E-02  0.1024249E+00
         21   -1    0    0  502  501  0.00000000000E+00  0.00000000000E+00  0.72545603232E+03  0.72545603232E+03  0.00000000000E+00 0. -1.
         21   -1    0    0  501  502 -0.00000000000E+00 -0.00000000000E+00 -0.73504192668E+02  0.73504192668E+02  0.00000000000E+00 0. -1.
      99926    2    1    2    0    0  0.35527136788E-14 -0.71054273576E-14  0.65195183966E+03  0.79896022499E+03  0.46184005877E+03 0.  0.
      99925    2    3    3    0    0  0.26099210045E+02 -0.58201753400E+02  0.58258677658E+03  0.64234722126E+03  0.26293342797E+03 0.  0.
         25    1    4    4    0    0  0.14630577707E+02 -0.29917474732E+02  0.38793796781E+03  0.40896513796E+03  0.12509000000E+03 0.  0.
         25    1    4    4    0    0  0.11468632338E+02 -0.28284278668E+02  0.19464880878E+03  0.23338208330E+03  0.12509000000E+03 0.  0.
         25    1    3    3    0    0 -0.26099210045E+02  0.58201753400E+02  0.69365063073E+02  0.15661300373E+03  0.12509000000E+03 0.  0.
<mgrwt>
<rscale>  2 0.46184006E+03</rscale>
<asrwt>0</asrwt>
<pdfrwt beam="1">  1       21 0.10668471E+00 0.46184006E+03</pdfrwt>
<pdfrwt beam="2">  1       21 0.10809440E-01 0.46184006E+03</pdfrwt>
<totfact> 0.45332298E+04</totfact>
</mgrwt>
</event>
<event>
 7    0  0.4737014E-002  0.4473936E+03  0.7546771E-02  0.1028502E+00
         21   -1    0    0  502  501  0.00000000000E+00  0.00000000000E+00  0.61334090427E+02  0.61334090427E+02  0.00000000000E+00 0.  1.
         21   -1    0    0  501  502 -0.00000000000E+00 -0.00000000000E+00 -0.81586384178E+03  0.81586384178E+03  0.00000000000E+00 0.  1.
      99926    2    1    2    0    0  0.00000000000E+00  0.00000000000E+00 -0.75452975135E+03  0.87719793221E+03  0.44739363718E+03 0.  0.
      99925    2    3    3    0    0  0.57418234456E+02 -0.45118859882E+02 -0.62843028510E+03  0.68515327945E+03  0.26301678261E+03 0.  0.
         25    1    4    4    0    0 -0.11254341670E+01 -0.46278430561E+02 -0.27331323815E+03  0.30412266273E+03  0.12509000000E+03 0.  0.
         25    1    4    4    0    0  0.58543668623E+02  0.11595706794E+01 -0.35511704695E+03  0.38103061671E+03  0.12509000000E+03 0.  0.
         25    1    3    3    0    0 -0.57418234456E+02  0.45118859882E+02 -0.12609946625E+03  0.19204465276E+03  0.12509000000E+03 0.  0.
<mgrwt>
<rscale>  2 0.44739364E+03</rscale>
<asrwt>0</asrwt>
<pdfrwt beam="1">  1       21 0.90197191E-02 0.44739364E+03</pdfrwt>
<pdfrwt beam="2">  1       21 0.11997998E+00 0.44739364E+03</pdfrwt>
<totfact> 0.46970653E+04</totfact>
</mgrwt>
</event>
<event>
 7    0  0.4737014E-002  0.4638974E+03  0.7546771E-02  0.1023657E+00
         21   -1    0    0  502  501  0.00000000000E+00  0.00000000000E+00  0.14823439894E+03  0.14823439894E+03  0.00000000000E+00 0. -1.
         21   -1    0    0  501  502 -0.00000000000E+00 -0.00000000000E+00 -0.36293999504E+03  0.36293999504E+03  0.00000000000E+00 0. -1.
      99926    2    1    2    0    0  0.00000000000E+00  0.00000000000E+00 -0.21470559609E+03  0.51117439398E+03  0.46389736803E+03 0.  0.
      99925    2    3    3    0    0  0.10496278327E+03 -0.59687884210E+02 -0.12182170342E+03  0.31405829872E+03  0.26308222703E+03 0.  0.
         25    1    4    4    0    0  0.96217076895E+02 -0.31496463577E+02 -0.69423138732E+02  0.17526218473E+03  0.12509000000E+03 0.  0.
         25    1    3    3    0    0 -0.10496278327E+03  0.59687884210E+02 -0.92883892675E+02  0.19711609526E+03  0.12509000000E+03 0.  0.
         25    1    4    4    0    0  0.87457063704E+01 -0.28191420633E+02 -0.52398564687E+02  0.13879611399E+03  0.12509000000E+03 0.  0.
<mgrwt>
<rscale>  2 0.46389737E+03</rscale>
<asrwt>0</asrwt>
<pdfrwt beam="1">  1       21 0.21799176E-01 0.46389737E+03</pdfrwt>
<pdfrwt beam="2">  1       21 0.53373529E-01 0.46389737E+03</pdfrwt>
<totfact> 0.60132516E+04</totfact>
</mgrwt>
</event>
<event>
 7    0  0.4737014E-002  0.4615613E+03  0.7546771E-02  0.1024329E+00
         21   -1    0    0  502  501  0.00000000000E+00  0.00000000000E+00  0.77272509491E+02  0.77272509491E+02  0.00000000000E+00 0.  1.
         21   -1    0    0  501  502 -0.00000000000E+00 -0.00000000000E+00 -0.68924525600E+03  0.68924525600E+03  0.00000000000E+00 0.  1.
      99926    2    1    2    0    0  0.00000000000E+00  0.00000000000E+00 -0.61197274650E+03  0.76651776549E+03  0.46156130941E+03 0.  0.
      99925    2    3    3    0    0  0.99423162786E+02  0.60033304802E+02 -0.42737825213E+03  0.51509859670E+03  0.26303123567E+03 0.  0.
         25    1    3    3    0    0 -0.99423162786E+02 -0.60033304802E+02 -0.18459449437E+03  0.25141916879E+03  0.12509000000E+03 0.  0.
         25    1    4    4    0    0  0.42255867988E+02  0.70191924016E+02 -0.22877594314E+03  0.27331008916E+03  0.12509000000E+03 0.  0.
         25    1    4    4    0    0  0.57167294798E+02 -0.10158619214E+02 -0.19860230900E+03  0.24178850754E+03  0.12509000000E+03 0.  0.
<mgrwt>
<rscale>  2 0.46156131E+03</rscale>
<asrwt>0</asrwt>
<pdfrwt beam="1">  1       21 0.11363604E-01 0.46156131E+03</pdfrwt>
<pdfrwt beam="2">  1       21 0.10135960E+00 0.46156131E+03</pdfrwt>
<totfact> 0.46960754E+04</totfact>
</mgrwt>
</event>
<event>
 7    0  0.4737014E-002  0.4532305E+03  0.7546771E-02  0.1026763E+00
         21   -1    0    0  502  501  0.00000000000E+00  0.00000000000E+00  0.13705912751E+03  0.13705912751E+03  0.00000000000E+00 0.  1.
         21   -1    0    0  501  502 -0.00000000000E+00 -0.00000000000E+00 -0.37468851831E+03  0.37468851831E+03  0.00000000000E+00 0.  1.
      99926    2    1    2    0    0  0.00000000000E+00  0.00000000000E+00 -0.23762939080E+03  0.51174764582E+03  0.45323054357E+03 0.  0.
      99925    2    3    3    0    0  0.34480870797E+02 -0.59096881366E+02 -0.49738818765E+02  0.27588381434E+03  0.26259580554E+03 0.  0.
         25    1    4    4    0    0  0.29961551776E+02 -0.65902228246E+02 -0.12271710266E+02  0.14504792741E+03  0.12509000000E+03 0.  0.
         25    1    3    3    0    0 -0.34480870797E+02  0.59096881366E+02 -0.18789057204E+03  0.23586383148E+03  0.12509000000E+03 0.  0.
         25    1    4    4    0    0  0.45193190215E+01  0.68053468806E+01 -0.37467108499E+02  0.13083588693E+03  0.12509000000E+03 0.  0.
<mgrwt>
<rscale>  2 0.45323054E+03</rscale>
<asrwt>0</asrwt>
<pdfrwt beam="1">  1       21 0.20155754E-01 0.45323054E+03</pdfrwt>
<pdfrwt beam="2">  1       21 0.55101253E-01 0.45323054E+03</pdfrwt>
<totfact> 0.65366029E+04</totfact>
</mgrwt>
</event>
<event>
 7    0  0.4737014E-002  0.4542822E+03  0.7546771E-02  0.1026453E+00
         21   -1    0    0  502  501  0.00000000000E+00  0.00000000000E+00  0.51035100402E+02  0.51035100402E+02  0.00000000000E+00 0.  1.
         21   -1    0    0  501  502 -0.00000000000E+00 -0.00000000000E+00 -0.10109330383E+04  0.10109330383E+04  0.00000000000E+00 0.  1.
      99926    2    1    2    0    0  0.00000000000E+00  0.35527136788E-14 -0.95989793789E+03  0.10619681387E+04  0.45428215509E+03 0.  0.
      99925    2    3    3    0    0 -0.10736436672E+03 -0.17301086491E+02 -0.67196174958E+03  0.72973148889E+03  0.26296200893E+03 0.  0.
         25    1    4    4    0    0 -0.17354094156E+02  0.92208124469E+01 -0.33903870863E+03  0.36191289286E+03  0.12509000000E+03 0.  0.
         25    1    3    3    0    0  0.10736436672E+03  0.17301086491E+02 -0.28793618831E+03  0.33223664981E+03  0.12509000000E+03 0.  0.
         25    1    4    4    0    0 -0.90010272568E+02 -0.26521898938E+02 -0.33292304095E+03  0.36781859603E+03  0.12509000000E+03 0.  0.
<mgrwt>
<rscale>  2 0.45428216E+03</rscale>
<asrwt>0</asrwt>
<pdfrwt beam="1">  1       21 0.75051620E-02 0.45428216E+03</pdfrwt>
<pdfrwt beam="2">  1       21 0.14866662E+00 0.45428216E+03</pdfrwt>
<totfact> 0.37048405E+04</totfact>
</mgrwt>
</event>
<event>
 7    0  0.4737014E-002  0.4585585E+03  0.7546771E-02  0.1025200E+00
         21   -1    0    0  502  501  0.00000000000E+00  0.00000000000E+00  0.51564921579E+03  0.51564921579E+03  0.00000000000E+00 0. -1.
         21   -1    0    0  501  502 -0.00000000000E+00 -0.00000000000E+00 -0.10194715220E+03  0.10194715220E+03  0.00000000000E+00 0. -1.
      99926    2    1    2    0    0  0.00000000000E+00  0.14210854715E-13  0.41370206359E+03  0.61759636799E+03  0.45855847646E+03 0.  0.
      99925    2    3    3    0    0 -0.33551079173E+02  0.10921040286E+03  0.22969482855E+03  0.36747888029E+03  0.26311295329E+03 0.  0.
         25    1    4    4    0    0 -0.46671399941E+02  0.70586952044E+02  0.15395833995E+03  0.21566505491E+03  0.12509000000E+03 0.  0.
         25    1    3    3    0    0  0.33551079173E+02 -0.10921040286E+03  0.18400723505E+03  0.25011748770E+03  0.12509000000E+03 0.  0.
         25    1    4    4    0    0  0.13120320768E+02  0.38623450813E+02  0.75736488600E+02  0.15181382538E+03  0.12509000000E+03 0.  0.
<mgrwt>
<rscale>  2 0.45855848E+03</rscale>
<asrwt>0</asrwt>
<pdfrwt beam="1">  1       21 0.75830766E-01 0.45855848E+03</pdfrwt>
<pdfrwt beam="2">  1       21 0.14992228E-01 0.45855848E+03</pdfrwt>
<totfact> 0.56017146E+04</totfact>
</mgrwt>
</event>
<event>
 7    0  0.4737014E-002  0.4702205E+03  0.7546771E-02  0.1021858E+00
         21   -1    0    0  502  501  0.00000000000E+00  0.00000000000E+00  0.10339799942E+04  0.10339799942E+04  0.00000000000E+00 0. -1.
         21   -1    0    0  501  502 -0.00000000000E+00 -0.00000000000E+00 -0.53460257657E+02  0.53460257657E+02  0.00000000000E+00 0. -1.
      99926    2    1    2    0    0  0.00000000000E+00  0.35527136788E-14  0.98051973659E+03  0.10874402519E+04  0.47022053083E+03 0.  0.
      99925    2    3    3    0    0 -0.12135788407E+03  0.10282387513E+02  0.52646076602E+03  0.60097286310E+03  0.26300946846E+03 0.  0.
         25    1    4    4    0    0 -0.46345991270E+02  0.38239752092E+02  0.21466830788E+03  0.25561733129E+03  0.12509000000E+03 0.  0.
         25    1    4    4    0    0 -0.75011892803E+02 -0.27957364579E+02  0.31179245814E+03  0.34535553181E+03  0.12509000000E+03 0.  0.
         25    1    3    3    0    0  0.12135788407E+03 -0.10282387513E+02  0.45405897057E+03  0.48646738881E+03  0.12509000000E+03 0.  0.
<mgrwt>
<rscale>  2 0.47022053E+03</rscale>
<asrwt>0</asrwt>
<pdfrwt beam="1">  1       21 0.15205587E+00 0.47022053E+03</pdfrwt>
<pdfrwt beam="2">  1       21 0.78618033E-02 0.47022053E+03</pdfrwt>
<totfact> 0.31964726E+04</totfact>
</mgrwt>
</event>
<event>
 7    0  0.4737014E-002  0.4597382E+03  0.7546771E-02  0.1024857E+00
         21   -1    0    0  502  501  0.00000000000E+00  0.00000000000E+00  0.85382822697E+02  0.85382822697E+02  0.00000000000E+00 0.  1.
         21   -1    0    0  501  502 -0.00000000000E+00 -0.00000000000E+00 -0.61885766143E+03  0.61885766143E+03  0.00000000000E+00 0.  1.
      99926    2    1    2    0    0  0.00000000000E+00  0.00000000000E+00 -0.53347483873E+03  0.70424048412E+03  0.45973824718E+03 0.  0.
      99925    2    3    3    0    0 -0.91628104479E+02 -0.53447839622E+02 -0.25631045207E+03  0.38218460943E+03  0.26290235213E+03 0.  0.
         25    1    4    4    0    0 -0.62813792165E+02 -0.62254539105E+02 -0.11877134874E+03  0.19384360064E+03  0.12509000000E+03 0.  0.
         25    1    3    3    0    0  0.91628104479E+02  0.53447839622E+02 -0.27716438666E+03  0.32205587469E+03  0.12509000000E+03 0.  0.
         25    1    4    4    0    0 -0.28814312314E+02  0.88066994830E+01 -0.13753910332E+03  0.18834100879E+03  0.12509000000E+03 0.  0.
<mgrwt>
<rscale>  2 0.45973825E+03</rscale>
<asrwt>0</asrwt>
<pdfrwt beam="1">  1       21 0.12556297E-01 0.45973825E+03</pdfrwt>
<pdfrwt beam="2">  1       21 0.91008481E-01 0.45973825E+03</pdfrwt>
<totfact> 0.50754299E+04</totfact>
</mgrwt>
</event>
<event>
 7    0  0.4737014E-002  0.4300079E+03  0.7546771E-02  0.1033857E+00
         21   -1    0    0  502  501  0.00000000000E+00  0.00000000000E+00  0.41195473814E+03  0.41195473814E+03  0.00000000000E+00 0.  1.
         21   -1    0    0  501  502 -0.00000000000E+00 -0.00000000000E+00 -0.11221305515E+03  0.11221305515E+03  0.00000000000E+00 0.  1.
      99926    2    1    2    0    0  0.00000000000E+00  0.00000000000E+00  0.29974168299E+03  0.52416779329E+03  0.43000790574E+03 0.  0.
      99925    2    3    3    0    0 -0.77435973452E+02 -0.40371024027E+02  0.18581611858E+03  0.33376639652E+03  0.26314678025E+03 0.  0.
         25    1    4    4    0    0 -0.19159462131E+02 -0.28313859430E+02  0.13232388484E+03  0.18527244324E+03  0.12509000000E+03 0.  0.
         25    1    3    3    0    0  0.77435973452E+02  0.40371024027E+02  0.11392556441E+03  0.19040139677E+03  0.12509000000E+03 0.  0.
         25    1    4    4    0    0 -0.58276511322E+02 -0.12057164597E+02  0.53492233741E+02  0.14849395328E+03  0.12509000000E+03 0.  0.
<mgrwt>
<rscale>  2 0.43000791E+03</rscale>
<asrwt>0</asrwt>
<pdfrwt beam="1">  1       21 0.60581578E-01 0.43000791E+03</pdfrwt>
<pdfrwt beam="2">  1       21 0.16501920E-01 0.43000791E+03</pdfrwt>
<totfact> 0.77916279E+04</totfact>
</mgrwt>
</event>
<event>
 7    0  0.4737014E-002  0.4509174E+03  0.7546771E-02  0.1027449E+00
         21   -1    0    0  502  501  0.00000000000E+00  0.00000000000E+00  0.16735999946E+04  0.16735999946E+04  0.00000000000E+00 0.  1.
         21   -1    0    0  501  502 -0.00000000000E+00 -0.00000000000E+00 -0.30372628803E+02  0.30372628803E+02  0.00000000000E+00 0.  1.
      99926    2    1    2    0    0  0.00000000000E+00  0.00000000000E+00  0.16432273658E+04  0.17039726234E+04  0.45091742659E+03 0.  0.
      99925    2    3    3    0    0  0.46310235548E+02  0.75897582204E+02  0.79693354067E+03  0.84387621750E+03  0.26290477613E+03 0.  0.
         25    1    4    4    0    0  0.39204026471E+02  0.18725065209E+02  0.29434350296E+03  0.32275871730E+03  0.12509000000E+03 0.  0.
         25    1    3    3    0    0 -0.46310235548E+02 -0.75897582204E+02  0.84629382513E+03  0.86009640591E+03  0.12509000000E+03 0.  0.
         25    1    4    4    0    0  0.71062090764E+01  0.57172516996E+02  0.50259003772E+03  0.52111750020E+03  0.12509000000E+03 0.  0.
<mgrwt>
<rscale>  2 0.45091743E+03</rscale>
<asrwt>0</asrwt>
<pdfrwt beam="1">  1       21 0.24611758E+00 0.45091743E+03</pdfrwt>
<pdfrwt beam="2">  1       21 0.44665642E-02 0.45091743E+03</pdfrwt>
<totfact> 0.19799382E+04</totfact>
</mgrwt>
</event>
<event>
 7    0  0.4737014E-002  0.4540873E+03  0.7546771E-02  0.1026510E+00
         21   -1    0    0  502  501  0.00000000000E+00  0.00000000000E+00  0.31420997327E+02  0.31420997327E+02  0.00000000000E+00 0. -1.
         21   -1    0    0  501  502 -0.00000000000E+00 -0.00000000000E+00 -0.16405852621E+04  0.16405852621E+04  0.00000000000E+00 0. -1.
      99926    2    1    2    0    0 -0.14210854715E-13  0.00000000000E+00 -0.16091642648E+04  0.16720062595E+04  0.45408732701E+03 0.  0.
      99925    2    3    3    0    0 -0.10969514061E+03  0.17440071701E+02 -0.93479176921E+03  0.97719480957E+03  0.26217716168E+03 0.  0.
         25    1    3    3    0    0  0.10969514061E+03 -0.17440071701E+02 -0.67437249560E+03  0.69481144989E+03  0.12509000000E+03 0.  0.
         25    1    4    4    0    0 -0.43892246627E+02  0.33308316175E+02 -0.36023958541E+03  0.38529993542E+03  0.12509000000E+03 0.  0.
         25    1    4    4    0    0 -0.65802893984E+02 -0.15868244473E+02 -0.57455218380E+03  0.59189487415E+03  0.12509000000E+03 0.  0.
<mgrwt>
<rscale>  2 0.45408733E+03</rscale>
<asrwt>0</asrwt>
<pdfrwt beam="1">  1       21 0.46207360E-02 0.45408733E+03</pdfrwt>
<pdfrwt beam="2">  1       21 0.24126248E+00 0.45408733E+03</pdfrwt>
<totfact> 0.19991803E+04</totfact>
</mgrwt>
</event>
<event>
 7    0  0.4737014E-002  0.4492208E+03  0.7546771E-02  0.1027955E+00
         21   -1    0    0  502  501  0.00000000000E+00  0.00000000000E+00  0.27133658701E+03  0.27133658701E+03  0.00000000000E+00 0.  1.
         21   -1    0    0  501  502 -0.00000000000E+00 -0.00000000000E+00 -0.18593083354E+03  0.18593083354E+03  0.00000000000E+00 0.  1.
      99926    2    1    2    0    0  0.00000000000E+00  0.35527136788E-14  0.85405753468E+02  0.45726742055E+03  0.44922082673E+03 0.  0.
      99925    2    3    3    0    0  0.56312502754E+02 -0.11452878751E+02 -0.38808331205E+02  0.27185190521E+03  0.26285947842E+03 0.  0.
         25    1    3    3    0    0 -0.56312502754E+02  0.11452878751E+02  0.12421408467E+03  0.18541551534E+03  0.12509000000E+03 0.  0.
         25    1    4    4    0    0  0.29332537242E+02 -0.45277150700E+02 -0.11577666775E+02  0.13671857439E+03  0.12509000000E+03 0.  0.
         25    1    4    4    0    0  0.26979965512E+02  0.33824271949E+02 -0.27230664430E+02  0.13513333082E+03  0.12509000000E+03 0.  0.
<mgrwt>
<rscale>  2 0.44922083E+03</rscale>
<asrwt>0</asrwt>
<pdfrwt beam="1">  1       21 0.39902440E-01 0.44922083E+03</pdfrwt>
<pdfrwt beam="2">  1       21 0.27342769E-01 0.44922083E+03</pdfrwt>
<totfact> 0.71622300E+04</totfact>
</mgrwt>
</event>
<event>
 7    0  0.4737014E-002  0.4412267E+03  0.7546771E-02  0.1030371E+00
         21   -1    0    0  502  501  0.00000000000E+00  0.00000000000E+00  0.24124509466E+03  0.24124509466E+03  0.00000000000E+00 0.  1.
         21   -1    0    0  501  502 -0.00000000000E+00 -0.00000000000E+00 -0.20174609084E+03  0.20174609084E+03  0.00000000000E+00 0.  1.
      99926    2    1    2    0    0  0.00000000000E+00  0.00000000000E+00  0.39499003827E+02  0.44299118550E+03  0.44122672078E+03 0.  0.
      99925    2    3    3    0    0  0.34434048409E+02  0.77289855365E+02  0.78206475883E+02  0.28708992853E+03  0.26295427124E+03 0.  0.
         25    1    4    4    0    0 -0.41604743809E+01  0.14828383908E+02  0.89346636137E+01  0.12635080859E+03  0.12509000000E+03 0.  0.
         25    1    3    3    0    0 -0.34434048409E+02 -0.77289855365E+02 -0.38707472056E+02  0.15590125697E+03  0.12509000000E+03 0.  0.
         25    1    4    4    0    0  0.38594522790E+02  0.62461471456E+02  0.69271812269E+02  0.16073911995E+03  0.12509000000E+03 0.  0.
<mgrwt>
<rscale>  2 0.44122672E+03</rscale>
<asrwt>0</asrwt>
<pdfrwt beam="1">  1       21 0.35477220E-01 0.44122672E+03</pdfrwt>
<pdfrwt beam="2">  1       21 0.29668543E-01 0.44122672E+03</pdfrwt>
<totfact> 0.77620183E+04</totfact>
</mgrwt>
</event>
<event>
 7    0  0.4737014E-002  0.4549131E+03  0.7546771E-02  0.1026267E+00
         21   -1    0    0  502  501  0.00000000000E+00  0.00000000000E+00  0.74410138699E+03  0.74410138699E+03  0.00000000000E+00 0. -1.
         21   -1    0    0  501  502 -0.00000000000E+00 -0.00000000000E+00 -0.69528808536E+02  0.69528808536E+02  0.00000000000E+00 0. -1.
      99926    2    1    2    0    0  0.00000000000E+00 -0.14210854715E-13  0.67457257846E+03  0.81363019553E+03  0.45491310321E+03 0.  0.
      99925    2    3    3    0    0 -0.16219526781E+02 -0.11110388996E+03  0.40251789765E+03  0.49383587904E+03  0.26314648027E+03 0.  0.
         25    1    4    4    0    0 -0.29243657166E+02 -0.51855880591E+02  0.26081259738E+03  0.29532176163E+03  0.12509000000E+03 0.  0.
         25    1    4    4    0    0  0.13024130385E+02 -0.59248009371E+02  0.14170530027E+03  0.19851411741E+03  0.12509000000E+03 0.  0.
         25    1    3    3    0    0  0.16219526781E+02  0.11110388996E+03  0.27205468081E+03  0.31979431649E+03  0.12509000000E+03 0.  0.
<mgrwt>
<rscale>  2 0.45491310E+03</rscale>
<asrwt>0</asrwt>
<pdfrwt beam="1">  1       21 0.10942667E+00 0.45491310E+03</pdfrwt>
<pdfrwt beam="2">  1       21 0.10224825E-01 0.45491310E+03</pdfrwt>
<totfact> 0.47144732E+04</totfact>
</mgrwt>
</event>
<event>
 7    0  0.4737014E-002  0.4563145E+03  0.7546771E-02  0.1025856E+00
         21   -1    0    0  502  501  0.00000000000E+00  0.00000000000E+00  0.29309751893E+03  0.29309751893E+03  0.00000000000E+00 0.  1.
         21   -1    0    0  501  502 -0.00000000000E+00 -0.00000000000E+00 -0.17760546140E+03  0.17760546140E+03  0.00000000000E+00 0.  1.
      99926    2    1    2    0    0 -0.14210854715E-13  0.00000000000E+00  0.11549205754E+03  0.47070298033E+03  0.45631445335E+03 0.  0.
      99925    2    3    3    0    0 -0.68980079083E+02 -0.90679468513E+02  0.61622017978E+02  0.29313466507E+03  0.26296319410E+03 0.  0.
         25    1    4    4    0    0 -0.71589335812E+02 -0.52296454483E+02  0.14370357861E+02  0.15399340063E+03  0.12509000000E+03 0.  0.
         25    1    4    4    0    0  0.26092567289E+01 -0.38383014030E+02  0.47251660117E+02  0.13914126444E+03  0.12509000000E+03 0.  0.
         25    1    3    3    0    0  0.68980079083E+02  0.90679468513E+02  0.53870039557E+02  0.17756831525E+03  0.12509000000E+03 0.  0.
<mgrwt>
<rscale>  2 0.45631445E+03</rscale>
<asrwt>0</asrwt>
<pdfrwt beam="1">  1       21 0.43102576E-01 0.45631445E+03</pdfrwt>
<pdfrwt beam="2">  1       21 0.26118450E-01 0.45631445E+03</pdfrwt>
<totfact> 0.66685399E+04</totfact>
</mgrwt>
</event>
<event>
 7    0  0.4737014E-002  0.4912224E+03  0.7546771E-02  0.1016096E+00
         21   -1    0    0  502  501  0.00000000000E+00  0.00000000000E+00  0.28383877590E+03  0.28383877590E+03  0.00000000000E+00 0.  1.
         21   -1    0    0  501  502 -0.00000000000E+00 -0.00000000000E+00 -0.21253217596E+03  0.21253217596E+03  0.00000000000E+00 0.  1.
      99926    2    1    2    0    0  0.00000000000E+00  0.00000000000E+00  0.71306599937E+02  0.49637095186E+03  0.49122244518E+03 0.  0.
      99925    2    3    3    0    0 -0.97804768341E+01  0.49229934523E+02 -0.93389143340E+02  0.28355309515E+03  0.26298589600E+03 0.  0.
         25    1    3    3    0    0  0.97804768341E+01 -0.49229934523E+02  0.16469574328E+03  0.21281785671E+03  0.12509000000E+03 0.  0.
         25    1    4    4    0    0 -0.51677948169E+01  0.62259228281E+02 -0.31588770670E+02  0.14334669910E+03  0.12509000000E+03 0.  0.
         25    1    4    4    0    0 -0.46126820172E+01 -0.13029293758E+02 -0.61800372671E+02  0.14020639605E+03  0.12509000000E+03 0.  0.
<mgrwt>
<rscale>  2 0.49122245E+03</rscale>
<asrwt>0</asrwt>
<pdfrwt beam="1">  1       21 0.41740996E-01 0.49122245E+03</pdfrwt>
<pdfrwt beam="2">  1       21 0.31254732E-01 0.49122245E+03</pdfrwt>
<totfact> 0.49635395E+04</totfact>
</mgrwt>
</event>
<event>
 7    0  0.4737014E-002  0.4542847E+03  0.7546771E-02  0.1026452E+00
         21   -1    0    0  502  501  0.00000000000E+00  0.00000000000E+00  0.69619660435E+02  0.69619660435E+02  0.00000000000E+00 0.  1.
         21   -1    0    0  501  502 -0.00000000000E+00 -0.00000000000E+00 -0.74107883146E+03  0.74107883146E+03  0.00000000000E+00 0.  1.
      99926    2    1    2    0    0  0.00000000000E+00  0.00000000000E+00 -0.67145917103E+03  0.81069849190E+03  0.45428474155E+03 0.  0.
      99925    2    3    3    0    0  0.74067767912E+02 -0.84143104879E+02 -0.40565381722E+03  0.49626870553E+03  0.26298576448E+03 0.  0.
         25    1    4    4    0    0  0.16808273266E+02 -0.43438948784E+02 -0.25746746976E+03  0.29001114877E+03  0.12509000000E+03 0.  0.
         25    1    3    3    0    0 -0.74067767912E+02  0.84143104879E+02 -0.26580535380E+03  0.31442978636E+03  0.12509000000E+03 0.  0.
         25    1    4    4    0    0  0.57259494646E+02 -0.40704156094E+02 -0.14818634746E+03  0.20625755677E+03  0.12509000000E+03 0.  0.
<mgrwt>
<rscale>  2 0.45428474E+03</rscale>
<asrwt>0</asrwt>
<pdfrwt beam="1">  1       21 0.10238186E-01 0.45428474E+03</pdfrwt>
<pdfrwt beam="2">  1       21 0.10898218E+00 0.45428474E+03</pdfrwt>
<totfact> 0.47517832E+04</totfact>
</mgrwt>
</event>
<event>
 7    0  0.4737014E-002  0.4572972E+03  0.7546771E-02  0.1025568E+00
         21   -1    0    0  502  501  0.00000000000E+00  0.00000000000E+00  0.20932970619E+03  0.20932970619E+03  0.00000000000E+00 0. -1.
         21   -1    0    0  501  502 -0.00000000000E+00 -0.00000000000E+00 -0.24975040282E+03  0.24975040282E+03  0.00000000000E+00 0. -1.
      99926    2    1    2    0    0  0.00000000000E+00  0.00000000000E+00 -0.40420696633E+02  0.45908010902E+03  0.45729718322E+03 0.  0.
      99925    2    3    3    0    0  0.59789044304E+02 -0.21429548475E+02 -0.12180563237E+03  0.29689203538E+03  0.26320013911E+03 0.  0.
         25    1    3    3    0    0 -0.59789044304E+02  0.21429548475E+02  0.81384935735E+02  0.16218807364E+03  0.12509000000E+03 0.  0.
         25    1    4    4    0    0  0.46247690820E+02  0.20391493052E+01 -0.23339835386E+02  0.13540776585E+03  0.12509000000E+03 0.  0.
         25    1    4    4    0    0  0.13541353484E+02 -0.23468697780E+02 -0.98465796982E+02  0.16148426953E+03  0.12509000000E+03 0.  0.
<mgrwt>
<rscale>  2 0.45729718E+03</rscale>
<asrwt>0</asrwt>
<pdfrwt beam="1">  1       21 0.30783780E-01 0.45729718E+03</pdfrwt>
<pdfrwt beam="2">  1       21 0.36728001E-01 0.45729718E+03</pdfrwt>
<totfact> 0.67011277E+04</totfact>
</mgrwt>
</event>
<event>
 7    0  0.4737014E-002  0.4552029E+03  0.7546771E-02  0.1026182E+00
         21   -1    0    0  502  501  0.00000000000E+00  0.00000000000E+00  0.93766224987E+02  0.93766224987E+02  0.00000000000E+00 0. -1.
         21   -1    0    0  501  502 -0.00000000000E+00 -0.00000000000E+00 -0.55246356220E+03  0.55246356220E+03  0.00000000000E+00 0. -1.
      99926    2    1    2    0    0  0.35527136788E-14 -0.35527136788E-14 -0.45869733721E+03  0.64622978718E+03  0.45520291155E+03 0.  0.
      99925    2    3    3    0    0 -0.29522244107E+02 -0.13714686019E+02 -0.13463149382E+03  0.29733749082E+03  0.26310509081E+03 0.  0.
         25    1    4    4    0    0  0.64776832197E+01  0.27958607059E+02 -0.69194425065E+02  0.14580473466E+03  0.12509000000E+03 0.  0.
         25    1    4    4    0    0 -0.35999927326E+02 -0.41673293078E+02 -0.65437068758E+02  0.15153275617E+03  0.12509000000E+03 0.  0.
         25    1    3    3    0    0  0.29522244107E+02  0.13714686019E+02 -0.32406584339E+03  0.34889229636E+03  0.12509000000E+03 0.  0.
<mgrwt>
<rscale>  2 0.45520291E+03</rscale>
<asrwt>0</asrwt>
<pdfrwt beam="1">  1       21 0.13789151E-01 0.45520291E+03</pdfrwt>
<pdfrwt beam="2">  1       21 0.81244640E-01 0.45520291E+03</pdfrwt>
<totfact> 0.55829779E+04</totfact>
</mgrwt>
</event>
<event>
 7    0  0.4737014E-002  0.4540604E+03  0.7546771E-02  0.1026518E+00
         21   -1    0    0  502  501  0.00000000000E+00  0.00000000000E+00  0.16815532444E+03  0.16815532444E+03  0.00000000000E+00 0.  1.
         21   -1    0    0  501  502 -0.00000000000E+00 -0.00000000000E+00 -0.30651849977E+03  0.30651849977E+03  0.00000000000E+00 0.  1.
      99926    2    1    2    0    0  0.00000000000E+00  0.71054273576E-14 -0.13836317533E+03  0.47467382421E+03  0.45406042671E+03 0.  0.
      99925    2    3    3    0    0 -0.81265266254E+02 -0.43445689979E+02 -0.20118057360E+02  0.27942785754E+03  0.26302779295E+03 0.  0.
         25    1    4    4    0    0 -0.29969820059E+02 -0.39915924398E+02 -0.44825236717E+02  0.14194464091E+03  0.12509000000E+03 0.  0.
         25    1    3    3    0    0  0.81265266254E+02  0.43445689979E+02 -0.11824511797E+03  0.19524596667E+03  0.12509000000E+03 0.  0.
         25    1    4    4    0    0 -0.51295446195E+02 -0.35297655806E+01  0.24707179357E+02  0.13748321664E+03  0.12509000000E+03 0.  0.
<mgrwt>
<rscale>  2 0.45406043E+03</rscale>
<asrwt>0</asrwt>
<pdfrwt beam="1">  1       21 0.24728725E-01 0.45406043E+03</pdfrwt>
<pdfrwt beam="2">  1       21 0.45076249E-01 0.45406043E+03</pdfrwt>
<totfact> 0.67592492E+04</totfact>
</mgrwt>
</event>
<event>
 6    0  0.4737014E-002  0.4570190E+03  0.7546771E-02  0.1025649E+00
         21   -1    0    0  502  501  0.00000000000E+00  0.00000000000E+00  0.76010695594E+02  0.76010695594E+02  0.00000000000E+00 0.  1.
         21   -1    0    0  501  502 -0.00000000000E+00 -0.00000000000E+00 -0.68696376481E+03  0.68696376481E+03  0.00000000000E+00 0.  1.
      99926    2    1    2    0    0  0.00000000000E+00  0.14210854715E-13 -0.61095306922E+03  0.76297446041E+03  0.45701900884E+03 0.  0.
         25    1    3    3    0    0 -0.57537911699E+02 -0.33906708428E+02 -0.20382349292E+03  0.24829780612E+03  0.12509000000E+03 0.  0.
         25    1    3    3    0    0  0.75488708665E+02  0.77107622055E+02 -0.30382380928E+03  0.34583311829E+03  0.12509000000E+03 0.  0.
         25    1    3    3    0    0 -0.17950796966E+02 -0.43200913627E+02 -0.10330576701E+03  0.16884353600E+03  0.12509000000E+03 0.  0.
<mgrwt>
<rscale>  2 0.45701901E+03</rscale>
<asrwt>0</asrwt>
<pdfrwt beam="1">  1       21 0.11178044E-01 0.45701901E+03</pdfrwt>
<pdfrwt beam="2">  1       21 0.10102408E+00 0.45701901E+03</pdfrwt>
<totfact> 0.48828939E+04</totfact>
</mgrwt>
</event>
<event>
 7    0  0.4737014E-002  0.4672482E+03  0.7546771E-02  0.1022700E+00
         21   -1    0    0  502  501  0.00000000000E+00  0.00000000000E+00  0.44905114361E+02  0.44905114361E+02  0.00000000000E+00 0.  1.
         21   -1    0    0  501  502 -0.00000000000E+00 -0.00000000000E+00 -0.12154567420E+04  0.12154567420E+04  0.00000000000E+00 0.  1.
      99926    2    1    2    0    0  0.00000000000E+00  0.00000000000E+00 -0.11705516276E+04  0.12603618563E+04  0.46724821668E+03 0.  0.
      99925    2    3    3    0    0 -0.85215136149E+02 -0.70057881099E+02 -0.88386378786E+03  0.92868859588E+03  0.26282615263E+03 0.  0.
         25    1    4    4    0    0 -0.32129816539E+02 -0.70716990734E+02 -0.40585517927E+03  0.43173968144E+03  0.12509000000E+03 0.  0.
         25    1    4    4    0    0 -0.53085319610E+02  0.65910963457E+00 -0.47800860859E+03  0.49694891445E+03  0.12509000000E+03 0.  0.
         25    1    3    3    0    0  0.85215136149E+02  0.70057881099E+02 -0.28668783973E+03  0.33167326043E+03  0.12509000000E+03 0.  0.
<mgrwt>
<rscale>  2 0.46724822E+03</rscale>
<asrwt>0</asrwt>
<pdfrwt beam="1">  1       21 0.66036933E-02 0.46724822E+03</pdfrwt>
<pdfrwt beam="2">  1       21 0.17874364E+00 0.46724822E+03</pdfrwt>
<totfact> 0.27564737E+04</totfact>
</mgrwt>
</event>
<event>
 7    0  0.4737014E-002  0.4516967E+03  0.7546771E-02  0.1027217E+00
         21   -1    0    0  502  501  0.00000000000E+00  0.00000000000E+00  0.84953496377E+02  0.84953496377E+02  0.00000000000E+00 0. -1.
         21   -1    0    0  501  502 -0.00000000000E+00 -0.00000000000E+00 -0.60041648721E+03  0.60041648721E+03  0.00000000000E+00 0. -1.
      99926    2    1    2    0    0  0.00000000000E+00  0.00000000000E+00 -0.51546299083E+03  0.68536998359E+03  0.45169671184E+03 0.  0.
      99925    2    3    3    0    0  0.24092863748E+02  0.10531260407E+03 -0.29131033195E+03  0.40686839788E+03  0.26269559004E+03 0.  0.
         25    1    4    4    0    0  0.42614451202E+02  0.55279278120E+02 -0.11206429583E+03  0.18187277020E+03  0.12509000000E+03 0.  0.
         25    1    3    3    0    0 -0.24092863748E+02 -0.10531260407E+03 -0.22415265888E+03  0.27850158571E+03  0.12509000000E+03 0.  0.
         25    1    4    4    0    0 -0.18521587454E+02  0.50033325950E+02 -0.17924603613E+03  0.22499562768E+03  0.12509000000E+03 0.  0.
<mgrwt>
<rscale>  2 0.45169671E+03</rscale>
<asrwt>0</asrwt>
<pdfrwt beam="1">  1       21 0.12493161E-01 0.45169671E+03</pdfrwt>
<pdfrwt beam="2">  1       21 0.88296541E-01 0.45169671E+03</pdfrwt>
<totfact> 0.55124375E+04</totfact>
</mgrwt>
</event>
<event>
 7    0  0.4737014E-002  0.4419186E+03  0.7546771E-02  0.1030160E+00
         21   -1    0    0  502  501  0.00000000000E+00  0.00000000000E+00  0.10114397718E+04  0.10114397718E+04  0.00000000000E+00 0.  1.
         21   -1    0    0  501  502 -0.00000000000E+00 -0.00000000000E+00 -0.48270798815E+02  0.48270798815E+02  0.00000000000E+00 0.  1.
      99926    2    1    2    0    0  0.00000000000E+00  0.14210854715E-13  0.96316897296E+03  0.10597105706E+04  0.44191857050E+03 0.  0.
      99925    2    3    3    0    0 -0.55371607697E+01 -0.99700592872E+02  0.63863137759E+03  0.69785006256E+03  0.26300913481E+03 0.  0.
         25    1    3    3    0    0  0.55371607697E+01  0.99700592872E+02  0.32453759537E+03  0.36186050804E+03  0.12509000000E+03 0.  0.
         25    1    4    4    0    0  0.29265190492E+01 -0.89341981593E+02  0.38979133829E+03  0.41901712339E+03  0.12509000000E+03 0.  0.
         25    1    4    4    0    0 -0.84636798189E+01 -0.10358611279E+02  0.24884003931E+03  0.27883293917E+03  0.12509000000E+03 0.  0.
<mgrwt>
<rscale>  2 0.44191857E+03</rscale>
<asrwt>0</asrwt>
<pdfrwt beam="1">  1       21 0.14874113E+00 0.44191857E+03</pdfrwt>
<pdfrwt beam="2">  1       21 0.70986475E-02 0.44191857E+03</pdfrwt>
<totfact> 0.40946376E+04</totfact>
</mgrwt>
</event>
<event>
 7    0  0.4737014E-002  0.4252524E+03  0.7546771E-02  0.1035370E+00
         21   -1    0    0  502  501  0.00000000000E+00  0.00000000000E+00  0.21297024760E+03  0.21297024760E+03  0.00000000000E+00 0. -1.
         21   -1    0    0  501  502 -0.00000000000E+00 -0.00000000000E+00 -0.21228272464E+03  0.21228272464E+03  0.00000000000E+00 0. -1.
      99926    2    1    2    0    0 -0.14210854715E-13  0.00000000000E+00  0.68752295928E+00  0.42525297225E+03  0.42525241647E+03 0.  0.
      99925    2    3    3    0    0 -0.66034060247E+02  0.13647803578E+02 -0.46641183840E+02  0.27547221834E+03  0.26298818108E+03 0.  0.
         25    1    4    4    0    0  0.77736360928E+01  0.83092800846E+01 -0.30360791445E+02  0.12922367937E+03  0.12509000000E+03 0.  0.
         25    1    4    4    0    0 -0.73807696340E+02  0.53385234936E+01 -0.16280392395E+02  0.14624853896E+03  0.12509000000E+03 0.  0.
         25    1    3    3    0    0  0.66034060247E+02 -0.13647803578E+02  0.47328706799E+02  0.14978075391E+03  0.12509000000E+03 0.  0.
<mgrwt>
<rscale>  2 0.42525242E+03</rscale>
<asrwt>0</asrwt>
<pdfrwt beam="1">  1       21 0.31319154E-01 0.42525242E+03</pdfrwt>
<pdfrwt beam="2">  1       21 0.31218048E-01 0.42525242E+03</pdfrwt>
<totfact> 0.90410451E+04</totfact>
</mgrwt>
</event>
<event>
 7    0  0.4737014E-002  0.4527880E+03  0.7546771E-02  0.1026894E+00
         21   -1    0    0  502  501  0.00000000000E+00  0.00000000000E+00  0.58193555157E+03  0.58193555157E+03  0.00000000000E+00 0. -1.
         21   -1    0    0  501  502 -0.00000000000E+00 -0.00000000000E+00 -0.88075467296E+02  0.88075467296E+02  0.00000000000E+00 0. -1.
      99926    2    1    2    0    0  0.14210854715E-13  0.35527136788E-14  0.49386008427E+03  0.67001101886E+03  0.45278801062E+03 0.  0.
      99925    2    3    3    0    0  0.10862659906E+03  0.22377900875E+02  0.32449390162E+03  0.43203429648E+03  0.26278666761E+03 0.  0.
         25    1    4    4    0    0  0.59787066232E+02  0.51351116371E+02  0.16982686712E+03  0.22516683445E+03  0.12509000000E+03 0.  0.
         25    1    3    3    0    0 -0.10862659906E+03 -0.22377900875E+02  0.16936618265E+03  0.23797672238E+03  0.12509000000E+03 0.  0.
         25    1    4    4    0    0  0.48839532833E+02 -0.28973215496E+02  0.15466703451E+03  0.20686746203E+03  0.12509000000E+03 0.  0.
<mgrwt>
<rscale>  2 0.45278801E+03</rscale>
<asrwt>0</asrwt>
<pdfrwt beam="1">  1       21 0.85578756E-01 0.45278801E+03</pdfrwt>
<pdfrwt beam="2">  1       21 0.12952275E-01 0.45278801E+03</pdfrwt>
<totfact> 0.55523514E+04</totfact>
</mgrwt>
</event>
<event>
 7    0  0.4737014E-002  0.4579462E+03  0.7546771E-02  0.1025379E+00
         21   -1    0    0  502  501  0.00000000000E+00  0.00000000000E+00  0.54454863951E+02  0.54454863951E+02  0.00000000000E+00 0. -1.
         21   -1    0    0  501  502 -0.00000000000E+00 -0.00000000000E+00 -0.96279157108E+03  0.96279157108E+03  0.00000000000E+00 0. -1.
      99926    2    1    2    0    0 -0.35527136788E-14  0.00000000000E+00 -0.90833670713E+03  0.10172464350E+04  0.45794621525E+03 0.  0.
      99925    2    3    3    0    0 -0.28057768727E+02 -0.85552804773E+02 -0.73201429086E+03  0.78305928045E+03  0.26311669254E+03 0.  0.
         25    1    3    3    0    0  0.28057768727E+02  0.85552804773E+02 -0.17632241628E+03  0.23418715458E+03  0.12509000000E+03 0.  0.
         25    1    4    4    0    0  0.29331725183E+01 -0.81159228251E+02 -0.39551151856E+03  0.42269645521E+03  0.12509000000E+03 0.  0.
         25    1    4    4    0    0 -0.30990941245E+02 -0.43935765224E+01 -0.33650277230E+03  0.36036282525E+03  0.12509000000E+03 0.  0.
<mgrwt>
<rscale>  2 0.45794622E+03</rscale>
<asrwt>0</asrwt>
<pdfrwt beam="1">  1       21 0.80080686E-02 0.45794622E+03</pdfrwt>
<pdfrwt beam="2">  1       21 0.14158699E+00 0.45794622E+03</pdfrwt>
<totfact> 0.37629478E+04</totfact>
</mgrwt>
</event>
<event>
 7    0  0.4737014E-002  0.4525886E+03  0.7546771E-02  0.1026953E+00
         21   -1    0    0  502  501  0.00000000000E+00  0.00000000000E+00  0.26580478762E+03  0.26580478762E+03  0.00000000000E+00 0. -1.
         21   -1    0    0  501  502 -0.00000000000E+00 -0.00000000000E+00 -0.19265686825E+03  0.19265686825E+03  0.00000000000E+00 0. -1.
      99926    2    1    2    0    0  0.00000000000E+00  0.00000000000E+00  0.73147919371E+02  0.45846165586E+03  0.45258863418E+03 0.  0.
      99925    2    3    3    0    0 -0.78917590265E+02  0.77859539596E+02  0.46638012168E+02  0.28922697490E+03  0.26303430361E+03 0.  0.
         25    1    4    4    0    0 -0.60028418101E+01  0.62131221776E+02  0.22414422585E+02  0.14158473530E+03  0.12509000000E+03 0.  0.
         25    1    4    4    0    0 -0.72914748455E+02  0.15728317820E+02  0.24223589583E+02  0.14764223961E+03  0.12509000000E+03 0.  0.
         25    1    3    3    0    0  0.78917590265E+02 -0.77859539596E+02  0.26509907203E+02  0.16923468096E+03  0.12509000000E+03 0.  0.
<mgrwt>
<rscale>  2 0.45258863E+03</rscale>
<asrwt>0</asrwt>
<pdfrwt beam="1">  1       21 0.39088939E-01 0.45258863E+03</pdfrwt>
<pdfrwt beam="2">  1       21 0.28331892E-01 0.45258863E+03</pdfrwt>
<totfact> 0.69621971E+04</totfact>
</mgrwt>
</event>
<event>
 7    0  0.4737014E-002  0.4611819E+03  0.7546771E-02  0.1024439E+00
         21   -1    0    0  502  501  0.00000000000E+00  0.00000000000E+00  0.88578181273E+03  0.88578181273E+03  0.00000000000E+00 0. -1.
         21   -1    0    0  501  502 -0.00000000000E+00 -0.00000000000E+00 -0.60028548661E+02  0.60028548661E+02  0.00000000000E+00 0. -1.
      99926    2    1    2    0    0  0.00000000000E+00  0.00000000000E+00  0.82575326407E+03  0.94581036139E+03  0.46118194522E+03 0.  0.
      99925    2    3    3    0    0 -0.80576015521E+02  0.78319444462E+02  0.59597667803E+03  0.66108028351E+03  0.26308270721E+03 0.  0.
         25    1    4    4    0    0 -0.33568218186E+02  0.80035396324E+02  0.32916320916E+03  0.36266846610E+03  0.12509000000E+03 0.  0.
         25    1    4    4    0    0 -0.47007797335E+02 -0.17159518626E+01  0.26681346887E+03  0.29841181742E+03  0.12509000000E+03 0.  0.
         25    1    3    3    0    0  0.80576015521E+02 -0.78319444462E+02  0.22977658603E+03  0.28473007787E+03  0.12509000000E+03 0.  0.
<mgrwt>
<rscale>  2 0.46118195E+03</rscale>
<asrwt>0</asrwt>
<pdfrwt beam="1">  1       21 0.13026202E+00 0.46118195E+03</pdfrwt>
<pdfrwt beam="2">  1       21 0.88277283E-02 0.46118195E+03</pdfrwt>
<totfact> 0.39372722E+04</totfact>
</mgrwt>
</event>
<event>
 7    0  0.4737014E-002  0.4507876E+03  0.7546771E-02  0.1027487E+00
         21   -1    0    0  502  501  0.00000000000E+00  0.00000000000E+00  0.15062673042E+03  0.15062673042E+03  0.00000000000E+00 0. -1.
         21   -1    0    0  501  502 -0.00000000000E+00 -0.00000000000E+00 -0.33727318948E+03  0.33727318948E+03  0.00000000000E+00 0. -1.
      99926    2    1    2    0    0  0.00000000000E+00  0.17763568394E-14 -0.18664645906E+03  0.48789991991E+03  0.45078756767E+03 0.  0.
      99925    2    3    3    0    0 -0.98231782910E+02  0.13063287846E+02 -0.16746801189E+03  0.32716581152E+03  0.26300532420E+03 0.  0.
         25    1    4    4    0    0 -0.61784231060E+02 -0.30853242360E+02 -0.96656614575E+02  0.17250861721E+03  0.12509000000E+03 0.  0.
         25    1    4    4    0    0 -0.36447551850E+02  0.43916530206E+02 -0.70811397319E+02  0.15465719431E+03  0.12509000000E+03 0.  0.
         25    1    3    3    0    0  0.98231782910E+02 -0.13063287846E+02 -0.19178447168E+02  0.16073410839E+03  0.12509000000E+03 0.  0.
<mgrwt>
<rscale>  2 0.45078757E+03</rscale>
<asrwt>0</asrwt>
<pdfrwt beam="1">  1       21 0.22150990E-01 0.45078757E+03</pdfrwt>
<pdfrwt beam="2">  1       21 0.49598998E-01 0.45078757E+03</pdfrwt>
<totfact> 0.68387901E+04</totfact>
</mgrwt>
</event>
<event>
 7    0  0.4737014E-002  0.4516003E+03  0.7546771E-02  0.1027246E+00
         21   -1    0    0  502  501  0.00000000000E+00  0.00000000000E+00  0.13053475244E+03  0.13053475244E+03  0.00000000000E+00 0. -1.
         21   -1    0    0  501  502 -0.00000000000E+00 -0.00000000000E+00 -0.39059105535E+03  0.39059105535E+03  0.00000000000E+00 0. -1.
      99926    2    1    2    0    0  0.00000000000E+00  0.00000000000E+00 -0.26005630291E+03  0.52112580780E+03  0.45160029547E+03 0.  0.
      99925    2    3    3    0    0  0.63250061054E+02 -0.89995451608E+02 -0.16273566697E+03  0.32820466895E+03  0.26293660050E+03 0.  0.
         25    1    4    4    0    0  0.53819949334E+02 -0.69644609160E+02 -0.58204833052E+02  0.16365289249E+03  0.12509000000E+03 0.  0.
         25    1    3    3    0    0 -0.63250061054E+02  0.89995451608E+02 -0.97320635943E+02  0.19292113885E+03  0.12509000000E+03 0.  0.
         25    1    4    4    0    0  0.94301117204E+01 -0.20350842448E+02 -0.10453083392E+03  0.16455177646E+03  0.12509000000E+03 0.  0.
<mgrwt>
<rscale>  2 0.45160030E+03</rscale>
<asrwt>0</asrwt>
<pdfrwt beam="1">  1       21 0.19196287E-01 0.45160030E+03</pdfrwt>
<pdfrwt beam="2">  1       21 0.57439861E-01 0.45160030E+03</pdfrwt>
<totfact> 0.65560448E+04</totfact>
</mgrwt>
</event>
<event>
 7    0  0.4737014E-002  0.4585013E+03  0.7546771E-02  0.1025217E+00
         21   -1    0    0  502  501  0.00000000000E+00  0.00000000000E+00  0.17746793974E+03  0.17746793974E+03  0.00000000000E+00 0.  1.
         21   -1    0    0  501  502 -0.00000000000E+00 -0.00000000000E+00 -0.29614281979E+03  0.29614281979E+03  0.00000000000E+00 0.  1.
      99926    2    1    2    0    0  0.00000000000E+00  0.00000000000E+00 -0.11867488006E+03  0.47361075953E+03  0.45850128068E+03 0.  0.
      99925    2    3    3    0    0 -0.81234981259E+01 -0.43599585620E+02 -0.18572092055E+03  0.32491780498E+03  0.26289238212E+03 0.  0.
         25    1    3    3    0    0  0.81234981259E+01  0.43599585620E+02  0.67046040493E+02  0.14869295455E+03  0.12509000000E+03 0.  0.
         25    1    4    4    0    0  0.78261002196E+01  0.44011108855E+01 -0.54631598006E+02  0.13679450728E+03  0.12509000000E+03 0.  0.
         25    1    4    4    0    0 -0.15949598346E+02 -0.48000696506E+02 -0.13108932254E+03  0.18812329770E+03  0.12509000000E+03 0.  0.
<mgrwt>
<rscale>  2 0.45850128E+03</rscale>
<asrwt>0</asrwt>
<pdfrwt beam="1">  1       21 0.26098227E-01 0.45850128E+03</pdfrwt>
<pdfrwt beam="2">  1       21 0.43550414E-01 0.45850128E+03</pdfrwt>
<totfact> 0.65334373E+04</totfact>
</mgrwt>
</event>
<event>
 6    0  0.4737014E-002  0.4356413E+03  0.7546771E-02  0.1032093E+00
         21   -1    0    0  502  501  0.00000000000E+00  0.00000000000E+00  0.32224141030E+03  0.32224141030E+03  0.00000000000E+00 0.  1.
         21   -1    0    0  501  502 -0.00000000000E+00 -0.00000000000E+00 -0.14723693006E+03  0.14723693006E+03  0.00000000000E+00 0.  1.
      99926    2    1    2    0    0  0.71054273576E-14  0.71054273576E-14  0.17500448025E+03  0.46947834036E+03  0.43564130195E+03 0.  0.
         25    1    3    3    0    0 -0.59009242723E+02 -0.58601450874E+02  0.88162946020E+01  0.15047078096E+03  0.12509000000E+03 0.  0.
         25    1    3    3    0    0 -0.44078108956E+01  0.33159337319E+02  0.71911494631E+02  0.14811394805E+03  0.12509000000E+03 0.  0.
         25    1    3    3    0    0  0.63417053619E+02  0.25442113555E+02  0.94276691014E+02  0.17089361135E+03  0.12509000000E+03 0.  0.
<mgrwt>
<rscale>  2 0.43564130E+03</rscale>
<asrwt>0</asrwt>
<pdfrwt beam="1">  1       21 0.47388443E-01 0.43564130E+03</pdfrwt>
<pdfrwt beam="2">  1       21 0.21652490E-01 0.43564130E+03</pdfrwt>
<totfact> 0.78921653E+04</totfact>
</mgrwt>
</event>
<event>
 7    0  0.4737014E-002  0.4562466E+03  0.7546771E-02  0.1025875E+00
         21   -1    0    0  502  501  0.00000000000E+00  0.00000000000E+00  0.14274748723E+03  0.14274748723E+03  0.00000000000E+00 0.  1.
         21   -1    0    0  501  502 -0.00000000000E+00 -0.00000000000E+00 -0.36456151847E+03  0.36456151847E+03  0.00000000000E+00 0.  1.
      99926    2    1    2    0    0 -0.71054273576E-14  0.00000000000E+00 -0.22181403123E+03  0.50730900570E+03  0.45624660307E+03 0.  0.
      99925    2    3    3    0    0  0.61238339222E+02  0.95024369591E+02 -0.12210127699E+03  0.31142662654E+03  0.26324524092E+03 0.  0.
         25    1    4    4    0    0  0.57975223076E+02  0.71922734867E+02 -0.91952933918E+02  0.18065673649E+03  0.12509000000E+03 0.  0.
         25    1    4    4    0    0  0.32631161462E+01  0.23101634724E+02 -0.30148343074E+02  0.13076989005E+03  0.12509000000E+03 0.  0.
         25    1    3    3    0    0 -0.61238339222E+02 -0.95024369591E+02 -0.99712754243E+02  0.19588237916E+03  0.12509000000E+03 0.  0.
<mgrwt>
<rscale>  2 0.45624660E+03</rscale>
<asrwt>0</asrwt>
<pdfrwt beam="1">  1       21 0.20992278E-01 0.45624660E+03</pdfrwt>
<pdfrwt beam="2">  1       21 0.53611987E-01 0.45624660E+03</pdfrwt>
<totfact> 0.64123365E+04</totfact>
</mgrwt>
</event>
<event>
 7    0  0.4737014E-002  0.4524015E+03  0.7546771E-02  0.1027008E+00
         21   -1    0    0  502  501  0.00000000000E+00  0.00000000000E+00  0.35645988203E+03  0.35645988203E+03  0.00000000000E+00 0. -1.
         21   -1    0    0  501  502 -0.00000000000E+00 -0.00000000000E+00 -0.14354150822E+03  0.14354150822E+03  0.00000000000E+00 0. -1.
      99926    2    1    2    0    0  0.35527136788E-14  0.00000000000E+00  0.21291837381E+03  0.50000139026E+03  0.45240154327E+03 0.  0.
      99925    2    3    3    0    0  0.24546304150E+02  0.93705045961E+02  0.19373977907E+03  0.34063237419E+03  0.26289190872E+03 0.  0.
         25    1    3    3    0    0 -0.24546304150E+02 -0.93705045961E+02  0.19178594745E+02  0.15936901607E+03  0.12509000000E+03 0.  0.
         25    1    4    4    0    0  0.77873807949E+01  0.22823722091E+02  0.50642252746E+02  0.13709015812E+03  0.12509000000E+03 0.  0.
         25    1    4    4    0    0  0.16758923355E+02  0.70881323870E+02  0.14309752632E+03  0.20354221607E+03  0.12509000000E+03 0.  0.
<mgrwt>
<rscale>  2 0.45240154E+03</rscale>
<asrwt>0</asrwt>
<pdfrwt beam="1">  1       21 0.52420571E-01 0.45240154E+03</pdfrwt>
<pdfrwt beam="2">  1       21 0.21109045E-01 0.45240154E+03</pdfrwt>
<totfact> 0.66634406E+04</totfact>
</mgrwt>
</event>
<event>
 7    0  0.4737014E-002  0.4547557E+03  0.7546771E-02  0.1026313E+00
         21   -1    0    0  502  501  0.00000000000E+00  0.00000000000E+00  0.51060420785E+03  0.51060420785E+03  0.00000000000E+00 0. -1.
         21   -1    0    0  501  502 -0.00000000000E+00 -0.00000000000E+00 -0.10125392900E+03  0.10125392900E+03  0.00000000000E+00 0. -1.
      99926    2    1    2    0    0  0.00000000000E+00  0.00000000000E+00  0.40935027885E+03  0.61185813685E+03  0.45475568037E+03 0.  0.
      99925    2    3    3    0    0  0.63193940706E+02 -0.48384106966E+02  0.36512025614E+03  0.45713807041E+03  0.26330195219E+03 0.  0.
         25    1    3    3    0    0 -0.63193940706E+02  0.48384106966E+02  0.44230022714E+02  0.15472006644E+03  0.12509000000E+03 0.  0.
         25    1    4    4    0    0  0.23786562769E+01 -0.28401134976E+02  0.22304856446E+03  0.25731391856E+03  0.12509000000E+03 0.  0.
         25    1    4    4    0    0  0.60815284430E+02 -0.19982971989E+02  0.14207169168E+03  0.19982415186E+03  0.12509000000E+03 0.  0.
<mgrwt>
<rscale>  2 0.45475568E+03</rscale>
<asrwt>0</asrwt>
<pdfrwt beam="1">  1       21 0.75088853E-01 0.45475568E+03</pdfrwt>
<pdfrwt beam="2">  1       21 0.14890284E-01 0.45475568E+03</pdfrwt>
<totfact> 0.58066217E+04</totfact>
</mgrwt>
</event>
<event>
 7    0  0.4737014E-002  0.4530279E+03  0.7546771E-02  0.1026823E+00
         21   -1    0    0  502  501  0.00000000000E+00  0.00000000000E+00  0.44032096491E+02  0.44032096491E+02  0.00000000000E+00 0. -1.
         21   -1    0    0  501  502 -0.00000000000E+00 -0.00000000000E+00 -0.11652539238E+04  0.11652539238E+04  0.00000000000E+00 0. -1.
      99926    2    1    2    0    0  0.00000000000E+00  0.17763568394E-14 -0.11212218273E+04  0.12092860203E+04  0.45302791617E+03 0.  0.
      99925    2    3    3    0    0 -0.10938400037E+03 -0.13853123414E+02 -0.74766962865E+03  0.80020715040E+03  0.26299209377E+03 0.  0.
         25    1    4    4    0    0 -0.17354945181E+02 -0.21620047638E+02 -0.29663877348E+03  0.32312643132E+03  0.12509000000E+03 0.  0.
         25    1    4    4    0    0 -0.92029055187E+02  0.77669242235E+01 -0.45103085517E+03  0.47708071909E+03  0.12509000000E+03 0.  0.
         25    1    3    3    0    0  0.10938400037E+03  0.13853123414E+02 -0.37355219864E+03  0.40907886987E+03  0.12509000000E+03 0.  0.
<mgrwt>
<rscale>  2 0.45302792E+03</rscale>
<asrwt>0</asrwt>
<pdfrwt beam="1">  1       21 0.64753076E-02 0.45302792E+03</pdfrwt>
<pdfrwt beam="2">  1       21 0.17136089E+00 0.45302792E+03</pdfrwt>
<totfact> 0.32357199E+04</totfact>
</mgrwt>
</event>
<event>
 7    0  0.4737014E-002  0.4595270E+03  0.7546771E-02  0.1024918E+00
         21   -1    0    0  502  501  0.00000000000E+00  0.00000000000E+00  0.95032288884E+02  0.95032288884E+02  0.00000000000E+00 0.  1.
         21   -1    0    0  501  502 -0.00000000000E+00 -0.00000000000E+00 -0.55550883965E+03  0.55550883965E+03  0.00000000000E+00 0.  1.
      99926    2    1    2    0    0  0.00000000000E+00  0.00000000000E+00 -0.46047655077E+03  0.65054112854E+03  0.45952704611E+03 0.  0.
      99925    2    3    3    0    0  0.95854676908E+02  0.54868964368E+02 -0.34442446737E+03  0.44728189382E+03  0.26312384248E+03 0.  0.
         25    1    3    3    0    0 -0.95854676908E+02 -0.54868964368E+02 -0.11605208340E+03  0.20325923472E+03  0.12509000000E+03 0.  0.
         25    1    4    4    0    0  0.16405656681E+02  0.34049333912E+02 -0.20274588252E+03  0.24120925291E+03  0.12509000000E+03 0.  0.
         25    1    4    4    0    0  0.79449020227E+02  0.20819630456E+02 -0.14167858485E+03  0.20607264091E+03  0.12509000000E+03 0.  0.
<mgrwt>
<rscale>  2 0.45952705E+03</rscale>
<asrwt>0</asrwt>
<pdfrwt beam="1">  1       21 0.13975336E-01 0.45952705E+03</pdfrwt>
<pdfrwt beam="2">  1       21 0.81692480E-01 0.45952705E+03</pdfrwt>
<totfact> 0.53725678E+04</totfact>
</mgrwt>
</event>
<event>
 7    0  0.4737014E-002  0.4568269E+03  0.7546771E-02  0.1025706E+00
         21   -1    0    0  502  501  0.00000000000E+00  0.00000000000E+00  0.21009906106E+02  0.21009906106E+02  0.00000000000E+00 0.  1.
         21   -1    0    0  501  502 -0.00000000000E+00 -0.00000000000E+00 -0.24832430079E+04  0.24832430079E+04  0.00000000000E+00 0.  1.
      99926    2    1    2    0    0  0.00000000000E+00 -0.35527136788E-14 -0.24622331018E+04  0.25042529140E+04  0.45682689253E+03 0.  0.
      99925    2    3    3    0    0 -0.82570834141E+02 -0.26067657485E+02 -0.11326306315E+04  0.11659750271E+04  0.26296036020E+03 0.  0.
         25    1    4    4    0    0 -0.66218619198E+02  0.29585755132E+01 -0.70949696853E+03  0.72348262947E+03  0.12509000000E+03 0.  0.
         25    1    4    4    0    0 -0.16352214943E+02 -0.29026232998E+02 -0.42313366299E+03  0.44249239766E+03  0.12509000000E+03 0.  0.
         25    1    3    3    0    0  0.82570834141E+02  0.26067657485E+02 -0.13296024703E+04  0.13382778869E+04  0.12509000000E+03 0.  0.
<mgrwt>
<rscale>  2 0.45682689E+03</rscale>
<asrwt>0</asrwt>
<pdfrwt beam="1">  1       21 0.30896913E-02 0.45682689E+03</pdfrwt>
<pdfrwt beam="2">  1       21 0.36518288E+00 0.45682689E+03</pdfrwt>
<totfact> 0.69885649E+03</totfact>
</mgrwt>
</event>
<event>
 7    0  0.4737014E-002  0.4322259E+03  0.7546771E-02  0.1033159E+00
         21   -1    0    0  502  501  0.00000000000E+00  0.00000000000E+00  0.10283716145E+04  0.10283716145E+04  0.00000000000E+00 0.  1.
         21   -1    0    0  501  502 -0.00000000000E+00 -0.00000000000E+00 -0.45416267520E+02  0.45416267520E+02  0.00000000000E+00 0.  1.
      99926    2    1    2    0    0  0.00000000000E+00  0.35527136788E-14  0.98295534700E+03  0.10737878820E+04  0.43222586852E+03 0.  0.
      99925    2    3    3    0    0  0.81209954977E+02  0.18904294985E+02  0.54351424141E+03  0.60934367383E+03  0.26256342675E+03 0.  0.
         25    1    4    4    0    0  0.34104914854E+02  0.46221819132E+02  0.24218727423E+03  0.27857097063E+03  0.12509000000E+03 0.  0.
         25    1    3    3    0    0 -0.81209954977E+02 -0.18904294985E+02  0.43944110559E+03  0.46444420821E+03  0.12509000000E+03 0.  0.
         25    1    4    4    0    0  0.47105040123E+02 -0.27317524146E+02  0.30132696718E+03  0.33077270320E+03  0.12509000000E+03 0.  0.
<mgrwt>
<rscale>  2 0.43222587E+03</rscale>
<asrwt>0</asrwt>
<pdfrwt beam="1">  1       21 0.15123110E+00 0.43222587E+03</pdfrwt>
<pdfrwt beam="2">  1       21 0.66788635E-02 0.43222587E+03</pdfrwt>
<totfact> 0.43677302E+04</totfact>
</mgrwt>
</event>
<event>
 7    0  0.4737014E-002  0.4534101E+03  0.7546771E-02  0.1026710E+00
         21   -1    0    0  502  501  0.00000000000E+00  0.00000000000E+00  0.31476986749E+03  0.31476986749E+03  0.00000000000E+00 0.  1.
         21   -1    0    0  501  502 -0.00000000000E+00 -0.00000000000E+00 -0.16327861082E+03  0.16327861082E+03  0.00000000000E+00 0.  1.
      99926    2    1    2    0    0  0.00000000000E+00 -0.71054273576E-14  0.15149125667E+03  0.47804847832E+03  0.45341013087E+03 0.  0.
      99925    2    3    3    0    0  0.97807239915E+02 -0.44852390389E+02  0.64157095188E+02  0.29135954730E+03  0.26305181968E+03 0.  0.
         25    1    4    4    0    0  0.61314352770E+02  0.12450236288E+02  0.49036525067E+02  0.14821115724E+03  0.12509000000E+03 0.  0.
         25    1    4    4    0    0  0.36492887146E+02 -0.57302626678E+02  0.15120570121E+02  0.14314839006E+03  0.12509000000E+03 0.  0.
         25    1    3    3    0    0 -0.97807239915E+02  0.44852390389E+02  0.87334161481E+02  0.18668893102E+03  0.12509000000E+03 0.  0.
<mgrwt>
<rscale>  2 0.45341013E+03</rscale>
<asrwt>0</asrwt>
<pdfrwt beam="1">  1       21 0.46289686E-01 0.45341013E+03</pdfrwt>
<pdfrwt beam="2">  1       21 0.24011560E-01 0.45341013E+03</pdfrwt>
<totfact> 0.67692620E+04</totfact>
</mgrwt>
</event>
<event>
 7    0  0.4737014E-002  0.4537196E+03  0.7546771E-02  0.1026619E+00
         21   -1    0    0  502  501  0.00000000000E+00  0.00000000000E+00  0.32569963152E+02  0.32569963152E+02  0.00000000000E+00 0. -1.
         21   -1    0    0  501  502 -0.00000000000E+00 -0.00000000000E+00 -0.15801480839E+04  0.15801480839E+04  0.00000000000E+00 0. -1.
      99926    2    1    2    0    0 -0.71054273576E-14  0.35527136788E-14 -0.15475781207E+04  0.16127180470E+04  0.45371958241E+03 0.  0.
      99925    2    3    3    0    0 -0.38835743981E+02  0.21162358334E+02 -0.13408158340E+04  0.13670471050E+04  0.26282052107E+03 0.  0.
         25    1    3    3    0    0  0.38835743981E+02 -0.21162358334E+02 -0.20676228670E+03  0.24567094196E+03  0.12509000000E+03 0.  0.
         25    1    4    4    0    0 -0.22522321109E+02  0.50741927862E+02 -0.67104438606E+03  0.68485770373E+03  0.12509000000E+03 0.  0.
         25    1    4    4    0    0 -0.16313422872E+02 -0.29579569528E+02 -0.66977144794E+03  0.68218940132E+03  0.12509000000E+03 0.  0.
<mgrwt>
<rscale>  2 0.45371958E+03</rscale>
<asrwt>0</asrwt>
<pdfrwt beam="1">  1       21 0.47896988E-02 0.45371958E+03</pdfrwt>
<pdfrwt beam="2">  1       21 0.23237480E+00 0.45371958E+03</pdfrwt>
<totfact> 0.21355427E+04</totfact>
</mgrwt>
</event>
<event>
 7    0  0.4737014E-002  0.4587760E+03  0.7546771E-02  0.1025137E+00
         21   -1    0    0  502  501  0.00000000000E+00  0.00000000000E+00  0.48907988783E+03  0.48907988783E+03  0.00000000000E+00 0. -1.
         21   -1    0    0  501  502 -0.00000000000E+00 -0.00000000000E+00 -0.10758743219E+03  0.10758743219E+03  0.00000000000E+00 0. -1.
      99926    2    1    2    0    0  0.00000000000E+00  0.00000000000E+00  0.38149245564E+03  0.59666732002E+03  0.45877597700E+03 0.  0.
      99925    2    3    3    0    0  0.25172994649E+02  0.58643777439E+02  0.11224185642E+03  0.29299617294E+03  0.26301283378E+03 0.  0.
         25    1    4    4    0    0  0.32287881825E+02  0.13682986415E+02  0.89984939855E+02  0.15803331589E+03  0.12509000000E+03 0.  0.
         25    1    3    3    0    0 -0.25172994649E+02 -0.58643777439E+02  0.26925059921E+03  0.30367114708E+03  0.12509000000E+03 0.  0.
         25    1    4    4    0    0 -0.71148871759E+01  0.44960791024E+02  0.22256916569E+02  0.13496285705E+03  0.12509000000E+03 0.  0.
<mgrwt>
<rscale>  2 0.45877598E+03</rscale>
<asrwt>0</asrwt>
<pdfrwt beam="1">  1       21 0.71923512E-01 0.45877598E+03</pdfrwt>
<pdfrwt beam="2">  1       21 0.15821681E-01 0.45877598E+03</pdfrwt>
<totfact> 0.57159148E+04</totfact>
</mgrwt>
</event>
<event>
 7    0  0.4737014E-002  0.4599417E+03  0.7546771E-02  0.1024798E+00
         21   -1    0    0  502  501  0.00000000000E+00  0.00000000000E+00  0.61878718165E+03  0.61878718165E+03  0.00000000000E+00 0. -1.
         21   -1    0    0  501  502 -0.00000000000E+00 -0.00000000000E+00 -0.85468159444E+02  0.85468159444E+02  0.00000000000E+00 0. -1.
      99926    2    1    2    0    0  0.35527136788E-14  0.00000000000E+00  0.53331902221E+03  0.70425534109E+03  0.45994174198E+03 0.  0.
      99925    2    3    3    0    0 -0.28195219775E+02 -0.11099893836E+03  0.37613747101E+03  0.47302108136E+03  0.26297112310E+03 0.  0.
         25    1    4    4    0    0 -0.20128639843E+02 -0.15582529681E+02  0.19370080665E+03  0.23198165439E+03  0.12509000000E+03 0.  0.
         25    1    3    3    0    0  0.28195219775E+02  0.11099893836E+03  0.15718155120E+03  0.23123425973E+03  0.12509000000E+03 0.  0.
         25    1    4    4    0    0 -0.80665799320E+01 -0.95416408681E+02  0.18243666435E+03  0.24103942698E+03  0.12509000000E+03 0.  0.
<mgrwt>
<rscale>  2 0.45994174E+03</rscale>
<asrwt>0</asrwt>
<pdfrwt beam="1">  1       21 0.90998113E-01 0.45994174E+03</pdfrwt>
<pdfrwt beam="2">  1       21 0.12568847E-01 0.45994174E+03</pdfrwt>
<totfact> 0.50673084E+04</totfact>
</mgrwt>
</event>
<event>
 7    0  0.4737014E-002  0.4554183E+03  0.7546771E-02  0.1026118E+00
         21   -1    0    0  502  501  0.00000000000E+00  0.00000000000E+00  0.39004043195E+03  0.39004043195E+03  0.00000000000E+00 0.  1.
         21   -1    0    0  501  502 -0.00000000000E+00 -0.00000000000E+00 -0.13293864549E+03  0.13293864549E+03  0.00000000000E+00 0.  1.
      99926    2    1    2    0    0  0.00000000000E+00  0.00000000000E+00  0.25710178646E+03  0.52297907744E+03  0.45541825483E+03 0.  0.
      99925    2    3    3    0    0 -0.45664491797E+01 -0.88371933630E+02  0.79902602832E+02  0.28871958480E+03  0.26295269840E+03 0.  0.
         25    1    4    4    0    0 -0.13479203293E+02 -0.43466004683E+02 -0.53535268259E+00  0.13311189724E+03  0.12509000000E+03 0.  0.
         25    1    3    3    0    0  0.45664491797E+01  0.88371933630E+02  0.17719918363E+03  0.23425949264E+03  0.12509000000E+03 0.  0.
         25    1    4    4    0    0  0.89127541134E+01 -0.44905928947E+02  0.80437955515E+02  0.15560768756E+03  0.12509000000E+03 0.  0.
<mgrwt>
<rscale>  2 0.45541825E+03</rscale>
<asrwt>0</asrwt>
<pdfrwt beam="1">  1       21 0.57358887E-01 0.45541825E+03</pdfrwt>
<pdfrwt beam="2">  1       21 0.19549801E-01 0.45541825E+03</pdfrwt>
<totfact> 0.63473521E+04</totfact>
</mgrwt>
</event>
<event>
 7    0  0.4737014E-002  0.4586346E+03  0.7546771E-02  0.1025178E+00
         21   -1    0    0  502  501  0.00000000000E+00  0.00000000000E+00  0.52767610345E+02  0.52767610345E+02  0.00000000000E+00 0. -1.
         21   -1    0    0  501  502 -0.00000000000E+00 -0.00000000000E+00 -0.99656630647E+03  0.99656630647E+03  0.00000000000E+00 0. -1.
      99926    2    1    2    0    0  0.00000000000E+00  0.00000000000E+00 -0.94379869612E+03  0.10493339168E+04  0.45863459330E+03 0.  0.
      99925    2    3    3    0    0 -0.97310306052E+02  0.93293798104E+01 -0.73736695947E+03  0.78891520975E+03  0.26290842943E+03 0.  0.
         25    1    4    4    0    0 -0.33111353236E+02  0.26241083361E+02 -0.26982277500E+03  0.30039439771E+03  0.12509000000E+03 0.  0.
         25    1    4    4    0    0 -0.64198952816E+02 -0.16911703551E+02 -0.46754418447E+03  0.48852081203E+03  0.12509000000E+03 0.  0.
         25    1    3    3    0    0  0.97310306052E+02 -0.93293798104E+01 -0.20643173666E+03  0.26041870707E+03  0.12509000000E+03 0.  0.
<mgrwt>
<rscale>  2 0.45863459E+03</rscale>
<asrwt>0</asrwt>
<pdfrwt beam="1">  1       21 0.77599432E-02 0.45863459E+03</pdfrwt>
<pdfrwt beam="2">  1       21 0.14655386E+00 0.45863459E+03</pdfrwt>
<totfact> 0.36262135E+04</totfact>
</mgrwt>
</event>
<event>
 7    0  0.4737014E-002  0.4498747E+03  0.7546771E-02  0.1027759E+00
         21   -1    0    0  502  501  0.00000000000E+00  0.00000000000E+00  0.14407593292E+03  0.14407593292E+03  0.00000000000E+00 0. -1.
         21   -1    0    0  501  502 -0.00000000000E+00 -0.00000000000E+00 -0.35118162598E+03  0.35118162598E+03  0.00000000000E+00 0. -1.
      99926    2    1    2    0    0 -0.14210854715E-13  0.00000000000E+00 -0.20710569306E+03  0.49525755891E+03  0.44987473985E+03 0.  0.
      99925    2    3    3    0    0  0.85578075524E+02  0.60193283281E+02 -0.16160198229E+03  0.32595034064E+03  0.26302392576E+03 0.  0.
         25    1    3    3    0    0 -0.85578075524E+02 -0.60193283281E+02 -0.45503710769E+02  0.16930721826E+03  0.12509000000E+03 0.  0.
         25    1    4    4    0    0  0.20285865064E+02  0.61834503297E+02 -0.94109657849E+02  0.16952627501E+03  0.12509000000E+03 0.  0.
         25    1    4    4    0    0  0.65292210460E+02 -0.16412200165E+01 -0.67492324442E+02  0.15642406563E+03  0.12509000000E+03 0.  0.
<mgrwt>
<rscale>  2 0.44987474E+03</rscale>
<asrwt>0</asrwt>
<pdfrwt beam="1">  1       21 0.21187638E-01 0.44987474E+03</pdfrwt>
<pdfrwt beam="2">  1       21 0.51644356E-01 0.44987474E+03</pdfrwt>
<totfact> 0.68343695E+04</totfact>
</mgrwt>
</event>
<event>
 7    0  0.4737014E-002  0.4561416E+03  0.7546771E-02  0.1025906E+00
         21   -1    0    0  502  501  0.00000000000E+00  0.00000000000E+00  0.65460730587E+02  0.65460730587E+02  0.00000000000E+00 0. -1.
         21   -1    0    0  501  502 -0.00000000000E+00 -0.00000000000E+00 -0.79461835343E+03  0.79461835343E+03  0.00000000000E+00 0. -1.
      99926    2    1    2    0    0  0.88817841970E-15  0.00000000000E+00 -0.72915762284E+03  0.86007908402E+03  0.45614163569E+03 0.  0.
      99925    2    3    3    0    0  0.12529541570E+01 -0.27026456661E+02 -0.66762547044E+03  0.71807305199E+03  0.26300787052E+03 0.  0.
         25    1    3    3    0    0 -0.12529541570E+01  0.27026456661E+02 -0.61532152401E+02  0.14200603203E+03  0.12509000000E+03 0.  0.
         25    1    4    4    0    0 -0.10073397901E+02 -0.52063058904E+02 -0.36473021744E+03  0.38921417634E+03  0.12509000000E+03 0.  0.
         25    1    4    4    0    0  0.11326352058E+02  0.25036602243E+02 -0.30289525300E+03  0.32885887565E+03  0.12509000000E+03 0.  0.
<mgrwt>
<rscale>  2 0.45614164E+03</rscale>
<asrwt>0</asrwt>
<pdfrwt beam="1">  1       21 0.96265786E-02 0.45614164E+03</pdfrwt>
<pdfrwt beam="2">  1       21 0.11685563E+00 0.45614164E+03</pdfrwt>
<totfact> 0.44591153E+04</totfact>
</mgrwt>
</event>
<event>
 7    0  0.4737014E-002  0.4323181E+03  0.7546771E-02  0.1033130E+00
         21   -1    0    0  502  501  0.00000000000E+00  0.00000000000E+00  0.13892361182E+02  0.13892361182E+02  0.00000000000E+00 0.  1.
         21   -1    0    0  501  502 -0.00000000000E+00 -0.00000000000E+00 -0.33633405542E+04  0.33633405542E+04  0.00000000000E+00 0.  1.
      99926    2    1    2    0    0  0.00000000000E+00 -0.35527136788E-14 -0.33494481930E+04  0.33772329154E+04  0.43231813173E+03 0.  0.
      99925    2    3    3    0    0 -0.61132516644E+02 -0.26396815350E+02 -0.26318804600E+04  0.26458062711E+04  0.26279667388E+03 0.  0.
         25    1    3    3    0    0  0.61132516644E+02  0.26396815350E+02 -0.71756773296E+03  0.73142664426E+03  0.12509000000E+03 0.  0.
         25    1    4    4    0    0 -0.50649487291E+02 -0.42722251419E+02 -0.11931536163E+04  0.12015213779E+04  0.12509000000E+03 0.  0.
         25    1    4    4    0    0 -0.10483029354E+02  0.16325436069E+02 -0.14387268438E+04  0.14442848932E+04  0.12509000000E+03 0.  0.
<mgrwt>
<rscale>  2 0.43231813E+03</rscale>
<asrwt>0</asrwt>
<pdfrwt beam="1">  1       21 0.20429909E-02 0.43231813E+03</pdfrwt>
<pdfrwt beam="2">  1       21 0.49460972E+00 0.43231813E+03</pdfrwt>
<totfact> 0.19596315E+03</totfact>
</mgrwt>
</event>
<event>
 7    0  0.4737014E-002  0.4226265E+03  0.7546771E-02  0.1036215E+00
         21   -1    0    0  502  501  0.00000000000E+00  0.00000000000E+00  0.96298438676E+02  0.96298438676E+02  0.00000000000E+00 0.  1.
         21   -1    0    0  501  502 -0.00000000000E+00 -0.00000000000E+00 -0.46369702779E+03  0.46369702779E+03  0.00000000000E+00 0.  1.
      99926    2    1    2    0    0 -0.35527136788E-14  0.00000000000E+00 -0.36739858912E+03  0.55999546647E+03  0.42262654813E+03 0.  0.
      99925    2    3    3    0    0 -0.27231912431E+02 -0.60902544495E+02 -0.29506566567E+03  0.40084064595E+03  0.26298056850E+03 0.  0.
         25    1    4    4    0    0  0.17117114961E+02 -0.37909752353E+01 -0.12538407086E+03  0.17797764029E+03  0.12509000000E+03 0.  0.
         25    1    4    4    0    0 -0.44349027391E+02 -0.57111569259E+02 -0.16968159481E+03  0.22286300566E+03  0.12509000000E+03 0.  0.
         25    1    3    3    0    0  0.27231912431E+02  0.60902544495E+02 -0.72332923450E+02  0.15915482052E+03  0.12509000000E+03 0.  0.
<mgrwt>
<rscale>  2 0.42262655E+03</rscale>
<asrwt>0</asrwt>
<pdfrwt beam="1">  1       21 0.14161535E-01 0.42262655E+03</pdfrwt>
<pdfrwt beam="2">  1       21 0.68190738E-01 0.42262655E+03</pdfrwt>
<totfact> 0.79753280E+04</totfact>
</mgrwt>
</event>
<event>
 7    0  0.4737014E-002  0.4517598E+03  0.7546771E-02  0.1027199E+00
         21   -1    0    0  502  501  0.00000000000E+00  0.00000000000E+00  0.52825075030E+03  0.52825075030E+03  0.00000000000E+00 0. -1.
         21   -1    0    0  501  502 -0.00000000000E+00 -0.00000000000E+00 -0.96586199474E+02  0.96586199474E+02  0.00000000000E+00 0. -1.
      99926    2    1    2    0    0 -0.35527136788E-14  0.00000000000E+00  0.43166455083E+03  0.62483694977E+03  0.45175981380E+03 0.  0.
      99925    2    3    3    0    0  0.23296199908E+02 -0.84689185694E+02  0.18023805956E+03  0.33059596059E+03  0.26285539740E+03 0.  0.
         25    1    3    3    0    0 -0.23296199908E+02  0.84689185694E+02  0.25142649127E+03  0.29424098918E+03  0.12509000000E+03 0.  0.
         25    1    4    4    0    0  0.36443182140E+02 -0.69328673501E+02  0.73294701338E+02  0.16478529011E+03  0.12509000000E+03 0.  0.
         25    1    4    4    0    0 -0.13146982231E+02 -0.15360512192E+02  0.10694335822E+03  0.16581067048E+03  0.12509000000E+03 0.  0.
<mgrwt>
<rscale>  2 0.45175981E+03</rscale>
<asrwt>0</asrwt>
<pdfrwt beam="1">  1       21 0.77683933E-01 0.45175981E+03</pdfrwt>
<pdfrwt beam="2">  1       21 0.14203853E-01 0.45175981E+03</pdfrwt>
<totfact> 0.58661272E+04</totfact>
</mgrwt>
</event>
<event>
 7    0  0.4737014E-002  0.4060830E+03  0.7546771E-02  0.1041693E+00
         21   -1    0    0  502  501  0.00000000000E+00  0.00000000000E+00  0.16598820928E+03  0.16598820928E+03  0.00000000000E+00 0.  1.
         21   -1    0    0  501  502 -0.00000000000E+00 -0.00000000000E+00 -0.24836608160E+03  0.24836608160E+03  0.00000000000E+00 0.  1.
      99926    2    1    2    0    0  0.00000000000E+00  0.00000000000E+00 -0.82377872313E+02  0.41435429088E+03  0.40608295276E+03 0.  0.
      99925    2    3    3    0    0 -0.48864857910E+02 -0.26588100206E+02 -0.62578271175E+02  0.27602774348E+03  0.26302200238E+03 0.  0.
         25    1    4    4    0    0 -0.15575591409E+02 -0.15672232273E+02 -0.71592356379E+02  0.14581217886E+03  0.12509000000E+03 0.  0.
         25    1    4    4    0    0 -0.33289266501E+02 -0.10915867934E+02  0.90140852045E+01  0.13021556462E+03  0.12509000000E+03 0.  0.
         25    1    3    3    0    0  0.48864857910E+02  0.26588100206E+02 -0.19799601138E+02  0.13832654740E+03  0.12509000000E+03 0.  0.
<mgrwt>
<rscale>  2 0.40608295E+03</rscale>
<asrwt>0</asrwt>
<pdfrwt beam="1">  1       21 0.24410031E-01 0.40608295E+03</pdfrwt>
<pdfrwt beam="2">  1       21 0.36524423E-01 0.40608295E+03</pdfrwt>
<totfact> 0.10800099E+05</totfact>
</mgrwt>
</event>
<event>
 7    0  0.4737014E-002  0.4666284E+03  0.7546771E-02  0.1022876E+00
         21   -1    0    0  502  501  0.00000000000E+00  0.00000000000E+00  0.22599235446E+02  0.22599235446E+02  0.00000000000E+00 0.  1.
         21   -1    0    0  501  502 -0.00000000000E+00 -0.00000000000E+00 -0.24087322260E+04  0.24087322260E+04  0.00000000000E+00 0.  1.
      99926    2    1    2    0    0  0.00000000000E+00  0.00000000000E+00 -0.23861329905E+04  0.24313314614E+04  0.46662836049E+03 0.  0.
      99925    2    3    3    0    0 -0.79586317031E+02 -0.52248373685E+02 -0.10751052969E+04  0.11109129687E+04  0.26308240182E+03 0.  0.
         25    1    4    4    0    0 -0.27004082582E+02  0.73019639334E+01 -0.58588127270E+03  0.59973903738E+03  0.12509000000E+03 0.  0.
         25    1    3    3    0    0  0.79586317031E+02  0.52248373685E+02 -0.13110276936E+04  0.13204184927E+04  0.12509000000E+03 0.  0.
         25    1    4    4    0    0 -0.52582234449E+02 -0.59550337618E+02 -0.48922402421E+03  0.51117393131E+03  0.12509000000E+03 0.  0.
<mgrwt>
<rscale>  2 0.46662836E+03</rscale>
<asrwt>0</asrwt>
<pdfrwt beam="1">  1       21 0.33234159E-02 0.46662836E+03</pdfrwt>
<pdfrwt beam="2">  1       21 0.35422544E+00 0.46662836E+03</pdfrwt>
<totfact> 0.71881682E+03</totfact>
</mgrwt>
</event>
<event>
 7    0  0.4737014E-002  0.4492279E+03  0.7546771E-02  0.1027953E+00
         21   -1    0    0  502  501  0.00000000000E+00  0.00000000000E+00  0.79704432168E+03  0.79704432168E+03  0.00000000000E+00 0. -1.
         21   -1    0    0  501  502 -0.00000000000E+00 -0.00000000000E+00 -0.63298141671E+02  0.63298141671E+02  0.00000000000E+00 0. -1.
      99926    2    1    2    0    0  0.00000000000E+00 -0.71054273576E-14  0.73374618001E+03  0.86034246335E+03  0.44922789046E+03 0.  0.
      99925    2    3    3    0    0 -0.31390702287E+02 -0.41063974178E+02  0.64528292644E+03  0.69864867405E+03  0.26277041013E+03 0.  0.
         25    1    3    3    0    0  0.31390702287E+02  0.41063974178E+02  0.88463253571E+02  0.16169378930E+03  0.12509000000E+03 0.  0.
         25    1    4    4    0    0 -0.14843310174E+02 -0.21949683820E+02  0.42766162207E+03  0.44636765515E+03  0.12509000000E+03 0.  0.
         25    1    4    4    0    0 -0.16547392113E+02 -0.19114290358E+02  0.21762130437E+03  0.25228101890E+03  0.12509000000E+03 0.  0.
<mgrwt>
<rscale>  2 0.44922789E+03</rscale>
<asrwt>0</asrwt>
<pdfrwt beam="1">  1       21 0.11721239E+00 0.44922789E+03</pdfrwt>
<pdfrwt beam="2">  1       21 0.93085507E-02 0.44922789E+03</pdfrwt>
<totfact> 0.47075494E+04</totfact>
</mgrwt>
</event>
<event>
 7    0  0.4737014E-002  0.4529513E+03  0.7546771E-02  0.1026846E+00
         21   -1    0    0  502  501  0.00000000000E+00  0.00000000000E+00  0.42875039025E+03  0.42875039025E+03  0.00000000000E+00 0.  1.
         21   -1    0    0  501  502 -0.00000000000E+00 -0.00000000000E+00 -0.11962954218E+03  0.11962954218E+03  0.00000000000E+00 0.  1.
      99926    2    1    2    0    0  0.00000000000E+00  0.00000000000E+00  0.30912084807E+03  0.54837993243E+03  0.45295126844E+03 0.  0.
      99925    2    3    3    0    0 -0.58799629827E+02 -0.83592323702E+02  0.14232798889E+03  0.31618940932E+03  0.26319842912E+03 0.  0.
         25    1    4    4    0    0 -0.82131966372E+01 -0.62605744989E+02  0.10356132433E+03  0.17423946712E+03  0.12509000000E+03 0.  0.
         25    1    4    4    0    0 -0.50586433190E+02 -0.20986578714E+02  0.38766664560E+02  0.14194994220E+03  0.12509000000E+03 0.  0.
         25    1    3    3    0    0  0.58799629827E+02  0.83592323702E+02  0.16679285918E+03  0.23219052311E+03  0.12509000000E+03 0.  0.
<mgrwt>
<rscale>  2 0.45295127E+03</rscale>
<asrwt>0</asrwt>
<pdfrwt beam="1">  1       21 0.63051528E-01 0.45295127E+03</pdfrwt>
<pdfrwt beam="2">  1       21 0.17592580E-01 0.45295127E+03</pdfrwt>
<totfact> 0.62988544E+04</totfact>
</mgrwt>
</event>
<event>
 7    0  0.4737014E-002  0.4450575E+03  0.7546771E-02  0.1029206E+00
         21   -1    0    0  502  501  0.00000000000E+00  0.00000000000E+00  0.59419042572E+02  0.59419042572E+02  0.00000000000E+00 0. -1.
         21   -1    0    0  501  502 -0.00000000000E+00 -0.00000000000E+00 -0.83338686091E+03  0.83338686091E+03  0.00000000000E+00 0. -1.
      99926    2    1    2    0    0  0.00000000000E+00  0.00000000000E+00 -0.77396781833E+03  0.89280590348E+03  0.44505752153E+03 0.  0.
      99925    2    3    3    0    0  0.41638665254E+02  0.88661342774E+02 -0.55900169649E+03  0.62549979845E+03  0.26300663305E+03 0.  0.
         25    1    4    4    0    0  0.90623080617E+01  0.62739536533E+01 -0.28722056949E+03  0.31347193105E+03  0.12509000000E+03 0.  0.
         25    1    3    3    0    0 -0.41638665254E+02 -0.88661342774E+02 -0.21496612184E+03  0.26730610503E+03  0.12509000000E+03 0.  0.
         25    1    4    4    0    0  0.32576357193E+02  0.82387389121E+02 -0.27178112701E+03  0.31202786740E+03  0.12509000000E+03 0.  0.
<mgrwt>
<rscale>  2 0.44505752E+03</rscale>
<asrwt>0</asrwt>
<pdfrwt beam="1">  1       21 0.87380949E-02 0.44505752E+03</pdfrwt>
<pdfrwt beam="2">  1       21 0.12255689E+00 0.44505752E+03</pdfrwt>
<totfact> 0.47107036E+04</totfact>
</mgrwt>
</event>
<event>
 7    0  0.4737014E-002  0.4525739E+03  0.7546771E-02  0.1026957E+00
         21   -1    0    0  502  501  0.00000000000E+00  0.00000000000E+00  0.95386593484E+03  0.95386593484E+03  0.00000000000E+00 0.  1.
         21   -1    0    0  501  502 -0.00000000000E+00 -0.00000000000E+00 -0.53682378556E+02  0.53682378556E+02  0.00000000000E+00 0.  1.
      99926    2    1    2    0    0 -0.35527136788E-14  0.00000000000E+00  0.90018355628E+03  0.10075483134E+04  0.45257393741E+03 0.  0.
      99925    2    3    3    0    0 -0.23009049171E+02 -0.96589567707E+02  0.67681643126E+03  0.73295890797E+03  0.26322864245E+03 0.  0.
         25    1    4    4    0    0  0.24649102103E+02 -0.33074333126E+02  0.35584567641E+03  0.37944056618E+03  0.12509000000E+03 0.  0.
         25    1    3    3    0    0  0.23009049171E+02  0.96589567707E+02  0.22336712502E+03  0.27458940543E+03  0.12509000000E+03 0.  0.
         25    1    4    4    0    0 -0.47658151273E+02 -0.63515234581E+02  0.32097075485E+03  0.35351834178E+03  0.12509000000E+03 0.  0.
<mgrwt>
<rscale>  2 0.45257394E+03</rscale>
<asrwt>0</asrwt>
<pdfrwt beam="1">  1       21 0.14027439E+00 0.45257394E+03</pdfrwt>
<pdfrwt beam="2">  1       21 0.78944680E-02 0.45257394E+03</pdfrwt>
<totfact> 0.39619766E+04</totfact>
</mgrwt>
</event>
<event>
 7    0  0.4737014E-002  0.4518510E+03  0.7546771E-02  0.1027171E+00
         21   -1    0    0  502  501  0.00000000000E+00  0.00000000000E+00  0.17720923507E+03  0.17720923507E+03  0.00000000000E+00 0. -1.
         21   -1    0    0  501  502 -0.00000000000E+00 -0.00000000000E+00 -0.28803430092E+03  0.28803430092E+03  0.00000000000E+00 0. -1.
      99926    2    1    2    0    0 -0.14210854715E-13  0.00000000000E+00 -0.11082506585E+03  0.46524353599E+03  0.45185102917E+03 0.  0.
      99925    2    3    3    0    0 -0.99584401712E+02 -0.43605203910E+02 -0.87927896468E+02  0.29794065097E+03  0.26309475413E+03 0.  0.
         25    1    4    4    0    0 -0.34959378746E+02 -0.46846949119E+02 -0.13725833982E+02  0.13875410416E+03  0.12509000000E+03 0.  0.
         25    1    3    3    0    0  0.99584401712E+02  0.43605203910E+02 -0.22897169378E+02  0.16730288503E+03  0.12509000000E+03 0.  0.
         25    1    4    4    0    0 -0.64625022966E+02  0.32417452083E+01 -0.74202062486E+02  0.15918654680E+03  0.12509000000E+03 0.  0.
<mgrwt>
<rscale>  2 0.45185103E+03</rscale>
<asrwt>0</asrwt>
<pdfrwt beam="1">  1       21 0.26060182E-01 0.45185103E+03</pdfrwt>
<pdfrwt beam="2">  1       21 0.42357985E-01 0.45185103E+03</pdfrwt>
<totfact> 0.69511388E+04</totfact>
</mgrwt>
</event>
<event>
 7    0  0.4737014E-002  0.4556318E+03  0.7546771E-02  0.1026056E+00
         21   -1    0    0  502  501  0.00000000000E+00  0.00000000000E+00  0.17502862189E+03  0.17502862189E+03  0.00000000000E+00 0. -1.
         21   -1    0    0  501  502 -0.00000000000E+00 -0.00000000000E+00 -0.29652345336E+03  0.29652345336E+03  0.00000000000E+00 0. -1.
      99926    2    1    2    0    0  0.00000000000E+00  0.00000000000E+00 -0.12149483146E+03  0.47155207525E+03  0.45563183119E+03 0.  0.
      99925    2    3    3    0    0 -0.44191667334E+02 -0.77359878489E+02 -0.14949436053E+03  0.31544654687E+03  0.26309790163E+03 0.  0.
         25    1    4    4    0    0 -0.63205239279E+02 -0.43387593426E+02 -0.75943316869E+02  0.16520375605E+03  0.12509000000E+03 0.  0.
         25    1    4    4    0    0  0.19013571945E+02 -0.33972285063E+02 -0.73551043662E+02  0.15024279082E+03  0.12509000000E+03 0.  0.
         25    1    3    3    0    0  0.44191667334E+02  0.77359878489E+02  0.27999529067E+02  0.15610552838E+03  0.12509000000E+03 0.  0.
<mgrwt>
<rscale>  2 0.45563183E+03</rscale>
<asrwt>0</asrwt>
<pdfrwt beam="1">  1       21 0.25739503E-01 0.45563183E+03</pdfrwt>
<pdfrwt beam="2">  1       21 0.43606390E-01 0.45563183E+03</pdfrwt>
<totfact> 0.66984062E+04</totfact>
</mgrwt>
</event>
<event>
 7    0  0.4737014E-002  0.4545528E+03  0.7546771E-02  0.1026373E+00
         21   -1    0    0  502  501  0.00000000000E+00  0.00000000000E+00  0.30336609836E+03  0.30336609836E+03  0.00000000000E+00 0. -1.
         21   -1    0    0  501  502 -0.00000000000E+00 -0.00000000000E+00 -0.17027138566E+03  0.17027138566E+03  0.00000000000E+00 0. -1.
      99926    2    1    2    0    0  0.14210854715E-13 -0.88817841970E-15  0.13309471270E+03  0.47363748402E+03  0.45455281730E+03 0.  0.
      99925    2    3    3    0    0  0.98513699815E+02 -0.59832699504E+01  0.27552155794E+02  0.28251582645E+03  0.26327803239E+03 0.  0.
         25    1    4    4    0    0  0.92515246552E+02 -0.46817806541E+01  0.90718015012E+01  0.15591919573E+03  0.12509000000E+03 0.  0.
         25    1    4    4    0    0  0.59984532635E+01 -0.13014892964E+01  0.18480354292E+02  0.12659663072E+03  0.12509000000E+03 0.  0.
         25    1    3    3    0    0 -0.98513699815E+02  0.59832699504E+01  0.10554255691E+03  0.19112165756E+03  0.12509000000E+03 0.  0.
<mgrwt>
<rscale>  2 0.45455282E+03</rscale>
<asrwt>0</asrwt>
<pdfrwt beam="1">  1       21 0.44612661E-01 0.45455282E+03</pdfrwt>
<pdfrwt beam="2">  1       21 0.25039910E-01 0.45455282E+03</pdfrwt>
<totfact> 0.67405136E+04</totfact>
</mgrwt>
</event>
<event>
 7    0  0.4737014E-002  0.4549762E+03  0.7546771E-02  0.1026248E+00
         21   -1    0    0  502  501  0.00000000000E+00  0.00000000000E+00  0.24413625564E+03  0.24413625564E+03  0.00000000000E+00 0.  1.
         21   -1    0    0  501  502 -0.00000000000E+00 -0.00000000000E+00 -0.21197517764E+03  0.21197517764E+03  0.00000000000E+00 0.  1.
      99926    2    1    2    0    0  0.00000000000E+00  0.00000000000E+00  0.32161077999E+02  0.45611143329E+03  0.45497615832E+03 0.  0.
      99925    2    3    3    0    0  0.72392384465E+02  0.48030203283E+02 -0.52425175101E+02  0.28189920619E+03  0.26300419333E+03 0.  0.
         25    1    4    4    0    0  0.71994067710E+02  0.93579169706E+01 -0.13275278256E+02  0.14523931117E+03  0.12509000000E+03 0.  0.
         25    1    3    3    0    0 -0.72392384465E+02 -0.48030203283E+02  0.84586253100E+02  0.17421222710E+03  0.12509000000E+03 0.  0.
         25    1    4    4    0    0  0.39831675564E+00  0.38672286312E+02 -0.39149896846E+02  0.13665989502E+03  0.12509000000E+03 0.  0.
<mgrwt>
<rscale>  2 0.45497616E+03</rscale>
<asrwt>0</asrwt>
<pdfrwt beam="1">  1       21 0.35902391E-01 0.45497616E+03</pdfrwt>
<pdfrwt beam="2">  1       21 0.31172820E-01 0.45497616E+03</pdfrwt>
<totfact> 0.68477508E+04</totfact>
</mgrwt>
</event>
<event>
 7    0  0.4737014E-002  0.4455239E+03  0.7546771E-02  0.1029065E+00
         21   -1    0    0  502  501  0.00000000000E+00  0.00000000000E+00  0.34107212891E+03  0.34107212891E+03  0.00000000000E+00 0. -1.
         21   -1    0    0  501  502 -0.00000000000E+00 -0.00000000000E+00 -0.14549090956E+03  0.14549090956E+03  0.00000000000E+00 0. -1.
      99926    2    1    2    0    0  0.00000000000E+00  0.00000000000E+00  0.19558121935E+03  0.48656303847E+03  0.44552393544E+03 0.  0.
      99925    2    3    3    0    0  0.31300953798E+02  0.98737474919E+02  0.11462802547E+03  0.30509743192E+03  0.26308937660E+03 0.  0.
         25    1    4    4    0    0 -0.73739977135E+01  0.84171357378E+02  0.64142172182E+02  0.16401499809E+03  0.12509000000E+03 0.  0.
         25    1    3    3    0    0 -0.31300953798E+02 -0.98737474919E+02  0.80953193874E+02  0.18146560655E+03  0.12509000000E+03 0.  0.
         25    1    4    4    0    0  0.38674951511E+02  0.14566117540E+02  0.50485853292E+02  0.14108243384E+03  0.12509000000E+03 0.  0.
<mgrwt>
<rscale>  2 0.44552394E+03</rscale>
<asrwt>0</asrwt>
<pdfrwt beam="1">  1       21 0.50157666E-01 0.44552394E+03</pdfrwt>
<pdfrwt beam="2">  1       21 0.21395722E-01 0.44552394E+03</pdfrwt>
<totfact> 0.71451032E+04</totfact>
</mgrwt>
</event>
<event>
 7    0  0.4737014E-002  0.4543265E+03  0.7546771E-02  0.1026440E+00
         21   -1    0    0  502  501  0.00000000000E+00  0.00000000000E+00  0.22338722607E+03  0.22338722607E+03  0.00000000000E+00 0. -1.
         21   -1    0    0  501  502 -0.00000000000E+00 -0.00000000000E+00 -0.23100313721E+03  0.23100313721E+03  0.00000000000E+00 0. -1.
      99926    2    1    2    0    0  0.00000000000E+00  0.00000000000E+00 -0.76159111337E+01  0.45439036328E+03  0.45432653471E+03 0.  0.
      99925    2    3    3    0    0  0.64356093055E+02 -0.48044418274E+02 -0.83762170463E+02  0.28737020357E+03  0.26289838314E+03 0.  0.
         25    1    4    4    0    0  0.42225144602E+02 -0.47399474706E+02 -0.10367522759E+02  0.14065797762E+03  0.12509000000E+03 0.  0.
         25    1    4    4    0    0  0.22130948452E+02 -0.64494356874E+00 -0.73394647704E+02  0.14671222595E+03  0.12509000000E+03 0.  0.
         25    1    3    3    0    0 -0.64356093055E+02  0.48044418274E+02  0.76146259329E+02  0.16702015971E+03  0.12509000000E+03 0.  0.
<mgrwt>
<rscale>  2 0.45432653E+03</rscale>
<asrwt>0</asrwt>
<pdfrwt beam="1">  1       21 0.32851063E-01 0.45432653E+03</pdfrwt>
<pdfrwt beam="2">  1       21 0.33971049E-01 0.45432653E+03</pdfrwt>
<totfact> 0.68960295E+04</totfact>
</mgrwt>
</event>
<event>
 7    0  0.4737014E-002  0.4538345E+03  0.7546771E-02  0.1026585E+00
         21   -1    0    0  502  501  0.00000000000E+00  0.00000000000E+00  0.15934263195E+03  0.15934263195E+03  0.00000000000E+00 0. -1.
         21   -1    0    0  501  502 -0.00000000000E+00 -0.00000000000E+00 -0.32314921973E+03  0.32314921973E+03  0.00000000000E+00 0. -1.
      99926    2    1    2    0    0  0.00000000000E+00  0.00000000000E+00 -0.16380658778E+03  0.48249185168E+03  0.45383453895E+03 0.  0.
      99925    2    3    3    0    0  0.46246575245E+02 -0.84499893262E+02 -0.16371549176E+03  0.32461058591E+03  0.26323049322E+03 0.  0.
         25    1    4    4    0    0  0.25052525901E+02 -0.12698391516E+02 -0.11103483967E+03  0.16960283583E+03  0.12509000000E+03 0.  0.
         25    1    4    4    0    0  0.21194049344E+02 -0.71801501746E+02 -0.52680652087E+02  0.15500775008E+03  0.12509000000E+03 0.  0.
         25    1    3    3    0    0 -0.46246575245E+02  0.84499893262E+02 -0.91096024574E-01  0.15788126577E+03  0.12509000000E+03 0.  0.
<mgrwt>
<rscale>  2 0.45383454E+03</rscale>
<asrwt>0</asrwt>
<pdfrwt beam="1">  1       21 0.23432740E-01 0.45383454E+03</pdfrwt>
<pdfrwt beam="2">  1       21 0.47521944E-01 0.45383454E+03</pdfrwt>
<totfact> 0.67138142E+04</totfact>
</mgrwt>
</event>
<event>
 7    0  0.4737014E-002  0.4390649E+03  0.7546771E-02  0.1031034E+00
         21   -1    0    0  502  501  0.00000000000E+00  0.00000000000E+00  0.18533330642E+03  0.18533330642E+03  0.00000000000E+00 0.  1.
         21   -1    0    0  501  502 -0.00000000000E+00 -0.00000000000E+00 -0.26004230906E+03  0.26004230906E+03  0.00000000000E+00 0.  1.
      99926    2    1    2    0    0 -0.71054273576E-14 -0.17763568394E-14 -0.74709002635E+02  0.44537561548E+03  0.43906491978E+03 0.  0.
      99925    2    3    3    0    0  0.41293656704E+02 -0.14521229850E+02 -0.13611936198E+03  0.29931134012E+03  0.26295011964E+03 0.  0.
         25    1    3    3    0    0 -0.41293656704E+02  0.14521229850E+02  0.61410359342E+02  0.14606427535E+03  0.12509000000E+03 0.  0.
         25    1    4    4    0    0  0.50927699008E+02  0.12291315728E+02 -0.90980825805E+02  0.16330868236E+03  0.12509000000E+03 0.  0.
         25    1    4    4    0    0 -0.96340423047E+01 -0.26812545578E+02 -0.45138536173E+02  0.13600265777E+03  0.12509000000E+03 0.  0.
<mgrwt>
<rscale>  2 0.43906492E+03</rscale>
<asrwt>0</asrwt>
<pdfrwt beam="1">  1       21 0.27254898E-01 0.43906492E+03</pdfrwt>
<pdfrwt beam="2">  1       21 0.38241516E-01 0.43906492E+03</pdfrwt>
<totfact> 0.78807845E+04</totfact>
</mgrwt>
</event>
<event>
 7    0  0.4737014E-002  0.4383379E+03  0.7546771E-02  0.1031258E+00
         21   -1    0    0  502  501  0.00000000000E+00  0.00000000000E+00  0.24946847605E+03  0.24946847605E+03  0.00000000000E+00 0.  1.
         21   -1    0    0  501  502 -0.00000000000E+00 -0.00000000000E+00 -0.19254950262E+03  0.19254950262E+03  0.00000000000E+00 0.  1.
      99926    2    1    2    0    0  0.00000000000E+00  0.14210854715E-13  0.56918973428E+02  0.44201797867E+03  0.43833791067E+03 0.  0.
      99925    2    3    3    0    0 -0.14733161909E+02  0.68309973747E+02  0.10386209189E+03  0.29123839436E+03  0.26296225897E+03 0.  0.
         25    1    3    3    0    0  0.14733161909E+02 -0.68309973747E+02 -0.46943118467E+02  0.15077958431E+03  0.12509000000E+03 0.  0.
         25    1    4    4    0    0 -0.95474730853E+01 -0.59717543367E+01  0.36211867276E+02  0.13071198692E+03  0.12509000000E+03 0.  0.
         25    1    4    4    0    0 -0.51856888235E+01  0.74281728084E+02  0.67650224619E+02  0.16052640744E+03  0.12509000000E+03 0.  0.
<mgrwt>
<rscale>  2 0.43833791E+03</rscale>
<asrwt>0</asrwt>
<pdfrwt beam="1">  1       21 0.36686541E-01 0.43833791E+03</pdfrwt>
<pdfrwt beam="2">  1       21 0.28316103E-01 0.43833791E+03</pdfrwt>
<totfact> 0.79570421E+04</totfact>
</mgrwt>
</event>
<event>
 7    0  0.4737014E-002  0.4522406E+03  0.7546771E-02  0.1027056E+00
         21   -1    0    0  502  501  0.00000000000E+00  0.00000000000E+00  0.34358025075E+03  0.34358025075E+03  0.00000000000E+00 0. -1.
         21   -1    0    0  501  502 -0.00000000000E+00 -0.00000000000E+00 -0.14881647039E+03  0.14881647039E+03  0.00000000000E+00 0. -1.
      99926    2    1    2    0    0  0.00000000000E+00 -0.53290705182E-14  0.19476378036E+03  0.49239672114E+03  0.45224064484E+03 0.  0.
      99925    2    3    3    0    0  0.89625032991E+02  0.86586769418E+01  0.53392067388E+02  0.28325301802E+03  0.26319943034E+03 0.  0.
         25    1    4    4    0    0  0.50625317865E+02 -0.34754050335E+02  0.16137241535E+02  0.14028073812E+03  0.12509000000E+03 0.  0.
         25    1    4    4    0    0  0.38999715127E+02  0.43412727277E+02  0.37254825853E+02  0.14297227990E+03  0.12509000000E+03 0.  0.
         25    1    3    3    0    0 -0.89625032991E+02 -0.86586769418E+01  0.14137171298E+03  0.20914370312E+03  0.12509000000E+03 0.  0.
<mgrwt>
<rscale>  2 0.45224064E+03</rscale>
<asrwt>0</asrwt>
<pdfrwt beam="1">  1       21 0.50526507E-01 0.45224064E+03</pdfrwt>
<pdfrwt beam="2">  1       21 0.21884775E-01 0.45224064E+03</pdfrwt>
<totfact> 0.67269717E+04</totfact>
</mgrwt>
</event>
<event>
 7    0  0.4737014E-002  0.4566004E+03  0.7546771E-02  0.1025772E+00
         21   -1    0    0  502  501  0.00000000000E+00  0.00000000000E+00  0.43914650066E+02  0.43914650066E+02  0.00000000000E+00 0.  1.
         21   -1    0    0  501  502 -0.00000000000E+00 -0.00000000000E+00 -0.11868702329E+04  0.11868702329E+04  0.00000000000E+00 0.  1.
      99926    2    1    2    0    0 -0.11657341759E-14  0.00000000000E+00 -0.11429555829E+04  0.12307848830E+04  0.45660044219E+03 0.  0.
      99925    2    3    3    0    0  0.45932177885E-01 -0.95838793922E+02 -0.54817688340E+03  0.61548472375E+03  0.26294195775E+03 0.  0.
         25    1    4    4    0    0 -0.24058425332E+02 -0.14629202293E+02 -0.23220192528E+03  0.26525094456E+03  0.12509000000E+03 0.  0.
         25    1    3    3    0    0 -0.45932177885E-01  0.95838793922E+02 -0.59477869946E+03  0.61530015924E+03  0.12509000000E+03 0.  0.
         25    1    4    4    0    0  0.24104357510E+02 -0.81209591629E+02 -0.31597495812E+03  0.35023377918E+03  0.12509000000E+03 0.  0.
<mgrwt>
<rscale>  2 0.45660044E+03</rscale>
<asrwt>0</asrwt>
<pdfrwt beam="1">  1       21 0.64580372E-02 0.45660044E+03</pdfrwt>
<pdfrwt beam="2">  1       21 0.17453973E+00 0.45660044E+03</pdfrwt>
<totfact> 0.30807281E+04</totfact>
</mgrwt>
</event>
<event>
 7    0  0.4737014E-002  0.4637190E+03  0.7546771E-02  0.1023708E+00
         21   -1    0    0  502  501  0.00000000000E+00  0.00000000000E+00  0.22904191895E+03  0.22904191895E+03  0.00000000000E+00 0. -1.
         21   -1    0    0  501  502 -0.00000000000E+00 -0.00000000000E+00 -0.23471170254E+03  0.23471170254E+03  0.00000000000E+00 0. -1.
      99926    2    1    2    0    0  0.35527136788E-14  0.00000000000E+00 -0.56697835884E+01  0.46375362149E+03  0.46371896123E+03 0.  0.
      99925    2    3    3    0    0  0.22349797594E+02  0.11903132023E+03 -0.74756021745E+01  0.28963085523E+03  0.26298703205E+03 0.  0.
         25    1    3    3    0    0 -0.22349797594E+02 -0.11903132023E+03  0.18058185861E+01  0.17412276626E+03  0.12509000000E+03 0.  0.
         25    1    4    4    0    0  0.32599901895E+02  0.92893102012E+02  0.13374344935E+02  0.15974436831E+03  0.12509000000E+03 0.  0.
         25    1    4    4    0    0 -0.10250104300E+02  0.26138218222E+02 -0.20849947110E+02  0.12988648692E+03  0.12509000000E+03 0.  0.
<mgrwt>
<rscale>  2 0.46371896E+03</rscale>
<asrwt>0</asrwt>
<pdfrwt beam="1">  1       21 0.33682635E-01 0.46371896E+03</pdfrwt>
<pdfrwt beam="2">  1       21 0.34516427E-01 0.46371896E+03</pdfrwt>
<totfact> 0.63383619E+04</totfact>
</mgrwt>
</event>
<event>
 7    0  0.4737014E-002  0.4447746E+03  0.7546771E-02  0.1029292E+00
         21   -1    0    0  502  501  0.00000000000E+00  0.00000000000E+00  0.67826841504E+03  0.67826841504E+03  0.00000000000E+00 0. -1.
         21   -1    0    0  501  502 -0.00000000000E+00 -0.00000000000E+00 -0.72915257624E+02  0.72915257624E+02  0.00000000000E+00 0. -1.
      99926    2    1    2    0    0  0.00000000000E+00  0.00000000000E+00  0.60535315741E+03  0.75118367266E+03  0.44477462257E+03 0.  0.
      99925    2    3    3    0    0 -0.69530012566E+02 -0.66709852690E+02  0.44624457841E+03  0.52702374068E+03  0.26331572757E+03 0.  0.
         25    1    4    4    0    0 -0.42113290096E+02 -0.48049408534E+02  0.16014576016E+03  0.21301748159E+03  0.12509000000E+03 0.  0.
         25    1    3    3    0    0  0.69530012566E+02  0.66709852690E+02  0.15910857900E+03  0.22415993198E+03  0.12509000000E+03 0.  0.
         25    1    4    4    0    0 -0.27416722470E+02 -0.18660444155E+02  0.28609881825E+03  0.31400625909E+03  0.12509000000E+03 0.  0.
<mgrwt>
<rscale>  2 0.44477462E+03</rscale>
<asrwt>0</asrwt>
<pdfrwt beam="1">  1       21 0.99745352E-01 0.44477462E+03</pdfrwt>
<pdfrwt beam="2">  1       21 0.10722832E-01 0.44477462E+03</pdfrwt>
<totfact> 0.54456676E+04</totfact>
</mgrwt>
</event>
<event>
 7    0  0.4737014E-002  0.4532819E+03  0.7546771E-02  0.1026748E+00
         21   -1    0    0  502  501  0.00000000000E+00  0.00000000000E+00  0.37277598121E+02  0.37277598121E+02  0.00000000000E+00 0.  1.
         21   -1    0    0  501  502 -0.00000000000E+00 -0.00000000000E+00 -0.13779355737E+04  0.13779355737E+04  0.00000000000E+00 0.  1.
      99926    2    1    2    0    0  0.14210854715E-13  0.00000000000E+00 -0.13406579755E+04  0.14152131718E+04  0.45328193678E+03 0.  0.
      99925    2    3    3    0    0 -0.82305789187E+02  0.62933681223E+02 -0.71568298462E+03  0.76947627603E+03  0.26297664103E+03 0.  0.
         25    1    4    4    0    0 -0.45474364718E+02  0.42270989847E+01 -0.42752704425E+03  0.44778640876E+03  0.12509000000E+03 0.  0.
         25    1    3    3    0    0  0.82305789187E+02 -0.62933681223E+02 -0.62497499092E+03  0.64573689575E+03  0.12509000000E+03 0.  0.
         25    1    4    4    0    0 -0.36831424468E+02  0.58706582238E+02 -0.28815594038E+03  0.32168986727E+03  0.12509000000E+03 0.  0.
<mgrwt>
<rscale>  2 0.45328194E+03</rscale>
<asrwt>0</asrwt>
<pdfrwt beam="1">  1       21 0.54820019E-02 0.45328194E+03</pdfrwt>
<pdfrwt beam="2">  1       21 0.20263750E+00 0.45328194E+03</pdfrwt>
<totfact> 0.26278510E+04</totfact>
</mgrwt>
</event>
<event>
 7    0  0.4737014E-002  0.4578723E+03  0.7546771E-02  0.1025400E+00
         21   -1    0    0  502  501  0.00000000000E+00  0.00000000000E+00  0.10863184577E+03  0.10863184577E+03  0.00000000000E+00 0. -1.
         21   -1    0    0  501  502 -0.00000000000E+00 -0.00000000000E+00 -0.48247150471E+03  0.48247150471E+03  0.00000000000E+00 0. -1.
      99926    2    1    2    0    0  0.00000000000E+00  0.71054273576E-14 -0.37383965894E+03  0.59110335047E+03  0.45787234066E+03 0.  0.
      99925    2    3    3    0    0 -0.87078648471E+02 -0.56076943266E+02 -0.16781032730E+03  0.32876214483E+03  0.26305308844E+03 0.  0.
         25    1    3    3    0    0  0.87078648471E+02  0.56076943266E+02 -0.20602933164E+03  0.26234120565E+03  0.12509000000E+03 0.  0.
         25    1    4    4    0    0 -0.20928040119E+01 -0.35594113092E+02 -0.79477252313E+02  0.15243182886E+03  0.12509000000E+03 0.  0.
         25    1    4    4    0    0 -0.84985844459E+02 -0.20482830174E+02 -0.88333074988E+02  0.17633031596E+03  0.12509000000E+03 0.  0.
<mgrwt>
<rscale>  2 0.45787234E+03</rscale>
<asrwt>0</asrwt>
<pdfrwt beam="1">  1       21 0.15975272E-01 0.45787234E+03</pdfrwt>
<pdfrwt beam="2">  1       21 0.70951691E-01 0.45787234E+03</pdfrwt>
<totfact> 0.57903531E+04</totfact>
</mgrwt>
</event>
<event>
 7    0  0.4737014E-002  0.4674266E+03  0.7546771E-02  0.1022649E+00
         21   -1    0    0  502  501  0.00000000000E+00  0.00000000000E+00  0.50377167686E+03  0.50377167686E+03  0.00000000000E+00 0. -1.
         21   -1    0    0  501  502 -0.00000000000E+00 -0.00000000000E+00 -0.10842591780E+03  0.10842591780E+03  0.00000000000E+00 0. -1.
      99926    2    1    2    0    0  0.14210854715E-13  0.00000000000E+00  0.39534575906E+03  0.61219759467E+03  0.46742659927E+03 0.  0.
      99925    2    3    3    0    0 -0.97996745415E+02  0.76480410230E+02  0.23526499578E+03  0.37402544236E+03  0.26285508942E+03 0.  0.
         25    1    3    3    0    0  0.97996745415E+02 -0.76480410230E+02  0.16008076328E+03  0.23817215230E+03  0.12509000000E+03 0.  0.
         25    1    4    4    0    0 -0.74277300358E+02  0.63684768702E+02  0.99212430551E+02  0.18725245416E+03  0.12509000000E+03 0.  0.
         25    1    4    4    0    0 -0.23719445057E+02  0.12795641528E+02  0.13605256523E+03  0.18677298820E+03  0.12509000000E+03 0.  0.
<mgrwt>
<rscale>  2 0.46742660E+03</rscale>
<asrwt>0</asrwt>
<pdfrwt beam="1">  1       21 0.74084069E-01 0.46742660E+03</pdfrwt>
<pdfrwt beam="2">  1       21 0.15944988E-01 0.46742660E+03</pdfrwt>
<totfact> 0.52579416E+04</totfact>
</mgrwt>
</event>
<event>
 7    0  0.4737014E-002  0.4704266E+03  0.7546771E-02  0.1021800E+00
         21   -1    0    0  502  501  0.00000000000E+00  0.00000000000E+00  0.35436679290E+03  0.35436679290E+03  0.00000000000E+00 0. -1.
         21   -1    0    0  501  502 -0.00000000000E+00 -0.00000000000E+00 -0.15612436415E+03  0.15612436415E+03  0.00000000000E+00 0. -1.
      99926    2    1    2    0    0  0.00000000000E+00  0.00000000000E+00  0.19824242874E+03  0.51049115705E+03  0.47042657330E+03 0.  0.
      99925    2    3    3    0    0 -0.88015793350E+02 -0.24733825855E+02  0.27364377338E+02  0.27982828927E+03  0.26305231477E+03 0.  0.
         25    1    4    4    0    0 -0.84676702743E+02 -0.19449843224E+02  0.26431810531E+02  0.15457874723E+03  0.12509000000E+03 0.  0.
         25    1    3    3    0    0  0.88015793350E+02  0.24733825855E+02  0.17087805141E+03  0.23066286778E+03  0.12509000000E+03 0.  0.
         25    1    4    4    0    0 -0.33390906075E+01 -0.52839826313E+01  0.93256680719E+00  0.12524954203E+03  0.12509000000E+03 0.  0.
<mgrwt>
<rscale>  2 0.47042657E+03</rscale>
<asrwt>0</asrwt>
<pdfrwt beam="1">  1       21 0.52112763E-01 0.47042657E+03</pdfrwt>
<pdfrwt beam="2">  1       21 0.22959465E-01 0.47042657E+03</pdfrwt>
<totfact> 0.57207077E+04</totfact>
</mgrwt>
</event>
<event>
 7    0  0.4737014E-002  0.4149239E+03  0.7546771E-02  0.1038731E+00
         21   -1    0    0  502  501  0.00000000000E+00  0.00000000000E+00  0.24936598778E+03  0.24936598778E+03  0.00000000000E+00 0. -1.
         21   -1    0    0  501  502 -0.00000000000E+00 -0.00000000000E+00 -0.17259953406E+03  0.17259953406E+03  0.00000000000E+00 0. -1.
      99926    2    1    2    0    0  0.17763568394E-14  0.71054273576E-14  0.76766453720E+02  0.42196552183E+03  0.41492386434E+03 0.  0.
      99925    2    3    3    0    0  0.13465477260E+02  0.47580763172E+02  0.95358503391E+00  0.26756232478E+03  0.26295140276E+03 0.  0.
         25    1    4    4    0    0 -0.10984074676E+02  0.45072321454E+02  0.30150649439E+02  0.13677987359E+03  0.12509000000E+03 0.  0.
         25    1    4    4    0    0  0.24449551936E+02  0.25084417183E+01 -0.29197064405E+02  0.13078245119E+03  0.12509000000E+03 0.  0.
         25    1    3    3    0    0 -0.13465477260E+02 -0.47580763172E+02  0.75812868686E+02  0.15440319705E+03  0.12509000000E+03 0.  0.
<mgrwt>
<rscale>  2 0.41492386E+03</rscale>
<asrwt>0</asrwt>
<pdfrwt beam="1">  1       21 0.36671469E-01 0.41492386E+03</pdfrwt>
<pdfrwt beam="2">  1       21 0.25382284E-01 0.41492386E+03</pdfrwt>
<totfact> 0.99126594E+04</totfact>
</mgrwt>
</event>
<event>
 7    0  0.4737014E-002  0.4510695E+03  0.7546771E-02  0.1027404E+00
         21   -1    0    0  502  501  0.00000000000E+00  0.00000000000E+00  0.80337150591E+02  0.80337150591E+02  0.00000000000E+00 0.  1.
         21   -1    0    0  501  502 -0.00000000000E+00 -0.00000000000E+00 -0.63315557512E+03  0.63315557512E+03  0.00000000000E+00 0.  1.
      99926    2    1    2    0    0 -0.14210854715E-13  0.00000000000E+00 -0.55281842453E+03  0.71349272571E+03  0.45106946155E+03 0.  0.
      99925    2    3    3    0    0 -0.91469923242E+02  0.60513886910E+02 -0.34657476295E+03  0.44851605993E+03  0.26272402314E+03 0.  0.
         25    1    3    3    0    0  0.91469923242E+02 -0.60513886910E+02 -0.20624366157E+03  0.26497666578E+03  0.12509000000E+03 0.  0.
         25    1    4    4    0    0 -0.65069547918E+02  0.67732889198E+02 -0.19934682872E+03  0.25339387634E+03  0.12509000000E+03 0.  0.
         25    1    4    4    0    0 -0.26400375325E+02 -0.72190022878E+01 -0.14722793424E+03  0.19512218359E+03  0.12509000000E+03 0.  0.
<mgrwt>
<rscale>  2 0.45106946E+03</rscale>
<asrwt>0</asrwt>
<pdfrwt beam="1">  1       21 0.11814287E-01 0.45106946E+03</pdfrwt>
<pdfrwt beam="2">  1       21 0.93111114E-01 0.45106946E+03</pdfrwt>
<totfact> 0.53821538E+04</totfact>
</mgrwt>
</event>
<event>
 7    0  0.4737014E-002  0.4509922E+03  0.7546771E-02  0.1027427E+00
         21   -1    0    0  502  501  0.00000000000E+00  0.00000000000E+00  0.11701923894E+03  0.11701923894E+03  0.00000000000E+00 0.  1.
         21   -1    0    0  501  502 -0.00000000000E+00 -0.00000000000E+00 -0.43453109402E+03  0.43453109402E+03  0.00000000000E+00 0.  1.
      99926    2    1    2    0    0 -0.14210854715E-13  0.24424906542E-14 -0.31751185507E+03  0.55155033296E+03  0.45099223017E+03 0.  0.
      99925    2    3    3    0    0  0.10925561973E+03  0.18838806494E+01 -0.20352834926E+03  0.35010533514E+03  0.26307720785E+03 0.  0.
         25    1    3    3    0    0 -0.10925561973E+03 -0.18838806494E+01 -0.11398350581E+03  0.20144499782E+03  0.12509000000E+03 0.  0.
         25    1    4    4    0    0  0.86359356843E+02 -0.23180817827E+02 -0.92520418785E+02  0.17945145533E+03  0.12509000000E+03 0.  0.
         25    1    4    4    0    0  0.22896262889E+02  0.25064698477E+02 -0.11100793048E+03  0.17065387981E+03  0.12509000000E+03 0.  0.
<mgrwt>
<rscale>  2 0.45099223E+03</rscale>
<asrwt>0</asrwt>
<pdfrwt beam="1">  1       21 0.17208712E-01 0.45099223E+03</pdfrwt>
<pdfrwt beam="2">  1       21 0.63901631E-01 0.45099223E+03</pdfrwt>
<totfact> 0.63761998E+04</totfact>
</mgrwt>
</event>
<event>
 7    0  0.4737014E-002  0.4586390E+03  0.7546771E-02  0.1025177E+00
         21   -1    0    0  502  501  0.00000000000E+00  0.00000000000E+00  0.21490766146E+03  0.21490766146E+03  0.00000000000E+00 0. -1.
         21   -1    0    0  501  502 -0.00000000000E+00 -0.00000000000E+00 -0.24469778348E+03  0.24469778348E+03  0.00000000000E+00 0. -1.
      99926    2    1    2    0    0  0.26645352591E-14 -0.14210854715E-13 -0.29790122018E+02  0.45960544493E+03  0.45863897964E+03 0.  0.
      99925    2    3    3    0    0 -0.67865595379E+01  0.10842046012E+03 -0.60065185126E+02  0.29118590596E+03  0.26340150304E+03 0.  0.
         25    1    4    4    0    0  0.23851685092E+02  0.80967020596E+02 -0.50614055464E+02  0.15916611454E+03  0.12509000000E+03 0.  0.
         25    1    4    4    0    0 -0.30638244629E+02  0.27453439522E+02 -0.94511296618E+01  0.13201979142E+03  0.12509000000E+03 0.  0.
         25    1    3    3    0    0  0.67865595379E+01 -0.10842046012E+03  0.30275063107E+02  0.16841953898E+03  0.12509000000E+03 0.  0.
<mgrwt>
<rscale>  2 0.45863898E+03</rscale>
<asrwt>0</asrwt>
<pdfrwt beam="1">  1       21 0.31604068E-01 0.45863898E+03</pdfrwt>
<pdfrwt beam="2">  1       21 0.35984968E-01 0.45863898E+03</pdfrwt>
<totfact> 0.66264770E+04</totfact>
</mgrwt>
</event>
<event>
 7    0  0.4737014E-002  0.4546038E+03  0.7546771E-02  0.1026358E+00
         21   -1    0    0  502  501  0.00000000000E+00  0.00000000000E+00  0.26570888837E+03  0.26570888837E+03  0.00000000000E+00 0.  1.
         21   -1    0    0  501  502 -0.00000000000E+00 -0.00000000000E+00 -0.19444646817E+03  0.19444646817E+03  0.00000000000E+00 0.  1.
      99926    2    1    2    0    0  0.00000000000E+00  0.14210854715E-13  0.71262420199E+02  0.46015535653E+03  0.45460380510E+03 0.  0.
      99925    2    3    3    0    0  0.67427234044E+02  0.83477175047E+02  0.10747598492E+02  0.28458650283E+03  0.26336115141E+03 0.  0.
         25    1    4    4    0    0  0.25057162519E+02  0.83125028312E+02  0.32189987582E+01  0.15230069527E+03  0.12509000000E+03 0.  0.
         25    1    3    3    0    0 -0.67427234044E+02 -0.83477175047E+02  0.60514821707E+02  0.17556885370E+03  0.12509000000E+03 0.  0.
         25    1    4    4    0    0  0.42370071525E+02  0.35214673509E+00  0.75285997338E+01  0.13228580756E+03  0.12509000000E+03 0.  0.
<mgrwt>
<rscale>  2 0.45460381E+03</rscale>
<asrwt>0</asrwt>
<pdfrwt beam="1">  1       21 0.39074837E-01 0.45460381E+03</pdfrwt>
<pdfrwt beam="2">  1       21 0.28595069E-01 0.45460381E+03</pdfrwt>
<totfact> 0.68385033E+04</totfact>
</mgrwt>
</event>
<event>
 7    0  0.4737014E-002  0.4496315E+03  0.7546771E-02  0.1027832E+00
         21   -1    0    0  502  501  0.00000000000E+00  0.00000000000E+00  0.13905106106E+04  0.13905106106E+04  0.00000000000E+00 0. -1.
         21   -1    0    0  501  502 -0.00000000000E+00 -0.00000000000E+00 -0.36347890504E+02  0.36347890504E+02  0.00000000000E+00 0. -1.
      99926    2    1    2    0    0  0.71054273576E-14 -0.71054273576E-14  0.13541627201E+04  0.14268585011E+04  0.44963152656E+03 0.  0.
      99925    2    3    3    0    0  0.36859034867E+02  0.37344859288E+02  0.11558386117E+04  0.11865811883E+04  0.26317065418E+03 0.  0.
         25    1    4    4    0    0 -0.88286321161E+01 -0.11798492881E+02  0.57762440417E+03  0.59119760620E+03  0.12509000000E+03 0.  0.
         25    1    3    3    0    0 -0.36859034867E+02 -0.37344859288E+02  0.19832410840E+03  0.24027731278E+03  0.12509000000E+03 0.  0.
         25    1    4    4    0    0  0.45687666983E+02  0.49143352169E+02  0.57821420753E+03  0.59538358213E+03  0.12509000000E+03 0.  0.
<mgrwt>
<rscale>  2 0.44963153E+03</rscale>
<asrwt>0</asrwt>
<pdfrwt beam="1">  1       21 0.20448682E+00 0.44963153E+03</pdfrwt>
<pdfrwt beam="2">  1       21 0.53452789E-02 0.44963153E+03</pdfrwt>
<totfact> 0.26722468E+04</totfact>
</mgrwt>
</event>
<event>
 7    0  0.4737014E-002  0.4561367E+03  0.7546771E-02  0.1025908E+00
         21   -1    0    0  502  501  0.00000000000E+00  0.00000000000E+00  0.10607963080E+03  0.10607963080E+03  0.00000000000E+00 0. -1.
         21   -1    0    0  501  502 -0.00000000000E+00 -0.00000000000E+00 -0.49034075612E+03  0.49034075612E+03  0.00000000000E+00 0. -1.
      99926    2    1    2    0    0  0.00000000000E+00  0.71054273576E-14 -0.38426112533E+03  0.59642038692E+03  0.45613667414E+03 0.  0.
      99925    2    3    3    0    0 -0.78859450817E+02 -0.52747813235E+02 -0.32475506905E+03  0.42852272875E+03  0.26299188086E+03 0.  0.
         25    1    4    4    0    0 -0.19609999979E+02  0.10881957985E+02 -0.14051354795E+03  0.18945852941E+03  0.12509000000E+03 0.  0.
         25    1    4    4    0    0 -0.59249450838E+02 -0.63629771220E+02 -0.18424152110E+03  0.23906419934E+03  0.12509000000E+03 0.  0.
         25    1    3    3    0    0  0.78859450817E+02  0.52747813235E+02 -0.59506056276E+02  0.16789765817E+03  0.12509000000E+03 0.  0.
<mgrwt>
<rscale>  2 0.45613667E+03</rscale>
<asrwt>0</asrwt>
<pdfrwt beam="1">  1       21 0.15599946E-01 0.45613667E+03</pdfrwt>
<pdfrwt beam="2">  1       21 0.72108933E-01 0.45613667E+03</pdfrwt>
<totfact> 0.58373060E+04</totfact>
</mgrwt>
</event>
<event>
 7    0  0.4737014E-002  0.4483117E+03  0.7546771E-02  0.1028227E+00
         21   -1    0    0  502  501  0.00000000000E+00  0.00000000000E+00  0.26491996835E+03  0.26491996835E+03  0.00000000000E+00 0. -1.
         21   -1    0    0  501  502 -0.00000000000E+00 -0.00000000000E+00 -0.18966420152E+03  0.18966420152E+03  0.00000000000E+00 0. -1.
      99926    2    1    2    0    0  0.00000000000E+00  0.11102230246E-15  0.75255766828E+02  0.45458416987E+03  0.44831165170E+03 0.  0.
      99925    2    3    3    0    0  0.72468467653E+02 -0.86967536461E+00  0.12695585503E+03  0.30104967094E+03  0.26317423907E+03 0.  0.
         25    1    4    4    0    0 -0.54270440817E+01 -0.75528409305E+01  0.56383326201E+02  0.13752485516E+03  0.12509000000E+03 0.  0.
         25    1    3    3    0    0 -0.72468467653E+02  0.86967536461E+00 -0.51700088205E+02  0.15353449892E+03  0.12509000000E+03 0.  0.
         25    1    4    4    0    0  0.77895511735E+02  0.66831655659E+01  0.70572528832E+02  0.16352481578E+03  0.12509000000E+03 0.  0.
<mgrwt>
<rscale>  2 0.44831165E+03</rscale>
<asrwt>0</asrwt>
<pdfrwt beam="1">  1       21 0.38958819E-01 0.44831165E+03</pdfrwt>
<pdfrwt beam="2">  1       21 0.27891794E-01 0.44831165E+03</pdfrwt>
<totfact> 0.72360030E+04</totfact>
</mgrwt>
</event>
<event>
 7    0  0.4737014E-002  0.4513710E+03  0.7546771E-02  0.1027314E+00
         21   -1    0    0  502  501  0.00000000000E+00  0.00000000000E+00  0.42518520059E+02  0.42518520059E+02  0.00000000000E+00 0.  1.
         21   -1    0    0  501  502 -0.00000000000E+00 -0.00000000000E+00 -0.11979239859E+04  0.11979239859E+04  0.00000000000E+00 0.  1.
      99926    2    1    2    0    0  0.00000000000E+00  0.00000000000E+00 -0.11554054659E+04  0.12404425060E+04  0.45137104481E+03 0.  0.
      99925    2    3    3    0    0 -0.51730783812E+02  0.92437376229E+02 -0.64959016535E+03  0.70873077125E+03  0.26289005435E+03 0.  0.
         25    1    4    4    0    0  0.14207713029E+01  0.75387001187E+02 -0.31655363104E+03  0.34862433645E+03  0.12509000000E+03 0.  0.
         25    1    3    3    0    0  0.51730783812E+02 -0.92437376229E+02 -0.50581530050E+03  0.53171173472E+03  0.12509000000E+03 0.  0.
         25    1    4    4    0    0 -0.53151555115E+02  0.17050375042E+02 -0.33303653431E+03  0.36010643480E+03  0.12509000000E+03 0.  0.
<mgrwt>
<rscale>  2 0.45137104E+03</rscale>
<asrwt>0</asrwt>
<pdfrwt beam="1">  1       21 0.62527231E-02 0.45137104E+03</pdfrwt>
<pdfrwt beam="2">  1       21 0.17616530E+00 0.45137104E+03</pdfrwt>
<totfact> 0.31783073E+04</totfact>
</mgrwt>
</event>
<event>
 7    0  0.4737014E-002  0.4450405E+03  0.7546771E-02  0.1029211E+00
         21   -1    0    0  502  501  0.00000000000E+00  0.00000000000E+00  0.11982769809E+03  0.11982769809E+03  0.00000000000E+00 0. -1.
         21   -1    0    0  501  502 -0.00000000000E+00 -0.00000000000E+00 -0.41322044444E+03  0.41322044444E+03  0.00000000000E+00 0. -1.
      99926    2    1    2    0    0  0.00000000000E+00  0.71054273576E-14 -0.29339274635E+03  0.53304814253E+03  0.44504046855E+03 0.  0.
      99925    2    3    3    0    0 -0.67668025392E+02 -0.62482561276E+02 -0.12956636718E+03  0.30728361313E+03  0.26296909186E+03 0.  0.
         25    1    4    4    0    0 -0.47557846002E+02 -0.25195604769E+02 -0.10725592560E+03  0.17334332665E+03  0.12509000000E+03 0.  0.
         25    1    3    3    0    0  0.67668025392E+02  0.62482561276E+02 -0.16382637917E+03  0.22576452940E+03  0.12509000000E+03 0.  0.
         25    1    4    4    0    0 -0.20110179389E+02 -0.37286956507E+02 -0.22310441578E+02  0.13394028649E+03  0.12509000000E+03 0.  0.
<mgrwt>
<rscale>  2 0.44504047E+03</rscale>
<asrwt>0</asrwt>
<pdfrwt beam="1">  1       21 0.17621721E-01 0.44504047E+03</pdfrwt>
<pdfrwt beam="2">  1       21 0.60767711E-01 0.44504047E+03</pdfrwt>
<totfact> 0.68221873E+04</totfact>
</mgrwt>
</event>
<event>
 7    0  0.4737014E-002  0.4579857E+03  0.7546771E-02  0.1025367E+00
         21   -1    0    0  502  501  0.00000000000E+00  0.00000000000E+00  0.97075078030E+03  0.97075078030E+03  0.00000000000E+00 0.  1.
         21   -1    0    0  501  502 -0.00000000000E+00 -0.00000000000E+00 -0.54017708881E+02  0.54017708881E+02  0.00000000000E+00 0.  1.
      99926    2    1    2    0    0  0.00000000000E+00  0.71054273576E-14  0.91673307142E+03  0.10247684892E+04  0.45798573361E+03 0.  0.
      99925    2    3    3    0    0 -0.97721027567E+02  0.55099616486E+02  0.50921983348E+03  0.58397384974E+03  0.26293583134E+03 0.  0.
         25    1    3    3    0    0  0.97721027567E+02 -0.55099616486E+02  0.40751323794E+03  0.44079463944E+03  0.12509000000E+03 0.  0.
         25    1    4    4    0    0 -0.32145167986E+02 -0.21378085237E+01  0.18393697038E+03  0.22476253964E+03  0.12509000000E+03 0.  0.
         25    1    4    4    0    0 -0.65575859581E+02  0.57237425010E+02  0.32528286310E+03  0.35921131011E+03  0.12509000000E+03 0.  0.
<mgrwt>
<rscale>  2 0.45798573E+03</rscale>
<asrwt>0</asrwt>
<pdfrwt beam="1">  1       21 0.14275746E+00 0.45798573E+03</pdfrwt>
<pdfrwt beam="2">  1       21 0.79437813E-02 0.45798573E+03</pdfrwt>
<totfact> 0.37339020E+04</totfact>
</mgrwt>
</event>
<event>
 7    0  0.4737014E-002  0.4510055E+03  0.7546771E-02  0.1027423E+00
         21   -1    0    0  502  501  0.00000000000E+00  0.00000000000E+00  0.89325031212E+03  0.89325031212E+03  0.00000000000E+00 0. -1.
         21   -1    0    0  501  502 -0.00000000000E+00 -0.00000000000E+00 -0.56928592630E+02  0.56928592630E+02  0.00000000000E+00 0. -1.
      99926    2    1    2    0    0  0.00000000000E+00  0.00000000000E+00  0.83632171949E+03  0.95017890475E+03  0.45100546842E+03 0.  0.
      99925    2    3    3    0    0  0.10379142593E+03  0.34493935070E+02  0.52345965895E+03  0.59592946061E+03  0.26298177848E+03 0.  0.
         25    1    4    4    0    0  0.47623667217E+02  0.22516762339E+02  0.34365988724E+03  0.36949241462E+03  0.12509000000E+03 0.  0.
         25    1    4    4    0    0  0.56167758715E+02  0.11977172731E+02  0.17979977171E+03  0.22643704598E+03  0.12509000000E+03 0.  0.
         25    1    3    3    0    0 -0.10379142593E+03 -0.34493935070E+02  0.31286206054E+03  0.35424944415E+03  0.12509000000E+03 0.  0.
<mgrwt>
<rscale>  2 0.45100547E+03</rscale>
<asrwt>0</asrwt>
<pdfrwt beam="1">  1       21 0.13136033E+00 0.45100547E+03</pdfrwt>
<pdfrwt beam="2">  1       21 0.83718524E-02 0.45100547E+03</pdfrwt>
<totfact> 0.42443919E+04</totfact>
</mgrwt>
</event>
<event>
 7    0  0.4737014E-002  0.4510592E+03  0.7546771E-02  0.1027407E+00
         21   -1    0    0  502  501  0.00000000000E+00  0.00000000000E+00  0.10414578784E+03  0.10414578784E+03  0.00000000000E+00 0. -1.
         21   -1    0    0  501  502 -0.00000000000E+00 -0.00000000000E+00 -0.48838837321E+03  0.48838837321E+03  0.00000000000E+00 0. -1.
      99926    2    1    2    0    0  0.00000000000E+00 -0.71054273576E-14 -0.38424258537E+03  0.59253416105E+03  0.45105916197E+03 0.  0.
      99925    2    3    3    0    0  0.79472530968E+02  0.36020927637E+02 -0.15603980440E+03  0.31805755413E+03  0.26305664176E+03 0.  0.
         25    1    3    3    0    0 -0.79472530968E+02 -0.36020927637E+02 -0.22820278097E+03  0.27447660693E+03  0.12509000000E+03 0.  0.
         25    1    4    4    0    0  0.67567778717E+02  0.11792834725E+02 -0.11630177062E+03  0.18406000549E+03  0.12509000000E+03 0.  0.
         25    1    4    4    0    0  0.11904752251E+02  0.24228092913E+02 -0.39738033785E+02  0.13399754864E+03  0.12509000000E+03 0.  0.
<mgrwt>
<rscale>  2 0.45105916E+03</rscale>
<asrwt>0</asrwt>
<pdfrwt beam="1">  1       21 0.15315557E-01 0.45105916E+03</pdfrwt>
<pdfrwt beam="2">  1       21 0.71821817E-01 0.45105916E+03</pdfrwt>
<totfact> 0.61018431E+04</totfact>
</mgrwt>
</event>
<event>
 7    0  0.4737014E-002  0.4534727E+03  0.7546771E-02  0.1026691E+00
         21   -1    0    0  502  501  0.00000000000E+00  0.00000000000E+00  0.48154043891E+03  0.48154043891E+03  0.00000000000E+00 0. -1.
         21   -1    0    0  501  502 -0.00000000000E+00 -0.00000000000E+00 -0.10676025090E+03  0.10676025090E+03  0.00000000000E+00 0. -1.
      99926    2    1    2    0    0  0.00000000000E+00  0.35527136788E-14  0.37478018801E+03  0.58830068981E+03  0.45347272499E+03 0.  0.
      99925    2    3    3    0    0 -0.25571937802E+02  0.27072605594E+02  0.99603648863E+02  0.28374119517E+03  0.26306145479E+03 0.  0.
         25    1    3    3    0    0  0.25571937802E+02 -0.27072605594E+02  0.27517653915E+03  0.30455949464E+03  0.12509000000E+03 0.  0.
         25    1    4    4    0    0  0.32784887216E+01 -0.20611733864E+02  0.30899569485E+02  0.13052924406E+03  0.12509000000E+03 0.  0.
         25    1    4    4    0    0 -0.28850426524E+02  0.47684339458E+02  0.68704079378E+02  0.15321195111E+03  0.12509000000E+03 0.  0.
<mgrwt>
<rscale>  2 0.45347272E+03</rscale>
<asrwt>0</asrwt>
<pdfrwt beam="1">  1       21 0.70814769E-01 0.45347272E+03</pdfrwt>
<pdfrwt beam="2">  1       21 0.15700037E-01 0.45347272E+03</pdfrwt>
<totfact> 0.60126760E+04</totfact>
</mgrwt>
</event>
<event>
 7    0  0.4737014E-002  0.4553285E+03  0.7546771E-02  0.1026145E+00
         21   -1    0    0  502  501  0.00000000000E+00  0.00000000000E+00  0.30523128705E+03  0.30523128705E+03  0.00000000000E+00 0. -1.
         21   -1    0    0  501  502 -0.00000000000E+00 -0.00000000000E+00 -0.16980893377E+03  0.16980893377E+03  0.00000000000E+00 0. -1.
      99926    2    1    2    0    0  0.00000000000E+00  0.14210854715E-13  0.13542235329E+03  0.47504022082E+03  0.45532845027E+03 0.  0.
      99925    2    3    3    0    0  0.99915742212E+01 -0.83790153895E+02  0.16433578471E+03  0.32140390981E+03  0.26300874826E+03 0.  0.
         25    1    4    4    0    0  0.22974591816E+02 -0.32539163149E+02  0.39893033022E+02  0.13720638174E+03  0.12509000000E+03 0.  0.
         25    1    3    3    0    0 -0.99915742212E+01  0.83790153895E+02 -0.28913431419E+02  0.15363631101E+03  0.12509000000E+03 0.  0.
         25    1    4    4    0    0 -0.12983017594E+02 -0.51250990746E+02  0.12444275168E+03  0.18419752806E+03  0.12509000000E+03 0.  0.
<mgrwt>
<rscale>  2 0.45532845E+03</rscale>
<asrwt>0</asrwt>
<pdfrwt beam="1">  1       21 0.44886954E-01 0.45532845E+03</pdfrwt>
<pdfrwt beam="2">  1       21 0.24971902E-01 0.45532845E+03</pdfrwt>
<totfact> 0.66888438E+04</totfact>
</mgrwt>
</event>
<event>
 7    0  0.4737014E-002  0.4439598E+03  0.7546771E-02  0.1029539E+00
         21   -1    0    0  502  501  0.00000000000E+00  0.00000000000E+00  0.51087335186E+02  0.51087335186E+02  0.00000000000E+00 0.  1.
         21   -1    0    0  501  502 -0.00000000000E+00 -0.00000000000E+00 -0.96452631352E+03  0.96452631352E+03  0.00000000000E+00 0.  1.
      99926    2    1    2    0    0 -0.71054273576E-14  0.00000000000E+00 -0.91343897833E+03  0.10156136487E+04  0.44395981383E+03 0.  0.
      99925    2    3    3    0    0 -0.42785506647E+02 -0.65563156932E+02 -0.73185897021E+03  0.78163088315E+03  0.26305922925E+03 0.  0.
         25    1    4    4    0    0 -0.18031882585E+02 -0.63277494495E+02 -0.46230995275E+03  0.48343271571E+03  0.12509000000E+03 0.  0.
         25    1    3    3    0    0  0.42785506647E+02  0.65563156932E+02 -0.18158000812E+03  0.23398276555E+03  0.12509000000E+03 0.  0.
         25    1    4    4    0    0 -0.24753624062E+02 -0.22856624375E+01 -0.26954901746E+03  0.29819816745E+03  0.12509000000E+03 0.  0.
<mgrwt>
<rscale>  2 0.44395981E+03</rscale>
<asrwt>0</asrwt>
<pdfrwt beam="1">  1       21 0.75128438E-02 0.44395981E+03</pdfrwt>
<pdfrwt beam="2">  1       21 0.14184210E+00 0.44395981E+03</pdfrwt>
<totfact> 0.42076731E+04</totfact>
</mgrwt>
</event>
<event>
 7    0  0.4737014E-002  0.4488578E+03  0.7546771E-02  0.1028063E+00
         21   -1    0    0  502  501  0.00000000000E+00  0.00000000000E+00  0.18056305407E+04  0.18056305407E+04  0.00000000000E+00 0.  1.
         21   -1    0    0  501  502 -0.00000000000E+00 -0.00000000000E+00 -0.27895146841E+02  0.27895146841E+02  0.00000000000E+00 0.  1.
      99926    2    1    2    0    0  0.00000000000E+00 -0.35527136788E-14  0.17777353938E+04  0.18335256875E+04  0.44885779072E+03 0.  0.
      99925    2    3    3    0    0  0.62900305407E+02  0.17521591027E+02  0.77677890814E+03  0.82267216256E+03  0.26294592664E+03 0.  0.
         25    1    3    3    0    0 -0.62900305407E+02 -0.17521591027E+02  0.10009564857E+04  0.10108535250E+04  0.12509000000E+03 0.  0.
         25    1    4    4    0    0  0.29027595369E+02  0.29700570471E+02  0.28574063110E+03  0.31467434205E+03  0.12509000000E+03 0.  0.
         25    1    4    4    0    0  0.33872710037E+02 -0.12178979444E+02  0.49103827704E+03  0.50799782051E+03  0.12509000000E+03 0.  0.
<mgrwt>
<rscale>  2 0.44885779E+03</rscale>
<asrwt>0</asrwt>
<pdfrwt beam="1">  1       21 0.26553382E+00 0.44885779E+03</pdfrwt>
<pdfrwt beam="2">  1       21 0.41022287E-02 0.44885779E+03</pdfrwt>
<totfact> 0.17440659E+04</totfact>
</mgrwt>
</event>
<event>
 7    0  0.4737014E-002  0.4395058E+03  0.7546771E-02  0.1030899E+00
         21   -1    0    0  502  501  0.00000000000E+00  0.00000000000E+00  0.10621704039E+03  0.10621704039E+03  0.00000000000E+00 0. -1.
         21   -1    0    0  501  502 -0.00000000000E+00 -0.00000000000E+00 -0.45464782890E+03  0.45464782890E+03  0.00000000000E+00 0. -1.
      99926    2    1    2    0    0  0.00000000000E+00  0.71054273576E-14 -0.34843078851E+03  0.56086486929E+03  0.43950584435E+03 0.  0.
      99925    2    3    3    0    0  0.70754479746E+02  0.63754581746E+02 -0.25174950700E+03  0.37629612493E+03  0.26296409692E+03 0.  0.
         25    1    4    4    0    0  0.70903936643E+02  0.26727420345E+02 -0.16023136699E+03  0.21694082672E+03  0.12509000000E+03 0.  0.
         25    1    4    4    0    0 -0.14945689723E+00  0.37027161401E+02 -0.91518140005E+02  0.15935529821E+03  0.12509000000E+03 0.  0.
         25    1    3    3    0    0 -0.70754479746E+02 -0.63754581746E+02 -0.96681281510E+02  0.18456874435E+03  0.12509000000E+03 0.  0.
<mgrwt>
<rscale>  2 0.43950584E+03</rscale>
<asrwt>0</asrwt>
<pdfrwt beam="1">  1       21 0.15620153E-01 0.43950584E+03</pdfrwt>
<pdfrwt beam="2">  1       21 0.66859976E-01 0.43950584E+03</pdfrwt>
<totfact> 0.69259760E+04</totfact>
</mgrwt>
</event>
<event>
 7    0  0.4737014E-002  0.4535900E+03  0.7546771E-02  0.1026657E+00
         21   -1    0    0  502  501  0.00000000000E+00  0.00000000000E+00  0.25477791332E+03  0.25477791332E+03  0.00000000000E+00 0.  1.
         21   -1    0    0  501  502 -0.00000000000E+00 -0.00000000000E+00 -0.20188556274E+03  0.20188556274E+03  0.00000000000E+00 0.  1.
      99926    2    1    2    0    0  0.00000000000E+00  0.00000000000E+00  0.52892350573E+02  0.45666347606E+03  0.45359004577E+03 0.  0.
      99925    2    3    3    0    0  0.66768702887E+02 -0.89226066614E+02  0.42961731581E+02  0.28883774519E+03  0.26298703774E+03 0.  0.
         25    1    4    4    0    0  0.46237942774E+02 -0.16194968191E+02 -0.62477698669E+01  0.13448705170E+03  0.12509000000E+03 0.  0.
         25    1    4    4    0    0  0.20530760113E+02 -0.73031098424E+02  0.49209501448E+02  0.15435069349E+03  0.12509000000E+03 0.  0.
         25    1    3    3    0    0 -0.66768702887E+02  0.89226066614E+02  0.99306189919E+01  0.16782573087E+03  0.12509000000E+03 0.  0.
<mgrwt>
<rscale>  2 0.45359005E+03</rscale>
<asrwt>0</asrwt>
<pdfrwt beam="1">  1       21 0.37467340E-01 0.45359005E+03</pdfrwt>
<pdfrwt beam="2">  1       21 0.29689053E-01 0.45359005E+03</pdfrwt>
<totfact> 0.69199171E+04</totfact>
</mgrwt>
</event>
<event>
 7    0  0.4737014E-002  0.4502641E+03  0.7546771E-02  0.1027643E+00
         21   -1    0    0  502  501  0.00000000000E+00  0.00000000000E+00  0.21578405321E+03  0.21578405321E+03  0.00000000000E+00 0. -1.
         21   -1    0    0  501  502 -0.00000000000E+00 -0.00000000000E+00 -0.23488503131E+03  0.23488503131E+03  0.00000000000E+00 0. -1.
      99926    2    1    2    0    0  0.00000000000E+00 -0.25535129566E-14 -0.19100978100E+02  0.45066908451E+03  0.45026411846E+03 0.  0.
      99925    2    3    3    0    0  0.59853896559E+02 -0.39017426646E+00 -0.10280957621E+03  0.28868983070E+03  0.26303872000E+03 0.  0.
         25    1    4    4    0    0  0.32385198567E+02  0.37618228720E+02 -0.35929937561E+02  0.13929250063E+03  0.12509000000E+03 0.  0.
         25    1    4    4    0    0  0.27468697992E+02 -0.38008402986E+02 -0.66879638644E+02  0.14939733007E+03  0.12509000000E+03 0.  0.
         25    1    3    3    0    0 -0.59853896559E+02  0.39017426646E+00  0.83708598105E+02  0.16197925381E+03  0.12509000000E+03 0.  0.
<mgrwt>
<rscale>  2 0.45026412E+03</rscale>
<asrwt>0</asrwt>
<pdfrwt beam="1">  1       21 0.31732949E-01 0.45026412E+03</pdfrwt>
<pdfrwt beam="2">  1       21 0.34541916E-01 0.45026412E+03</pdfrwt>
<totfact> 0.71529170E+04</totfact>
</mgrwt>
</event>
<event>
 7    0  0.4737014E-002  0.4657419E+03  0.7546771E-02  0.1023129E+00
         21   -1    0    0  502  501  0.00000000000E+00  0.00000000000E+00  0.15631582131E+03  0.15631582131E+03  0.00000000000E+00 0. -1.
         21   -1    0    0  501  502 -0.00000000000E+00 -0.00000000000E+00 -0.34691867857E+03  0.34691867857E+03  0.00000000000E+00 0. -1.
      99926    2    1    2    0    0  0.00000000000E+00  0.00000000000E+00 -0.19060285726E+03  0.50323449988E+03  0.46574189490E+03 0.  0.
      99925    2    3    3    0    0  0.93372891568E+02 -0.78347662930E+02 -0.13570202307E+03  0.32015401795E+03  0.26310967861E+03 0.  0.
         25    1    4    4    0    0  0.58389535582E+02 -0.41791899058E+02 -0.26683102733E+02  0.14668127612E+03  0.12509000000E+03 0.  0.
         25    1    3    3    0    0 -0.93372891568E+02  0.78347662930E+02 -0.54900834195E+02  0.18308048192E+03  0.12509000000E+03 0.  0.
         25    1    4    4    0    0  0.34983355986E+02 -0.36555763872E+02 -0.10901892033E+03  0.17347274183E+03  0.12509000000E+03 0.  0.
<mgrwt>
<rscale>  2 0.46574189E+03</rscale>
<asrwt>0</asrwt>
<pdfrwt beam="1">  1       21 0.22987621E-01 0.46574189E+03</pdfrwt>
<pdfrwt beam="2">  1       21 0.51017452E-01 0.46574189E+03</pdfrwt>
<totfact> 0.59781360E+04</totfact>
</mgrwt>
</event>
<event>
 7    0  0.4737014E-002  0.4527841E+03  0.7546771E-02  0.1026895E+00
         21   -1    0    0  502  501  0.00000000000E+00  0.00000000000E+00  0.21400623754E+04  0.21400623754E+04  0.00000000000E+00 0. -1.
         21   -1    0    0  501  502 -0.00000000000E+00 -0.00000000000E+00 -0.23949473051E+02  0.23949473051E+02  0.00000000000E+00 0. -1.
      99926    2    1    2    0    0 -0.17763568394E-14 -0.14210854715E-13  0.21161129023E+04  0.21640118484E+04  0.45278412599E+03 0.  0.
      99925    2    3    3    0    0  0.15762450672E+02  0.71428072126E+02  0.93522966177E+03  0.97427105301E+03  0.26305729443E+03 0.  0.
         25    1    4    4    0    0  0.35131178092E+01  0.29155182943E+01  0.52731173939E+03  0.54196496275E+03  0.12509000000E+03 0.  0.
         25    1    4    4    0    0  0.12249332863E+02  0.68512553831E+02  0.40791792237E+03  0.43230609027E+03  0.12509000000E+03 0.  0.
         25    1    3    3    0    0 -0.15762450672E+02 -0.71428072126E+02  0.11808832405E+04  0.11897407954E+04  0.12509000000E+03 0.  0.
<mgrwt>
<rscale>  2 0.45278413E+03</rscale>
<asrwt>0</asrwt>
<pdfrwt beam="1">  1       21 0.31471492E+00 0.45278413E+03</pdfrwt>
<pdfrwt beam="2">  1       21 0.35219828E-02 0.45278413E+03</pdfrwt>
<totfact> 0.11407176E+04</totfact>
</mgrwt>
</event>
<event>
 7    0  0.4737014E-002  0.4387784E+03  0.7546771E-02  0.1031122E+00
         21   -1    0    0  502  501  0.00000000000E+00  0.00000000000E+00  0.99920959166E+03  0.99920959166E+03  0.00000000000E+00 0. -1.
         21   -1    0    0  501  502 -0.00000000000E+00 -0.00000000000E+00 -0.48169688721E+02  0.48169688721E+02  0.00000000000E+00 0. -1.
      99926    2    1    2    0    0 -0.35527136788E-14  0.00000000000E+00  0.95103990294E+03  0.10473792804E+04  0.43877837229E+03 0.  0.
      99925    2    3    3    0    0 -0.25367661293E+02  0.93159358040E+02  0.58272987563E+03  0.64660257379E+03  0.26305626062E+03 0.  0.
         25    1    4    4    0    0  0.18989220944E+02  0.18582946737E+02  0.27448435948E+03  0.30281196826E+03  0.12509000000E+03 0.  0.
         25    1    3    3    0    0  0.25367661293E+02 -0.93159358040E+02  0.36831002731E+03  0.40077670660E+03  0.12509000000E+03 0.  0.
         25    1    4    4    0    0 -0.44356882237E+02  0.74576411303E+02  0.30824551615E+03  0.34379060553E+03  0.12509000000E+03 0.  0.
<mgrwt>
<rscale>  2 0.43877837E+03</rscale>
<asrwt>0</asrwt>
<pdfrwt beam="1">  1       21 0.14694257E+00 0.43877837E+03</pdfrwt>
<pdfrwt beam="2">  1       21 0.70837784E-02 0.43877837E+03</pdfrwt>
<totfact> 0.42505949E+04</totfact>
</mgrwt>
</event>
<event>
 7    0  0.4737014E-002  0.4544277E+03  0.7546771E-02  0.1026410E+00
         21   -1    0    0  502  501  0.00000000000E+00  0.00000000000E+00  0.59849620701E+02  0.59849620701E+02  0.00000000000E+00 0.  1.
         21   -1    0    0  501  502 -0.00000000000E+00 -0.00000000000E+00 -0.86259747056E+03  0.86259747056E+03  0.00000000000E+00 0.  1.
      99926    2    1    2    0    0  0.00000000000E+00  0.00000000000E+00 -0.80274784986E+03  0.92244709126E+03  0.45442769031E+03 0.  0.
      99925    2    3    3    0    0  0.82035087641E+02 -0.74898913035E+02 -0.50946562803E+03  0.58480590225E+03  0.26476992726E+03 0.  0.
         25    1    4    4    0    0  0.40245117105E+02 -0.40064968842E+02 -0.34365220889E+03  0.37009352865E+03  0.12509000000E+03 0.  0.
         25    1    4    4    0    0  0.41789970537E+02 -0.34833944192E+02 -0.16581341915E+03  0.21471237359E+03  0.12509000000E+03 0.  0.
         25    1    3    3    0    0 -0.82035087641E+02  0.74898913035E+02 -0.29328222182E+03  0.33764118901E+03  0.12509000000E+03 0.  0.
<mgrwt>
<rscale>  2 0.45442769E+03</rscale>
<asrwt>0</asrwt>
<pdfrwt beam="1">  1       21 0.88014152E-02 0.45442769E+03</pdfrwt>
<pdfrwt beam="2">  1       21 0.12685256E+00 0.45442769E+03</pdfrwt>
<totfact> 0.42466976E+04</totfact>
</mgrwt>
</event>
<event>
 7    0  0.4737014E-002  0.4415446E+03  0.7546771E-02  0.1030274E+00
         21   -1    0    0  502  501  0.00000000000E+00  0.00000000000E+00  0.31457778873E+03  0.31457778873E+03  0.00000000000E+00 0. -1.
         21   -1    0    0  501  502 -0.00000000000E+00 -0.00000000000E+00 -0.15493911148E+03  0.15493911148E+03  0.00000000000E+00 0. -1.
      99926    2    1    2    0    0  0.35527136788E-14  0.00000000000E+00  0.15963867725E+03  0.46951690022E+03  0.44154457568E+03 0.  0.
      99925    2    3    3    0    0 -0.24442311120E+02 -0.96566804969E+02  0.92279816734E+02  0.29600235159E+03  0.26301949201E+03 0.  0.
         25    1    3    3    0    0  0.24442311120E+02  0.96566804969E+02  0.67358860515E+02  0.17351454863E+03  0.12509000000E+03 0.  0.
         25    1    4    4    0    0 -0.50033785904E+02 -0.56326561282E+02  0.62608048735E+02  0.15888151908E+03  0.12509000000E+03 0.  0.
         25    1    4    4    0    0  0.25591474784E+02 -0.40240243687E+02  0.29671768000E+02  0.13712083252E+03  0.12509000000E+03 0.  0.
<mgrwt>
<rscale>  2 0.44154458E+03</rscale>
<asrwt>0</asrwt>
<pdfrwt beam="1">  1       21 0.46261439E-01 0.44154458E+03</pdfrwt>
<pdfrwt beam="2">  1       21 0.22785163E-01 0.44154458E+03</pdfrwt>
<totfact> 0.75185368E+04</totfact>
</mgrwt>
</event>
<event>
 7    0  0.4737014E-002  0.4529641E+03  0.7546771E-02  0.1026842E+00
         21   -1    0    0  502  501  0.00000000000E+00  0.00000000000E+00  0.12665732228E+03  0.12665732228E+03  0.00000000000E+00 0.  1.
         21   -1    0    0  501  502 -0.00000000000E+00 -0.00000000000E+00 -0.40498351744E+03  0.40498351744E+03  0.00000000000E+00 0.  1.
      99926    2    1    2    0    0  0.00000000000E+00  0.00000000000E+00 -0.27832619516E+03  0.53164083972E+03  0.45296413936E+03 0.  0.
      99925    2    3    3    0    0 -0.65750898030E+02 -0.48306959796E+02 -0.86709331654E+02  0.28869789696E+03  0.26300422916E+03 0.  0.
         25    1    4    4    0    0  0.27754016178E+01 -0.29000541225E+02 -0.62158366911E+02  0.14268813869E+03  0.12509000000E+03 0.  0.
         25    1    3    3    0    0  0.65750898030E+02  0.48306959796E+02 -0.19161686350E+03  0.24294294276E+03  0.12509000000E+03 0.  0.
         25    1    4    4    0    0 -0.68526299647E+02 -0.19306418571E+02 -0.24550964743E+02  0.14600975827E+03  0.12509000000E+03 0.  0.
<mgrwt>
<rscale>  2 0.45296414E+03</rscale>
<asrwt>0</asrwt>
<pdfrwt beam="1">  1       21 0.18626077E-01 0.45296414E+03</pdfrwt>
<pdfrwt beam="2">  1       21 0.59556398E-01 0.45296414E+03</pdfrwt>
<totfact> 0.64123363E+04</totfact>
</mgrwt>
</event>
<event>
 7    0  0.4737014E-002  0.4570925E+03  0.7546771E-02  0.1025628E+00
         21   -1    0    0  502  501  0.00000000000E+00  0.00000000000E+00  0.32379238286E+03  0.32379238286E+03  0.00000000000E+00 0.  1.
         21   -1    0    0  501  502 -0.00000000000E+00 -0.00000000000E+00 -0.16131753808E+03  0.16131753808E+03  0.00000000000E+00 0.  1.
      99926    2    1    2    0    0  0.00000000000E+00  0.88817841970E-15  0.16247484479E+03  0.48510992094E+03  0.45709250727E+03 0.  0.
      99925    2    3    3    0    0  0.83392115747E+02 -0.27989662785E+01  0.17912196806E+02  0.27652433545E+03  0.26302620045E+03 0.  0.
         25    1    4    4    0    0  0.67417915134E+02  0.26627126465E+02  0.25512455095E+02  0.14680794464E+03  0.12509000000E+03 0.  0.
         25    1    4    4    0    0  0.15974200614E+02 -0.29426092744E+02 -0.76002582891E+01  0.12971639081E+03  0.12509000000E+03 0.  0.
         25    1    3    3    0    0 -0.83392115747E+02  0.27989662785E+01  0.14456264798E+03  0.20858558549E+03  0.12509000000E+03 0.  0.
<mgrwt>
<rscale>  2 0.45709251E+03</rscale>
<asrwt>0</asrwt>
<pdfrwt beam="1">  1       21 0.47616527E-01 0.45709251E+03</pdfrwt>
<pdfrwt beam="2">  1       21 0.23723167E-01 0.45709251E+03</pdfrwt>
<totfact> 0.65239547E+04</totfact>
</mgrwt>
</event>
<event>
 7    0  0.4737014E-002  0.4598448E+03  0.7546771E-02  0.1024826E+00
         21   -1    0    0  502  501  0.00000000000E+00  0.00000000000E+00  0.90784310100E+02  0.90784310100E+02  0.00000000000E+00 0. -1.
         21   -1    0    0  501  502 -0.00000000000E+00 -0.00000000000E+00 -0.58230674422E+03  0.58230674422E+03  0.00000000000E+00 0. -1.
      99926    2    1    2    0    0  0.71054273576E-14  0.00000000000E+00 -0.49152243412E+03  0.67309105432E+03  0.45984482618E+03 0.  0.
      99925    2    3    3    0    0  0.55660288343E+02  0.16784919728E+02 -0.15969275691E+03  0.31373295436E+03  0.26371725164E+03 0.  0.
         25    1    3    3    0    0 -0.55660288343E+02 -0.16784919728E+02 -0.33182967721E+03  0.35935809996E+03  0.12509000000E+03 0.  0.
         25    1    4    4    0    0 -0.30119340177E+01 -0.12251585133E+02 -0.51515204619E+02  0.13586941338E+03  0.12509000000E+03 0.  0.
         25    1    4    4    0    0  0.58672222361E+02  0.29036504861E+02 -0.10817755229E+03  0.17786354098E+03  0.12509000000E+03 0.  0.
<mgrwt>
<rscale>  2 0.45984483E+03</rscale>
<asrwt>0</asrwt>
<pdfrwt beam="1">  1       21 0.13350634E-01 0.45984483E+03</pdfrwt>
<pdfrwt beam="2">  1       21 0.85633341E-01 0.45984483E+03</pdfrwt>
<totfact> 0.52360244E+04</totfact>
</mgrwt>
</event>
<event>
 7    0  0.4737014E-002  0.4487755E+03  0.7546771E-02  0.1028088E+00
         21   -1    0    0  502  501  0.00000000000E+00  0.00000000000E+00  0.11909155474E+03  0.11909155474E+03  0.00000000000E+00 0. -1.
         21   -1    0    0  501  502 -0.00000000000E+00 -0.00000000000E+00 -0.42278284235E+03  0.42278284235E+03  0.00000000000E+00 0. -1.
      99926    2    1    2    0    0  0.35527136788E-14 -0.14210854715E-13 -0.30369128761E+03  0.54187439708E+03  0.44877551632E+03 0.  0.
      99925    2    3    3    0    0  0.17867057870E+02 -0.86005446025E+02 -0.11789067872E+03  0.30128025155E+03  0.26297416098E+03 0.  0.
         25    1    4    4    0    0 -0.21704108797E+02 -0.69987963698E+02 -0.65928241336E+02  0.15925898564E+03  0.12509000000E+03 0.  0.
         25    1    3    3    0    0 -0.17867057870E+02  0.86005446025E+02 -0.18580060888E+03  0.24059414553E+03  0.12509000000E+03 0.  0.
         25    1    4    4    0    0  0.39571166667E+02 -0.16017482328E+02 -0.51962437389E+02  0.14202126591E+03  0.12509000000E+03 0.  0.
<mgrwt>
<rscale>  2 0.44877552E+03</rscale>
<asrwt>0</asrwt>
<pdfrwt beam="1">  1       21 0.17513464E-01 0.44877552E+03</pdfrwt>
<pdfrwt beam="2">  1       21 0.62173948E-01 0.44877552E+03</pdfrwt>
<totfact> 0.65577639E+04</totfact>
</mgrwt>
</event>
<event>
 7    0  0.4737014E-002  0.4432447E+03  0.7546771E-02  0.1029756E+00
         21   -1    0    0  502  501  0.00000000000E+00  0.00000000000E+00  0.42563411618E+03  0.42563411618E+03  0.00000000000E+00 0. -1.
         21   -1    0    0  501  502 -0.00000000000E+00 -0.00000000000E+00 -0.11539595935E+03  0.11539595935E+03  0.00000000000E+00 0. -1.
      99926    2    1    2    0    0  0.00000000000E+00 -0.71054273576E-14  0.31023815683E+03  0.54103007553E+03  0.44324466007E+03 0.  0.
      99925    2    3    3    0    0  0.72743637968E+02 -0.17737497789E+02  0.28154833411E+03  0.39244720398E+03  0.26294312651E+03 0.  0.
         25    1    4    4    0    0  0.30325282814E+02  0.25132260598E+02  0.16760548678E+03  0.21281532041E+03  0.12509000000E+03 0.  0.
         25    1    4    4    0    0  0.42418355153E+02 -0.42869758387E+02  0.11394284732E+03  0.17963188357E+03  0.12509000000E+03 0.  0.
         25    1    3    3    0    0 -0.72743637968E+02  0.17737497789E+02  0.28689822722E+02  0.14858287156E+03  0.12509000000E+03 0.  0.
<mgrwt>
<rscale>  2 0.44324466E+03</rscale>
<asrwt>0</asrwt>
<pdfrwt beam="1">  1       21 0.62593252E-01 0.44324466E+03</pdfrwt>
<pdfrwt beam="2">  1       21 0.16969994E-01 0.44324466E+03</pdfrwt>
<totfact> 0.68628062E+04</totfact>
</mgrwt>
</event>
<event>
 7    0  0.4737014E-002  0.4499957E+03  0.7546771E-02  0.1027723E+00
         21   -1    0    0  502  501  0.00000000000E+00  0.00000000000E+00  0.28195720734E+02  0.28195720734E+02  0.00000000000E+00 0.  1.
         21   -1    0    0  501  502 -0.00000000000E+00 -0.00000000000E+00 -0.17954511491E+04  0.17954511491E+04  0.00000000000E+00 0.  1.
      99926    2    1    2    0    0 -0.14210854715E-13  0.00000000000E+00 -0.17672554284E+04  0.18236468699E+04  0.44999572972E+03 0.  0.
      99925    2    3    3    0    0 -0.78463401826E+02 -0.49100701839E+02 -0.88872497836E+03  0.93144137555E+03  0.26302768785E+03 0.  0.
         25    1    4    4    0    0 -0.31958199869E+02 -0.58167285492E+02 -0.38349213071E+03  0.40880127453E+03  0.12509000000E+03 0.  0.
         25    1    3    3    0    0  0.78463401826E+02  0.49100701839E+02 -0.87853045004E+03  0.89220549432E+03  0.12509000000E+03 0.  0.
         25    1    4    4    0    0 -0.46505201957E+02  0.90665836533E+01 -0.50523284765E+03  0.52264010102E+03  0.12509000000E+03 0.  0.
<mgrwt>
<rscale>  2 0.44999573E+03</rscale>
<asrwt>0</asrwt>
<pdfrwt beam="1">  1       21 0.41464293E-02 0.44999573E+03</pdfrwt>
<pdfrwt beam="2">  1       21 0.26403695E+00 0.44999573E+03</pdfrwt>
<totfact> 0.17478526E+04</totfact>
</mgrwt>
</event>
<event>
 7    0  0.4737014E-002  0.4488896E+03  0.7546771E-02  0.1028054E+00
         21   -1    0    0  502  501  0.00000000000E+00  0.00000000000E+00  0.12799266464E+03  0.12799266464E+03  0.00000000000E+00 0. -1.
         21   -1    0    0  501  502 -0.00000000000E+00 -0.00000000000E+00 -0.39358081604E+03  0.39358081604E+03  0.00000000000E+00 0. -1.
      99926    2    1    2    0    0  0.00000000000E+00  0.00000000000E+00 -0.26558815140E+03  0.52157348069E+03  0.44888955166E+03 0.  0.
      99925    2    3    3    0    0 -0.60542025132E+02  0.13368068210E+02 -0.66550013612E+02  0.27845266618E+03  0.26317853434E+03 0.  0.
         25    1    4    4    0    0 -0.36820517611E+02  0.34407097766E+02 -0.64258699309E+02  0.14938636963E+03  0.12509000000E+03 0.  0.
         25    1    3    3    0    0  0.60542025132E+02 -0.13368068210E+02 -0.19903813779E+03  0.24312081451E+03  0.12509000000E+03 0.  0.
         25    1    4    4    0    0 -0.23721507521E+02 -0.21039029556E+02 -0.22913143030E+01  0.12906629655E+03  0.12509000000E+03 0.  0.
<mgrwt>
<rscale>  2 0.44888955E+03</rscale>
<asrwt>0</asrwt>
<pdfrwt beam="1">  1       21 0.18822451E-01 0.44888955E+03</pdfrwt>
<pdfrwt beam="2">  1       21 0.57879532E-01 0.44888955E+03</pdfrwt>
<totfact> 0.66965980E+04</totfact>
</mgrwt>
</event>
<event>
 7    0  0.4737014E-002  0.4496724E+03  0.7546771E-02  0.1027820E+00
         21   -1    0    0  502  501  0.00000000000E+00  0.00000000000E+00  0.13958542003E+03  0.13958542003E+03  0.00000000000E+00 0.  1.
         21   -1    0    0  501  502 -0.00000000000E+00 -0.00000000000E+00 -0.36215321873E+03  0.36215321873E+03  0.00000000000E+00 0.  1.
      99926    2    1    2    0    0  0.00000000000E+00 -0.88817841970E-15 -0.22256779869E+03  0.50173863876E+03  0.44967236585E+03 0.  0.
      99925    2    3    3    0    0  0.68651592458E+02  0.79172403816E+01 -0.48095609562E+02  0.27620864802E+03  0.26306331128E+03 0.  0.
         25    1    4    4    0    0  0.45226289621E+02  0.27885501758E+01 -0.64383337717E+02  0.14780363852E+03  0.12509000000E+03 0.  0.
         25    1    3    3    0    0 -0.68651592458E+02 -0.79172403816E+01 -0.17447218913E+03  0.22552999074E+03  0.12509000000E+03 0.  0.
         25    1    4    4    0    0  0.23425302838E+02  0.51286902059E+01  0.16287728155E+02  0.12840500950E+03  0.12509000000E+03 0.  0.
<mgrwt>
<rscale>  2 0.44967237E+03</rscale>
<asrwt>0</asrwt>
<pdfrwt beam="1">  1       21 0.20527268E-01 0.44967237E+03</pdfrwt>
<pdfrwt beam="2">  1       21 0.53257826E-01 0.44967237E+03</pdfrwt>
<totfact> 0.67978127E+04</totfact>
</mgrwt>
</event>
<event>
 7    0  0.4737014E-002  0.4532635E+03  0.7546771E-02  0.1026753E+00
         21   -1    0    0  502  501  0.00000000000E+00  0.00000000000E+00  0.16319543515E+03  0.16319543515E+03  0.00000000000E+00 0. -1.
         21   -1    0    0  501  502 -0.00000000000E+00 -0.00000000000E+00 -0.31472661315E+03  0.31472661315E+03  0.00000000000E+00 0. -1.
      99926    2    1    2    0    0  0.71054273576E-14  0.00000000000E+00 -0.15153117801E+03  0.47792204830E+03  0.45326348446E+03 0.  0.
      99925    2    3    3    0    0 -0.58689075905E+02 -0.91491113534E+02 -0.12204648990E+03  0.30960126402E+03  0.26294973950E+03 0.  0.
         25    1    4    4    0    0  0.10684430101E+02 -0.52903622211E+02 -0.53598063562E+02  0.14640085658E+03  0.12509000000E+03 0.  0.
         25    1    4    4    0    0 -0.69373506006E+02 -0.38587491323E+02 -0.68448426336E+02  0.16320040744E+03  0.12509000000E+03 0.  0.
         25    1    3    3    0    0  0.58689075905E+02  0.91491113534E+02 -0.29484688108E+02  0.16832078428E+03  0.12509000000E+03 0.  0.
<mgrwt>
<rscale>  2 0.45326348E+03</rscale>
<asrwt>0</asrwt>
<pdfrwt beam="1">  1       21 0.23999329E-01 0.45326348E+03</pdfrwt>
<pdfrwt beam="2">  1       21 0.46283325E-01 0.45326348E+03</pdfrwt>
<totfact> 0.67781088E+04</totfact>
</mgrwt>
</event>
<event>
 7    0  0.4737014E-002  0.4495152E+03  0.7546771E-02  0.1027867E+00
         21   -1    0    0  502  501  0.00000000000E+00  0.00000000000E+00  0.29835647071E+03  0.29835647071E+03  0.00000000000E+00 0. -1.
         21   -1    0    0  501  502 -0.00000000000E+00 -0.00000000000E+00 -0.16931415753E+03  0.16931415753E+03  0.00000000000E+00 0. -1.
      99926    2    1    2    0    0  0.00000000000E+00  0.00000000000E+00  0.12904231318E+03  0.46767062824E+03  0.44951518097E+03 0.  0.
      99925    2    3    3    0    0  0.64413566646E+02 -0.84419943530E+02  0.10179102924E+03  0.30133970805E+03  0.26299880528E+03 0.  0.
         25    1    4    4    0    0 -0.79822573381E+00 -0.54060089529E+02  0.27424980408E+02  0.13900635991E+03  0.12509000000E+03 0.  0.
         25    1    3    3    0    0 -0.64413566646E+02  0.84419943530E+02  0.27251283939E+02  0.16633092019E+03  0.12509000000E+03 0.  0.
         25    1    4    4    0    0  0.65211792379E+02 -0.30359854001E+02  0.74366048833E+02  0.16233334814E+03  0.12509000000E+03 0.  0.
<mgrwt>
<rscale>  2 0.44951518E+03</rscale>
<asrwt>0</asrwt>
<pdfrwt beam="1">  1       21 0.43875952E-01 0.44951518E+03</pdfrwt>
<pdfrwt beam="2">  1       21 0.24899141E-01 0.44951518E+03</pdfrwt>
<totfact> 0.70633252E+04</totfact>
</mgrwt>
</event>
<event>
 7    0  0.4737014E-002  0.4644492E+03  0.7546771E-02  0.1023499E+00
         21   -1    0    0  502  501  0.00000000000E+00  0.00000000000E+00  0.15555793171E+04  0.15555793171E+04  0.00000000000E+00 0.  1.
         21   -1    0    0  501  502 -0.00000000000E+00 -0.00000000000E+00 -0.34667644662E+02  0.34667644662E+02  0.00000000000E+00 0.  1.
      99926    2    1    2    0    0  0.00000000000E+00  0.00000000000E+00  0.15209116724E+04  0.15902469617E+04  0.46444922654E+03 0.  0.
      99925    2    3    3    0    0 -0.81072719904E+02  0.40511806197E+02  0.67034937002E+03  0.72577155392E+03  0.26298684045E+03 0.  0.
         25    1    4    4    0    0 -0.65976479870E+02  0.42583306986E+02  0.42537698034E+03  0.45028803830E+03  0.12509000000E+03 0.  0.
         25    1    3    3    0    0  0.81072719904E+02 -0.40511806197E+02  0.85056230240E+03  0.86447540781E+03  0.12509000000E+03 0.  0.
         25    1    4    4    0    0 -0.15096240034E+02 -0.20715007885E+01  0.24497238967E+03  0.27548351562E+03  0.12509000000E+03 0.  0.
<mgrwt>
<rscale>  2 0.46444923E+03</rscale>
<asrwt>0</asrwt>
<pdfrwt beam="1">  1       21 0.22876162E+00 0.46444923E+03</pdfrwt>
<pdfrwt beam="2">  1       21 0.50981841E-02 0.46444923E+03</pdfrwt>
<totfact> 0.20132860E+04</totfact>
</mgrwt>
</event>
<event>
 7    0  0.4737014E-002  0.4528592E+03  0.7546771E-02  0.1026873E+00
         21   -1    0    0  502  501  0.00000000000E+00  0.00000000000E+00  0.55678661085E+03  0.55678661085E+03  0.00000000000E+00 0. -1.
         21   -1    0    0  501  502 -0.00000000000E+00 -0.00000000000E+00 -0.92082598823E+02  0.92082598823E+02  0.00000000000E+00 0. -1.
      99926    2    1    2    0    0  0.14210854715E-13  0.71054273576E-14  0.46470401203E+03  0.64886920968E+03  0.45285917510E+03 0.  0.
      99925    2    3    3    0    0 -0.97180735590E+02  0.52440705731E+02  0.30944740270E+03  0.42095201895E+03  0.26315163734E+03 0.  0.
         25    1    3    3    0    0  0.97180735590E+02 -0.52440705731E+02  0.15525660933E+03  0.22791719073E+03  0.12509000000E+03 0.  0.
         25    1    4    4    0    0 -0.10255677913E+02  0.76894219770E+01  0.12054071904E+03  0.17418920514E+03  0.12509000000E+03 0.  0.
         25    1    4    4    0    0 -0.86925057677E+02  0.44751283754E+02  0.18890668365E+03  0.24676281381E+03  0.12509000000E+03 0.  0.
<mgrwt>
<rscale>  2 0.45285918E+03</rscale>
<asrwt>0</asrwt>
<pdfrwt beam="1">  1       21 0.81880382E-01 0.45285918E+03</pdfrwt>
<pdfrwt beam="2">  1       21 0.13541559E-01 0.45285918E+03</pdfrwt>
<totfact> 0.56718560E+04</totfact>
</mgrwt>
</event>
<event>
 7    0  0.4737014E-002  0.4601155E+03  0.7546771E-02  0.1024748E+00
         21   -1    0    0  502  501  0.00000000000E+00  0.00000000000E+00  0.10596938697E+03  0.10596938697E+03  0.00000000000E+00 0. -1.
         21   -1    0    0  501  502 -0.00000000000E+00 -0.00000000000E+00 -0.49945151437E+03  0.49945151437E+03  0.00000000000E+00 0. -1.
      99926    2    1    2    0    0  0.00000000000E+00  0.00000000000E+00 -0.39348212739E+03  0.60542090134E+03  0.46011551071E+03 0.  0.
      99925    2    3    3    0    0 -0.51638001386E+02  0.10191730230E+03 -0.28440721544E+03  0.40393029557E+03  0.26309427928E+03 0.  0.
         25    1    4    4    0    0  0.58286226162E+01  0.52844916738E+02 -0.17386812434E+03  0.22069025993E+03  0.12509000000E+03 0.  0.
         25    1    3    3    0    0  0.51638001386E+02 -0.10191730230E+03 -0.10907491196E+03  0.20149060577E+03  0.12509000000E+03 0.  0.
         25    1    4    4    0    0 -0.57466624002E+02  0.49072385566E+02 -0.11053909109E+03  0.18324003563E+03  0.12509000000E+03 0.  0.
<mgrwt>
<rscale>  2 0.46011551E+03</rscale>
<asrwt>0</asrwt>
<pdfrwt beam="1">  1       21 0.15583733E-01 0.46011551E+03</pdfrwt>
<pdfrwt beam="2">  1       21 0.73448752E-01 0.46011551E+03</pdfrwt>
<totfact> 0.56046224E+04</totfact>
</mgrwt>
</event>
<event>
 7    0  0.4737014E-002  0.4620800E+03  0.7546771E-02  0.1024180E+00
         21   -1    0    0  502  501  0.00000000000E+00  0.00000000000E+00  0.14340898216E+03  0.14340898216E+03  0.00000000000E+00 0.  1.
         21   -1    0    0  501  502 -0.00000000000E+00 -0.00000000000E+00 -0.37221854884E+03  0.37221854884E+03  0.00000000000E+00 0.  1.
      99926    2    1    2    0    0  0.00000000000E+00  0.00000000000E+00 -0.22880956667E+03  0.51562753100E+03  0.46208000706E+03 0.  0.
      99925    2    3    3    0    0 -0.33197908341E+02  0.10616832512E+03 -0.92910224233E+02  0.30001223991E+03  0.26268083286E+03 0.  0.
         25    1    4    4    0    0 -0.37237318161E+01  0.79014851421E+02 -0.79429482210E+02  0.16796953196E+03  0.12509000000E+03 0.  0.
         25    1    3    3    0    0  0.33197908341E+02 -0.10616832512E+03 -0.13589934244E+03  0.21561529109E+03  0.12509000000E+03 0.  0.
         25    1    4    4    0    0 -0.29474176525E+02  0.27153473701E+02 -0.13480742024E+02  0.13204270794E+03  0.12509000000E+03 0.  0.
<mgrwt>
<rscale>  2 0.46208001E+03</rscale>
<asrwt>0</asrwt>
<pdfrwt beam="1">  1       21 0.21089556E-01 0.46208001E+03</pdfrwt>
<pdfrwt beam="2">  1       21 0.54738022E-01 0.46208001E+03</pdfrwt>
<totfact> 0.60703085E+04</totfact>
</mgrwt>
</event>
<event>
 7    0  0.4737014E-002  0.4586306E+03  0.7546771E-02  0.1025179E+00
         21   -1    0    0  502  501  0.00000000000E+00  0.00000000000E+00  0.57741569354E+02  0.57741569354E+02  0.00000000000E+00 0. -1.
         21   -1    0    0  501  502 -0.00000000000E+00 -0.00000000000E+00 -0.91070440134E+03  0.91070440134E+03  0.00000000000E+00 0. -1.
      99926    2    1    2    0    0  0.00000000000E+00  0.00000000000E+00 -0.85296283198E+03  0.96844597069E+03  0.45863057617E+03 0.  0.
      99925    2    3    3    0    0  0.69522906762E+02  0.48854101247E+02 -0.70367857483E+03  0.75595254654E+03  0.26283180586E+03 0.  0.
         25    1    4    4    0    0  0.31885607253E+02  0.12880491524E+02 -0.45038530823E+03  0.46869716554E+03  0.12509000000E+03 0.  0.
         25    1    4    4    0    0  0.37637299509E+02  0.35973609723E+02 -0.25329326660E+03  0.28725538100E+03  0.12509000000E+03 0.  0.
         25    1    3    3    0    0 -0.69522906762E+02 -0.48854101247E+02 -0.14928425715E+03  0.21249342415E+03  0.12509000000E+03 0.  0.
<mgrwt>
<rscale>  2 0.45863058E+03</rscale>
<asrwt>0</asrwt>
<pdfrwt beam="1">  1       21 0.84914069E-02 0.45863058E+03</pdfrwt>
<pdfrwt beam="2">  1       21 0.13392712E+00 0.45863058E+03</pdfrwt>
<totfact> 0.39276048E+04</totfact>
</mgrwt>
</event>
<event>
 7    0  0.4737014E-002  0.4604581E+03  0.7546771E-02  0.1024648E+00
         21   -1    0    0  502  501  0.00000000000E+00  0.00000000000E+00  0.55815559635E+03  0.55815559635E+03  0.00000000000E+00 0.  1.
         21   -1    0    0  501  502 -0.00000000000E+00 -0.00000000000E+00 -0.94965289007E+02  0.94965289007E+02  0.00000000000E+00 0.  1.
      99926    2    1    2    0    0  0.00000000000E+00  0.00000000000E+00  0.46319030734E+03  0.65312088535E+03  0.46045806549E+03 0.  0.
      99925    2    3    3    0    0  0.64435248797E+02  0.93675412757E+02  0.24404941097E+03  0.37635884893E+03  0.26298076723E+03 0.  0.
         25    1    3    3    0    0 -0.64435248797E+02 -0.93675412757E+02  0.21914089637E+03  0.27676203642E+03  0.12509000000E+03 0.  0.
         25    1    4    4    0    0  0.64790425165E+02  0.69802441810E+02  0.11292045854E+03  0.19356838102E+03  0.12509000000E+03 0.  0.
         25    1    4    4    0    0 -0.35517636750E+00  0.23872970947E+02  0.13112895243E+03  0.18279046791E+03  0.12509000000E+03 0.  0.
<mgrwt>
<rscale>  2 0.46045807E+03</rscale>
<asrwt>0</asrwt>
<pdfrwt beam="1">  1       21 0.82081704E-01 0.46045807E+03</pdfrwt>
<pdfrwt beam="2">  1       21 0.13965484E-01 0.46045807E+03</pdfrwt>
<totfact> 0.53194447E+04</totfact>
</mgrwt>
</event>
<event>
 7    0  0.4737014E-002  0.4495722E+03  0.7546771E-02  0.1027850E+00
         21   -1    0    0  502  501  0.00000000000E+00  0.00000000000E+00  0.10350452899E+03  0.10350452899E+03  0.00000000000E+00 0. -1.
         21   -1    0    0  501  502 -0.00000000000E+00 -0.00000000000E+00 -0.48817951549E+03  0.48817951549E+03  0.00000000000E+00 0. -1.
      99926    2    1    2    0    0 -0.71054273576E-14  0.14210854715E-13 -0.38467498649E+03  0.59168404448E+03  0.44957220027E+03 0.  0.
      99925    2    3    3    0    0  0.58707946534E+02 -0.85924142788E+02 -0.20571220550E+03  0.34980645895E+03  0.26309212442E+03 0.  0.
         25    1    3    3    0    0 -0.58707946534E+02  0.85924142788E+02 -0.17896278099E+03  0.24187758553E+03  0.12509000000E+03 0.  0.
         25    1    4    4    0    0  0.30889428214E+02 -0.75931566344E+02 -0.78263442131E+02  0.16879702017E+03  0.12509000000E+03 0.  0.
         25    1    4    4    0    0  0.27818518320E+02 -0.99925764436E+01 -0.12744876337E+03  0.18100943879E+03  0.12509000000E+03 0.  0.
<mgrwt>
<rscale>  2 0.44957220E+03</rscale>
<asrwt>0</asrwt>
<pdfrwt beam="1">  1       21 0.15221254E-01 0.44957220E+03</pdfrwt>
<pdfrwt beam="2">  1       21 0.71791105E-01 0.44957220E+03</pdfrwt>
<totfact> 0.61801747E+04</totfact>
</mgrwt>
</event>
<event>
 7    0  0.4737014E-002  0.4596555E+03  0.7546771E-02  0.1024881E+00
         21   -1    0    0  502  501  0.00000000000E+00  0.00000000000E+00  0.62404195985E+03  0.62404195985E+03  0.00000000000E+00 0. -1.
         21   -1    0    0  501  502 -0.00000000000E+00 -0.00000000000E+00 -0.84643035947E+02  0.84643035947E+02  0.00000000000E+00 0. -1.
      99926    2    1    2    0    0  0.00000000000E+00  0.00000000000E+00  0.53939892390E+03  0.70868499579E+03  0.45965554947E+03 0.  0.
      99925    2    3    3    0    0  0.52062842805E+02 -0.66952295436E+02  0.21232087745E+03  0.34837859003E+03  0.26285801781E+03 0.  0.
         25    1    4    4    0    0  0.22669809156E+01 -0.64656792099E+02  0.12105010230E+03  0.18570480697E+03  0.12509000000E+03 0.  0.
         25    1    3    3    0    0 -0.52062842805E+02  0.66952295436E+02  0.32707804645E+03  0.36030640576E+03  0.12509000000E+03 0.  0.
         25    1    4    4    0    0  0.49795861889E+02 -0.22955033370E+01  0.91270775153E+02  0.16267378306E+03  0.12509000000E+03 0.  0.
<mgrwt>
<rscale>  2 0.45965555E+03</rscale>
<asrwt>0</asrwt>
<pdfrwt beam="1">  1       21 0.91770874E-01 0.45965555E+03</pdfrwt>
<pdfrwt beam="2">  1       21 0.12447506E-01 0.45965555E+03</pdfrwt>
<totfact> 0.50556464E+04</totfact>
</mgrwt>
</event>
<event>
 7    0  0.4737014E-002  0.4590233E+03  0.7546771E-02  0.1025065E+00
         21   -1    0    0  502  501  0.00000000000E+00  0.00000000000E+00  0.26115836345E+04  0.26115836345E+04  0.00000000000E+00 0. -1.
         21   -1    0    0  501  502 -0.00000000000E+00 -0.00000000000E+00 -0.20169985618E+02  0.20169985618E+02  0.00000000000E+00 0. -1.
      99926    2    1    2    0    0  0.00000000000E+00  0.00000000000E+00  0.25914136489E+04  0.26317536202E+04  0.45902332991E+03 0.  0.
      99925    2    3    3    0    0 -0.74179234777E+02  0.65425011493E+02  0.12667596658E+04  0.12975352445E+04  0.26293472321E+03 0.  0.
         25    1    4    4    0    0 -0.52661020876E+02  0.19228617939E+02  0.47690686889E+03  0.49621627600E+03  0.12509000000E+03 0.  0.
         25    1    4    4    0    0 -0.21518213900E+02  0.46196393554E+02  0.78985279695E+03  0.80131896849E+03  0.12509000000E+03 0.  0.
         25    1    3    3    0    0  0.74179234777E+02 -0.65425011493E+02  0.13246539831E+04  0.13342183757E+04  0.12509000000E+03 0.  0.
<mgrwt>
<rscale>  2 0.45902333E+03</rscale>
<asrwt>0</asrwt>
<pdfrwt beam="1">  1       21 0.38405618E+00 0.45902333E+03</pdfrwt>
<pdfrwt beam="2">  1       21 0.29661762E-02 0.45902333E+03</pdfrwt>
<totfact> 0.56952876E+03</totfact>
</mgrwt>
</event>
<event>
 7    0  0.4737014E-002  0.4542449E+03  0.7546771E-02  0.1026464E+00
         21   -1    0    0  502  501  0.00000000000E+00  0.00000000000E+00  0.70505736398E+03  0.70505736398E+03  0.00000000000E+00 0.  1.
         21   -1    0    0  501  502 -0.00000000000E+00 -0.00000000000E+00 -0.73163708895E+02  0.73163708895E+02  0.00000000000E+00 0.  1.
      99926    2    1    2    0    0  0.00000000000E+00  0.00000000000E+00  0.63189365508E+03  0.77822107287E+03  0.45424491954E+03 0.  0.
      99925    2    3    3    0    0  0.94666514587E+02 -0.41309789786E+02  0.47342177925E+03  0.55144124298E+03  0.26323186675E+03 0.  0.
         25    1    3    3    0    0 -0.94666514587E+02  0.41309789786E+02  0.15847187584E+03  0.22677982990E+03  0.12509000000E+03 0.  0.
         25    1    4    4    0    0  0.45024889230E+02 -0.57554584920E+02  0.20903477740E+03  0.25432816824E+03  0.12509000000E+03 0.  0.
         25    1    4    4    0    0  0.49641625357E+02  0.16244795134E+02  0.26438700185E+03  0.29711307474E+03  0.12509000000E+03 0.  0.
<mgrwt>
<rscale>  2 0.45424492E+03</rscale>
<asrwt>0</asrwt>
<pdfrwt beam="1">  1       21 0.10368490E+00 0.45424492E+03</pdfrwt>
<pdfrwt beam="2">  1       21 0.10759369E-01 0.45424492E+03</pdfrwt>
<totfact> 0.49126830E+04</totfact>
</mgrwt>
</event>
<event>
 7    0  0.4737014E-002  0.4564134E+03  0.7546771E-02  0.1025827E+00
         21   -1    0    0  502  501  0.00000000000E+00  0.00000000000E+00  0.31529101923E+03  0.31529101923E+03  0.00000000000E+00 0. -1.
         21   -1    0    0  501  502 -0.00000000000E+00 -0.00000000000E+00 -0.16517533142E+03  0.16517533142E+03  0.00000000000E+00 0. -1.
      99926    2    1    2    0    0  0.00000000000E+00  0.00000000000E+00  0.15011568781E+03  0.48046635065E+03  0.45641340294E+03 0.  0.
      99925    2    3    3    0    0 -0.37939457201E+02  0.10249618117E+03  0.57972501102E+02  0.29051176523E+03  0.26285244013E+03 0.  0.
         25    1    4    4    0    0 -0.20694916331E+02  0.15092897462E+02  0.40537159777E+01  0.12774981733E+03  0.12509000000E+03 0.  0.
         25    1    4    4    0    0 -0.17244540870E+02  0.87403283710E+02  0.53918785124E+02  0.16276194789E+03  0.12509000000E+03 0.  0.
         25    1    3    3    0    0  0.37939457201E+02 -0.10249618117E+03  0.92143186704E+02  0.18995458542E+03  0.12509000000E+03 0.  0.
<mgrwt>
<rscale>  2 0.45641340E+03</rscale>
<asrwt>0</asrwt>
<pdfrwt beam="1">  1       21 0.46366326E-01 0.45641340E+03</pdfrwt>
<pdfrwt beam="2">  1       21 0.24290490E-01 0.45641340E+03</pdfrwt>
<totfact> 0.65923481E+04</totfact>
</mgrwt>
</event>
<event>
 7    0  0.4737014E-002  0.4592547E+03  0.7546771E-02  0.1024998E+00
         21   -1    0    0  502  501  0.00000000000E+00  0.00000000000E+00  0.24521360651E+03  0.24521360651E+03  0.00000000000E+00 0. -1.
         21   -1    0    0  501  502 -0.00000000000E+00 -0.00000000000E+00 -0.21503179303E+03  0.21503179303E+03  0.00000000000E+00 0. -1.
      99926    2    1    2    0    0  0.00000000000E+00  0.00000000000E+00  0.30181813483E+02  0.46024539955E+03  0.45925470704E+03 0.  0.
      99925    2    3    3    0    0  0.96696892026E+02  0.65591200391E+02  0.26159657148E+02  0.28902571511E+03  0.26305710756E+03 0.  0.
         25    1    4    4    0    0  0.13310556739E+02  0.55409077555E+01  0.13714830742E+02  0.12666284878E+03  0.12509000000E+03 0.  0.
         25    1    3    3    0    0 -0.96696892026E+02 -0.65591200391E+02  0.40221563345E+01  0.17121968443E+03  0.12509000000E+03 0.  0.
         25    1    4    4    0    0  0.83386335287E+02  0.60050292636E+02  0.12444826407E+02  0.16236286633E+03  0.12509000000E+03 0.  0.
<mgrwt>
<rscale>  2 0.45925471E+03</rscale>
<asrwt>0</asrwt>
<pdfrwt beam="1">  1       21 0.36060824E-01 0.45925471E+03</pdfrwt>
<pdfrwt beam="2">  1       21 0.31622323E-01 0.45925471E+03</pdfrwt>
<totfact> 0.65897624E+04</totfact>
</mgrwt>
</event>
<event>
 7    0  0.4737014E-002  0.4528912E+03  0.7546771E-02  0.1026863E+00
         21   -1    0    0  502  501  0.00000000000E+00  0.00000000000E+00  0.41710036689E+03  0.41710036689E+03  0.00000000000E+00 0. -1.
         21   -1    0    0  501  502 -0.00000000000E+00 -0.00000000000E+00 -0.12293827664E+03  0.12293827664E+03  0.00000000000E+00 0. -1.
      99926    2    1    2    0    0 -0.35527136788E-14  0.00000000000E+00  0.29416209025E+03  0.54003864352E+03  0.45289115818E+03 0.  0.
      99925    2    3    3    0    0  0.26527597048E+02 -0.53487983952E+01  0.31414152371E+03  0.41050482975E+03  0.26286307326E+03 0.  0.
         25    1    4    4    0    0  0.24188136447E+02 -0.26713795164E+02  0.20637826949E+03  0.24400448975E+03  0.12509000000E+03 0.  0.
         25    1    4    4    0    0  0.23394606012E+01  0.21364996769E+02  0.10776325421E+03  0.16650034000E+03  0.12509000000E+03 0.  0.
         25    1    3    3    0    0 -0.26527597048E+02  0.53487983952E+01 -0.19979433458E+02  0.12953381377E+03  0.12509000000E+03 0.  0.
<mgrwt>
<rscale>  2 0.45289116E+03</rscale>
<asrwt>0</asrwt>
<pdfrwt beam="1">  1       21 0.61338289E-01 0.45289116E+03</pdfrwt>
<pdfrwt beam="2">  1       21 0.18079158E-01 0.45289116E+03</pdfrwt>
<totfact> 0.63584143E+04</totfact>
</mgrwt>
</event>
<event>
 7    0  0.4737014E-002  0.4623346E+03  0.7546771E-02  0.1024106E+00
         21   -1    0    0  502  501  0.00000000000E+00  0.00000000000E+00  0.71297646037E+03  0.71297646037E+03  0.00000000000E+00 0. -1.
         21   -1    0    0  501  502 -0.00000000000E+00 -0.00000000000E+00 -0.74951039482E+02  0.74951039482E+02  0.00000000000E+00 0. -1.
      99926    2    1    2    0    0  0.00000000000E+00  0.00000000000E+00  0.63802542089E+03  0.78792749986E+03  0.46233462700E+03 0.  0.
      99925    2    3    3    0    0  0.91885663665E+02  0.19950819994E+02  0.27176890890E+03  0.38964072995E+03  0.26290787015E+03 0.  0.
         25    1    4    4    0    0  0.83944480575E+02  0.49419509195E+01  0.12310906065E+03  0.19461358537E+03  0.12509000000E+03 0.  0.
         25    1    3    3    0    0 -0.91885663665E+02 -0.19950819994E+02  0.36625651199E+03  0.39828676991E+03  0.12509000000E+03 0.  0.
         25    1    4    4    0    0  0.79411830906E+01  0.15008869074E+02  0.14865984825E+03  0.19502714458E+03  0.12509000000E+03 0.  0.
<mgrwt>
<rscale>  2 0.46233463E+03</rscale>
<asrwt>0</asrwt>
<pdfrwt beam="1">  1       21 0.10484948E+00 0.46233463E+03</pdfrwt>
<pdfrwt beam="2">  1       21 0.11022212E-01 0.46233463E+03</pdfrwt>
<totfact> 0.45668085E+04</totfact>
</mgrwt>
</event>
<event>
 7    0  0.4737014E-002  0.4529824E+03  0.7546771E-02  0.1026836E+00
         21   -1    0    0  502  501  0.00000000000E+00  0.00000000000E+00  0.84861804831E+03  0.84861804831E+03  0.00000000000E+00 0.  1.
         21   -1    0    0  501  502 -0.00000000000E+00 -0.00000000000E+00 -0.60449187905E+02  0.60449187905E+02  0.00000000000E+00 0.  1.
      99926    2    1    2    0    0 -0.71054273576E-14  0.00000000000E+00  0.78816886040E+03  0.90906723621E+03  0.45298243614E+03 0.  0.
      99925    2    3    3    0    0 -0.48771131740E+02 -0.91967956174E+02  0.57562569132E+03  0.64137555708E+03  0.26302269951E+03 0.  0.
         25    1    3    3    0    0  0.48771131740E+02  0.91967956174E+02  0.21254316908E+03  0.26769167913E+03  0.12509000000E+03 0.  0.
         25    1    4    4    0    0 -0.49025579252E+02 -0.43845365728E+02  0.22161949536E+03  0.26284716536E+03  0.12509000000E+03 0.  0.
         25    1    4    4    0    0  0.25444751209E+00 -0.48122590446E+02  0.35400619597E+03  0.37852839172E+03  0.12509000000E+03 0.  0.
<mgrwt>
<rscale>  2 0.45298244E+03</rscale>
<asrwt>0</asrwt>
<pdfrwt beam="1">  1       21 0.12479676E+00 0.45298244E+03</pdfrwt>
<pdfrwt beam="2">  1       21 0.88895870E-02 0.45298244E+03</pdfrwt>
<totfact> 0.43527385E+04</totfact>
</mgrwt>
</event>
<event>
 7    0  0.4737014E-002  0.4530341E+03  0.7546771E-02  0.1026821E+00
         21   -1    0    0  502  501  0.00000000000E+00  0.00000000000E+00  0.80870754715E+02  0.80870754715E+02  0.00000000000E+00 0. -1.
         21   -1    0    0  501  502 -0.00000000000E+00 -0.00000000000E+00 -0.63446870570E+03  0.63446870570E+03  0.00000000000E+00 0. -1.
      99926    2    1    2    0    0  0.00000000000E+00  0.00000000000E+00 -0.55359795098E+03  0.71533946041E+03  0.45303405202E+03 0.  0.
      99925    2    3    3    0    0 -0.87413116887E+02 -0.60421604735E+02 -0.40176459723E+03  0.49174898938E+03  0.26288867159E+03 0.  0.
         25    1    3    3    0    0  0.87413116887E+02  0.60421604735E+02 -0.15183335375E+03  0.22359047103E+03  0.12509000000E+03 0.  0.
         25    1    4    4    0    0 -0.17355180562E+02 -0.30961927602E+02 -0.24440095563E+03  0.27683781979E+03  0.12509000000E+03 0.  0.
         25    1    4    4    0    0 -0.70057936325E+02 -0.29459677133E+02 -0.15736364160E+03  0.21491116959E+03  0.12509000000E+03 0.  0.
<mgrwt>
<rscale>  2 0.45303405E+03</rscale>
<asrwt>0</asrwt>
<pdfrwt beam="1">  1       21 0.11892758E-01 0.45303405E+03</pdfrwt>
<pdfrwt beam="2">  1       21 0.93304221E-01 0.45303405E+03</pdfrwt>
<totfact> 0.52891292E+04</totfact>
</mgrwt>
</event>
<event>
 7    0  0.4737014E-002  0.4508722E+03  0.7546771E-02  0.1027462E+00
         21   -1    0    0  502  501  0.00000000000E+00  0.00000000000E+00  0.63086578952E+03  0.63086578952E+03  0.00000000000E+00 0. -1.
         21   -1    0    0  501  502 -0.00000000000E+00 -0.00000000000E+00 -0.80558243720E+02  0.80558243720E+02  0.00000000000E+00 0. -1.
      99926    2    1    2    0    0  0.00000000000E+00  0.00000000000E+00  0.55030754580E+03  0.71142403324E+03  0.45087222149E+03 0.  0.
      99925    2    3    3    0    0 -0.85349167745E+02  0.68099393842E+02  0.33824099676E+03  0.44208830000E+03  0.26289367667E+03 0.  0.
         25    1    4    4    0    0 -0.66959484663E+02  0.45576980270E+01  0.14906415681E+03  0.20584454364E+03  0.12509000000E+03 0.  0.
         25    1    4    4    0    0 -0.18389683083E+02  0.63541695815E+02  0.18917683995E+03  0.23624375637E+03  0.12509000000E+03 0.  0.
         25    1    3    3    0    0  0.85349167745E+02 -0.68099393842E+02  0.21206654904E+03  0.26933573323E+03  0.12509000000E+03 0.  0.
<mgrwt>
<rscale>  2 0.45087222E+03</rscale>
<asrwt>0</asrwt>
<pdfrwt beam="1">  1       21 0.92774378E-01 0.45087222E+03</pdfrwt>
<pdfrwt beam="2">  1       21 0.11846801E-01 0.45087222E+03</pdfrwt>
<totfact> 0.54020125E+04</totfact>
</mgrwt>
</event>
<event>
 7    0  0.4737014E-002  0.4572961E+03  0.7546771E-02  0.1025568E+00
         21   -1    0    0  502  501  0.00000000000E+00  0.00000000000E+00  0.13369137093E+03  0.13369137093E+03  0.00000000000E+00 0. -1.
         21   -1    0    0  501  502 -0.00000000000E+00 -0.00000000000E+00 -0.39104948137E+03  0.39104948137E+03  0.00000000000E+00 0. -1.
      99926    2    1    2    0    0  0.00000000000E+00  0.00000000000E+00 -0.25735811044E+03  0.52474085230E+03  0.45729614590E+03 0.  0.
      99925    2    3    3    0    0  0.90669048822E+02 -0.56024836916E+02 -0.21209151144E+03  0.35428196620E+03  0.26300806752E+03 0.  0.
         25    1    4    4    0    0  0.64108686580E+02 -0.43985058549E+02 -0.15470234444E+03  0.21359993573E+03  0.12509000000E+03 0.  0.
         25    1    3    3    0    0 -0.90669048822E+02  0.56024836916E+02 -0.45266599003E+02  0.17045888610E+03  0.12509000000E+03 0.  0.
         25    1    4    4    0    0  0.26560362242E+02 -0.12039778367E+02 -0.57389167003E+02  0.14068203046E+03  0.12509000000E+03 0.  0.
<mgrwt>
<rscale>  2 0.45729615E+03</rscale>
<asrwt>0</asrwt>
<pdfrwt beam="1">  1       21 0.19660496E-01 0.45729615E+03</pdfrwt>
<pdfrwt beam="2">  1       21 0.57507275E-01 0.45729615E+03</pdfrwt>
<totfact> 0.62419916E+04</totfact>
</mgrwt>
</event>
<event>
 7    0  0.4737014E-002  0.4654724E+03  0.7546771E-02  0.1023206E+00
         21   -1    0    0  502  501  0.00000000000E+00  0.00000000000E+00  0.11110611511E+04  0.11110611511E+04  0.00000000000E+00 0.  1.
         21   -1    0    0  501  502 -0.00000000000E+00 -0.00000000000E+00 -0.48751721687E+02  0.48751721687E+02  0.00000000000E+00 0.  1.
      99926    2    1    2    0    0  0.00000000000E+00  0.00000000000E+00  0.10623094294E+04  0.11598128727E+04  0.46547242244E+03 0.  0.
      99925    2    3    3    0    0  0.29282013078E+02 -0.99883661687E+02  0.49985917349E+03  0.57429431574E+03  0.26290794131E+03 0.  0.
         25    1    4    4    0    0 -0.20252823147E+01 -0.33248619062E+02  0.16805088050E+03  0.21212774211E+03  0.12509000000E+03 0.  0.
         25    1    4    4    0    0  0.31307295392E+02 -0.66635042625E+02  0.33180829300E+03  0.36216657363E+03  0.12509000000E+03 0.  0.
         25    1    3    3    0    0 -0.29282013078E+02  0.99883661687E+02  0.56245025588E+03  0.58551855701E+03  0.12509000000E+03 0.  0.
<mgrwt>
<rscale>  2 0.46547242E+03</rscale>
<asrwt>0</asrwt>
<pdfrwt beam="1">  1       21 0.16339133E+00 0.46547242E+03</pdfrwt>
<pdfrwt beam="2">  1       21 0.71693715E-02 0.46547242E+03</pdfrwt>
<totfact> 0.30859924E+04</totfact>
</mgrwt>
</event>
<event>
 7    0  0.4737014E-002  0.4536586E+03  0.7546771E-02  0.1026637E+00
         21   -1    0    0  502  501  0.00000000000E+00  0.00000000000E+00  0.18156780821E+04  0.18156780821E+04  0.00000000000E+00 0. -1.
         21   -1    0    0  501  502 -0.00000000000E+00 -0.00000000000E+00 -0.28337362042E+02  0.28337362042E+02  0.00000000000E+00 0. -1.
      99926    2    1    2    0    0  0.00000000000E+00  0.35527136788E-14  0.17873407200E+04  0.18440154441E+04  0.45365858159E+03 0.  0.
      99925    2    3    3    0    0 -0.30332337424E+02  0.26715337524E+02  0.15501989612E+04  0.15728743704E+04  0.26302700608E+03 0.  0.
         25    1    4    4    0    0 -0.44599542829E+02  0.20971892895E+02  0.63820765543E+03  0.65221580712E+03  0.12509000000E+03 0.  0.
         25    1    4    4    0    0  0.14267205404E+02  0.57434446287E+01  0.91199130578E+03  0.92065856332E+03  0.12509000000E+03 0.  0.
         25    1    3    3    0    0  0.30332337424E+02 -0.26715337524E+02  0.23714175883E+03  0.27114107367E+03  0.12509000000E+03 0.  0.
<mgrwt>
<rscale>  2 0.45365858E+03</rscale>
<asrwt>0</asrwt>
<pdfrwt beam="1">  1       21 0.26701140E+00 0.45365858E+03</pdfrwt>
<pdfrwt beam="2">  1       21 0.41672604E-02 0.45365858E+03</pdfrwt>
<totfact> 0.16600452E+04</totfact>
</mgrwt>
</event>
