<event>
 6    0  0.1284967E-004  0.3934825E+03  0.7546771E-02  0.1046060E+00
         21   -1    0    0  502  501  0.00000000000E+00  0.00000000000E+00  0.13479378655E+04  0.13479378655E+04  0.00000000000E+00 0. -1.
         21   -1    0    0  501  502 -0.00000000000E+00 -0.00000000000E+00 -0.28715798561E+02  0.28715798561E+02  0.00000000000E+00 0. -1.
      99925    2    1    2    0    0 -0.29061836997E+02 -0.15034153002E+00  0.92374949238E+03  0.96085241550E+03  0.26283003394E+03 0.  0.
         25    1    3    3    0    0 -0.46918676141E+02  0.21417826947E+02  0.51473998036E+03  0.53222630615E+03  0.12509000000E+03 0.  0.
         25    1    3    3    0    0  0.17856839145E+02 -0.21568168477E+02  0.40900951202E+03  0.42862610935E+03  0.12509000000E+03 0.  0.
         25    1    1    2    0    0  0.29061836997E+02  0.15034153002E+00  0.39547257461E+03  0.41580124860E+03  0.12509000000E+03 0.  0.
<mgrwt>
<rscale>  2 0.39348246E+03</rscale>
<asrwt>0</asrwt>
<pdfrwt beam="1">  1       21 0.19822611E+00 0.39348246E+03</pdfrwt>
<pdfrwt beam="2">  1       21 0.42229125E-02 0.39348246E+03</pdfrwt>
<totfact> 0.44895573E+04</totfact>
</mgrwt>
</event>
<event>
 6    0  0.1284967E-004  0.4248912E+03  0.7546771E-02  0.1035486E+00
         21   -1    0    0  502  501  0.00000000000E+00  0.00000000000E+00  0.11790314571E+03  0.11790314571E+03  0.00000000000E+00 0.  1.
         21   -1    0    0  501  502 -0.00000000000E+00 -0.00000000000E+00 -0.38279830996E+03  0.38279830996E+03  0.00000000000E+00 0.  1.
      99925    2    1    2    0    0 -0.73161017361E+02 -0.27564992628E+02 -0.14319681756E+03  0.30946767473E+03  0.26296872412E+03 0.  0.
         25    1    3    3    0    0 -0.61200932373E+02 -0.47108654742E+02 -0.71467694857E+02  0.16346228612E+03  0.12509000000E+03 0.  0.
         25    1    1    2    0    0  0.73161017361E+02  0.27564992628E+02 -0.12169834669E+03  0.19123378093E+03  0.12509000000E+03 0.  0.
         25    1    3    3    0    0 -0.11960084987E+02  0.19543662114E+02 -0.71729122699E+02  0.14600538862E+03  0.12509000000E+03 0.  0.
<mgrwt>
<rscale>  2 0.42489116E+03</rscale>
<asrwt>0</asrwt>
<pdfrwt beam="1">  1       21 0.17338698E-01 0.42489116E+03</pdfrwt>
<pdfrwt beam="2">  1       21 0.56293870E-01 0.42489116E+03</pdfrwt>
<totfact> 0.83434004E+04</totfact>
</mgrwt>
</event>
<event>
 6    0  0.1284967E-004  0.3990712E+03  0.7546771E-02  0.1044102E+00
         21   -1    0    0  502  501  0.00000000000E+00  0.00000000000E+00  0.34411033806E+03  0.34411033806E+03  0.00000000000E+00 0. -1.
         21   -1    0    0  501  502 -0.00000000000E+00 -0.00000000000E+00 -0.11570260769E+03  0.11570260769E+03  0.00000000000E+00 0. -1.
      99925    2    1    2    0    0 -0.11271726551E+02  0.14669831811E+02  0.19809882198E+03  0.32978066586E+03  0.26300168920E+03 0.  0.
         25    1    3    3    0    0 -0.41423962469E+01  0.31165815552E+02  0.58959872356E+02  0.14181763696E+03  0.12509000000E+03 0.  0.
         25    1    3    3    0    0 -0.71293303040E+01 -0.16495983741E+02  0.13913894962E+03  0.18796302890E+03  0.12509000000E+03 0.  0.
         25    1    1    2    0    0  0.11271726551E+02 -0.14669831811E+02  0.30308908397E+02  0.13003227989E+03  0.12509000000E+03 0.  0.
<mgrwt>
<rscale>  2 0.39907124E+03</rscale>
<asrwt>0</asrwt>
<pdfrwt beam="1">  1       21 0.50604461E-01 0.39907124E+03</pdfrwt>
<pdfrwt beam="2">  1       21 0.17015089E-01 0.39907124E+03</pdfrwt>
<totfact> 0.10919221E+05</totfact>
</mgrwt>
</event>
<event>
 6    0  0.1284967E-004  0.4367836E+03  0.7546771E-02  0.1031738E+00
         21   -1    0    0  502  501  0.00000000000E+00  0.00000000000E+00  0.40944054448E+03  0.40944054448E+03  0.00000000000E+00 0.  1.
         21   -1    0    0  501  502 -0.00000000000E+00 -0.00000000000E+00 -0.11648814251E+03  0.11648814251E+03  0.00000000000E+00 0.  1.
      99925    2    1    2    0    0  0.28712125318E+01 -0.54108508397E+02  0.28170728850E+03  0.38914442174E+03  0.26294183775E+03 0.  0.
         25    1    3    3    0    0 -0.89582135375E+01 -0.40347683262E+02  0.19698277960E+03  0.23697659946E+03  0.12509000000E+03 0.  0.
         25    1    1    2    0    0 -0.28712125318E+01  0.54108508397E+02  0.11245113469E+02  0.13678426525E+03  0.12509000000E+03 0.  0.
         25    1    3    3    0    0  0.11829426069E+02 -0.13760825136E+02  0.84724508895E+02  0.15216782228E+03  0.12509000000E+03 0.  0.
<mgrwt>
<rscale>  2 0.43678356E+03</rscale>
<asrwt>0</asrwt>
<pdfrwt beam="1">  1       21 0.60211844E-01 0.43678356E+03</pdfrwt>
<pdfrwt beam="2">  1       21 0.17130609E-01 0.43678356E+03</pdfrwt>
<totfact> 0.73529669E+04</totfact>
</mgrwt>
</event>
<event>
 6    0  0.1284967E-004  0.4729919E+03  0.7546771E-02  0.1021079E+00
         21   -1    0    0  502  501  0.00000000000E+00  0.00000000000E+00  0.10276148241E+03  0.10276148241E+03  0.00000000000E+00 0.  1.
         21   -1    0    0  501  502 -0.00000000000E+00 -0.00000000000E+00 -0.54427343337E+03  0.54427343337E+03  0.00000000000E+00 0.  1.
      99925    2    1    2    0    0 -0.11741724630E+03  0.28465365156E+02 -0.21053266318E+03  0.35790514175E+03  0.26301140942E+03 0.  0.
         25    1    3    3    0    0 -0.81549734117E+02 -0.11173861623E+02 -0.13851775770E+03  0.20398502792E+03  0.12509000000E+03 0.  0.
         25    1    3    3    0    0 -0.35867512187E+02  0.39639226778E+02 -0.72014905483E+02  0.15392011383E+03  0.12509000000E+03 0.  0.
         25    1    1    2    0    0  0.11741724630E+03 -0.28465365156E+02 -0.23097928778E+03  0.28912977402E+03  0.12509000000E+03 0.  0.
<mgrwt>
<rscale>  2 0.47299194E+03</rscale>
<asrwt>0</asrwt>
<pdfrwt beam="1">  1       21 0.15111983E-01 0.47299194E+03</pdfrwt>
<pdfrwt beam="2">  1       21 0.80040210E-01 0.47299194E+03</pdfrwt>
<totfact> 0.48596863E+04</totfact>
</mgrwt>
</event>
<event>
 6    0  0.1284967E-004  0.4052021E+03  0.7546771E-02  0.1041993E+00
         21   -1    0    0  502  501  0.00000000000E+00  0.00000000000E+00  0.34281863379E+02  0.34281863379E+02  0.00000000000E+00 0. -1.
         21   -1    0    0  501  502 -0.00000000000E+00 -0.00000000000E+00 -0.11973438039E+04  0.11973438039E+04  0.00000000000E+00 0. -1.
      99925    2    1    2    0    0  0.18447796940E+02 -0.33951906317E+02 -0.65329559596E+03  0.70531559964E+03  0.26302453543E+03 0.  0.
         25    1    3    3    0    0 -0.29989741260E+02 -0.10475001670E+02 -0.34174063677E+03  0.36529889291E+03  0.12509000000E+03 0.  0.
         25    1    1    2    0    0 -0.18447796940E+02  0.33951906317E+02 -0.50976634460E+03  0.52631006768E+03  0.12509000000E+03 0.  0.
         25    1    3    3    0    0  0.48437538200E+02 -0.23476904647E+02 -0.31155495919E+03  0.34001670673E+03  0.12509000000E+03 0.  0.
<mgrwt>
<rscale>  2 0.40520206E+03</rscale>
<asrwt>0</asrwt>
<pdfrwt beam="1">  1       21 0.50414514E-02 0.40520206E+03</pdfrwt>
<pdfrwt beam="2">  1       21 0.17607994E+00 0.40520206E+03</pdfrwt>
<totfact> 0.46865405E+04</totfact>
</mgrwt>
</event>
<event>
 6    0  0.1284967E-004  0.4051619E+03  0.7546771E-02  0.1042007E+00
         21   -1    0    0  502  501  0.00000000000E+00  0.00000000000E+00  0.75185310067E+02  0.75185310067E+02  0.00000000000E+00 0.  1.
         21   -1    0    0  501  502 -0.00000000000E+00 -0.00000000000E+00 -0.54583842690E+03  0.54583842690E+03  0.00000000000E+00 0.  1.
      99925    2    1    2    0    0  0.54130320298E+02  0.51614447293E+01 -0.30452897219E+03  0.40607846109E+03  0.26306860241E+03 0.  0.
         25    1    3    3    0    0  0.29098113888E+02 -0.35263366426E+02 -0.17420139030E+03  0.21928027209E+03  0.12509000000E+03 0.  0.
         25    1    3    3    0    0  0.25032206411E+02  0.40424811155E+02 -0.13032758189E+03  0.18679818900E+03  0.12509000000E+03 0.  0.
         25    1    1    2    0    0 -0.54130320298E+02 -0.51614447293E+01 -0.16612414465E+03  0.21494527588E+03  0.12509000000E+03 0.  0.
<mgrwt>
<rscale>  2 0.40516185E+03</rscale>
<asrwt>0</asrwt>
<pdfrwt beam="1">  1       21 0.11056664E-01 0.40516185E+03</pdfrwt>
<pdfrwt beam="2">  1       21 0.80270353E-01 0.40516185E+03</pdfrwt>
<totfact> 0.86839768E+04</totfact>
</mgrwt>
</event>
<event>
 6    0  0.1284967E-004  0.4433686E+03  0.7546771E-02  0.1029718E+00
         21   -1    0    0  502  501  0.00000000000E+00  0.00000000000E+00  0.64186740576E+03  0.64186740576E+03  0.00000000000E+00 0.  1.
         21   -1    0    0  501  502 -0.00000000000E+00 -0.00000000000E+00 -0.76563979185E+02  0.76563979185E+02  0.00000000000E+00 0.  1.
      99925    2    1    2    0    0 -0.10201194302E+03 -0.52332914944E+01  0.35437028219E+03  0.45277347831E+03  0.26266271510E+03 0.  0.
         25    1    3    3    0    0 -0.60193899210E+02  0.21991572531E+02  0.22948683563E+03  0.26910713590E+03  0.12509000000E+03 0.  0.
         25    1    3    3    0    0 -0.41818043807E+02 -0.27224864025E+02  0.12488344656E+03  0.18366634241E+03  0.12509000000E+03 0.  0.
         25    1    1    2    0    0  0.10201194302E+03  0.52332914944E+01  0.21093314438E+03  0.26565790663E+03  0.12509000000E+03 0.  0.
<mgrwt>
<rscale>  2 0.44336857E+03</rscale>
<asrwt>0</asrwt>
<pdfrwt beam="1">  1       21 0.94392263E-01 0.44336857E+03</pdfrwt>
<pdfrwt beam="2">  1       21 0.11259409E-01 0.44336857E+03</pdfrwt>
<totfact> 0.56947740E+04</totfact>
</mgrwt>
</event>
<event>
 6    0  0.1284967E-004  0.4033985E+03  0.7546771E-02  0.1042609E+00
         21   -1    0    0  502  501  0.00000000000E+00  0.00000000000E+00  0.30919580254E+03  0.30919580254E+03  0.00000000000E+00 0. -1.
         21   -1    0    0  501  502 -0.00000000000E+00 -0.00000000000E+00 -0.13157546038E+03  0.13157546038E+03  0.00000000000E+00 0. -1.
      99925    2    1    2    0    0  0.28593182372E+02  0.10693709018E+02  0.72448737669E+02  0.27451693973E+03  0.26301864024E+03 0.  0.
         25    1    3    3    0    0 -0.12558331984E+02  0.32241089659E+02  0.50608210873E+02  0.13930505616E+03  0.12509000000E+03 0.  0.
         25    1    3    3    0    0  0.41151514356E+02 -0.21547380641E+02  0.21840526797E+02  0.13521188356E+03  0.12509000000E+03 0.  0.
         25    1    1    2    0    0 -0.28593182372E+02 -0.10693709018E+02  0.10517160449E+03  0.16625432320E+03  0.12509000000E+03 0.  0.
<mgrwt>
<rscale>  2 0.40339846E+03</rscale>
<asrwt>0</asrwt>
<pdfrwt beam="1">  1       21 0.45469971E-01 0.40339846E+03</pdfrwt>
<pdfrwt beam="2">  1       21 0.19349332E-01 0.40339846E+03</pdfrwt>
<totfact> 0.10734271E+05</totfact>
</mgrwt>
</event>
<event>
 6    0  0.1284967E-004  0.3993657E+03  0.7546771E-02  0.1044000E+00
         21   -1    0    0  502  501  0.00000000000E+00  0.00000000000E+00  0.13726380732E+04  0.13726380732E+04  0.00000000000E+00 0. -1.
         21   -1    0    0  501  502 -0.00000000000E+00 -0.00000000000E+00 -0.29048624927E+02  0.29048624927E+02  0.00000000000E+00 0. -1.
      99925    2    1    2    0    0  0.26261775012E+02 -0.26541595300E+02  0.81444445485E+03  0.85667654293E+03  0.26302241740E+03 0.  0.
         25    1    1    2    0    0 -0.26261775012E+02  0.26541595300E+02  0.52914499344E+03  0.54501015522E+03  0.12509000000E+03 0.  0.
         25    1    3    3    0    0 -0.22371139461E+02  0.11344781025E+01  0.34596145044E+03  0.36856286874E+03  0.12509000000E+03 0.  0.
         25    1    3    3    0    0  0.48632914473E+02 -0.27676073403E+02  0.46848300441E+03  0.48811367419E+03  0.12509000000E+03 0.  0.
<mgrwt>
<rscale>  2 0.39936574E+03</rscale>
<asrwt>0</asrwt>
<pdfrwt beam="1">  1       21 0.20185850E+00 0.39936574E+03</pdfrwt>
<pdfrwt beam="2">  1       21 0.42718575E-02 0.39936574E+03</pdfrwt>
<totfact> 0.41561814E+04</totfact>
</mgrwt>
</event>
<event>
 6    0  0.1284967E-004  0.4242432E+03  0.7546771E-02  0.1035694E+00
         21   -1    0    0  502  501  0.00000000000E+00  0.00000000000E+00  0.45427368034E+02  0.45427368034E+02  0.00000000000E+00 0. -1.
         21   -1    0    0  501  502 -0.00000000000E+00 -0.00000000000E+00 -0.99049489268E+03  0.99049489268E+03  0.00000000000E+00 0. -1.
      99925    2    1    2    0    0 -0.13952931822E+02  0.79518962185E+02 -0.59352187441E+03  0.65415033672E+03  0.26291918525E+03 0.  0.
         25    1    1    2    0    0  0.13952931822E+02 -0.79518962185E+02 -0.35154565024E+03  0.38177192400E+03  0.12509000000E+03 0.  0.
         25    1    3    3    0    0 -0.27711524157E+02  0.56907145874E+02 -0.38289276487E+03  0.40775081767E+03  0.12509000000E+03 0.  0.
         25    1    3    3    0    0  0.13758592335E+02  0.22611816311E+02 -0.21062910954E+03  0.24639951905E+03  0.12509000000E+03 0.  0.
<mgrwt>
<rscale>  2 0.42424321E+03</rscale>
<asrwt>0</asrwt>
<pdfrwt beam="1">  1       21 0.66804956E-02 0.42424321E+03</pdfrwt>
<pdfrwt beam="2">  1       21 0.14566101E+00 0.42424321E+03</pdfrwt>
<totfact> 0.48420588E+04</totfact>
</mgrwt>
</event>
<event>
 6    0  0.1284967E-004  0.4263479E+03  0.7546771E-02  0.1035020E+00
         21   -1    0    0  502  501  0.00000000000E+00  0.00000000000E+00  0.18628017889E+04  0.18628017889E+04  0.00000000000E+00 0. -1.
         21   -1    0    0  501  502 -0.00000000000E+00 -0.00000000000E+00 -0.24395048111E+02  0.24395048111E+02  0.00000000000E+00 0. -1.
      99925    2    1    2    0    0  0.79646499286E+02 -0.24528278894E+02  0.11634768997E+04  0.11957324490E+04  0.26296842450E+03 0.  0.
         25    1    3    3    0    0  0.18093680727E+00 -0.21568530468E+02  0.57925877324E+03  0.59300376788E+03  0.12509000000E+03 0.  0.
         25    1    1    2    0    0 -0.79646499286E+02  0.24528278894E+02  0.67492984109E+03  0.69146438795E+03  0.12509000000E+03 0.  0.
         25    1    3    3    0    0  0.79465562479E+02 -0.29597484254E+01  0.58421812645E+03  0.60272868117E+03  0.12509000000E+03 0.  0.
<mgrwt>
<rscale>  2 0.42634793E+03</rscale>
<asrwt>0</asrwt>
<pdfrwt beam="1">  1       21 0.27394134E+00 0.42634793E+03</pdfrwt>
<pdfrwt beam="2">  1       21 0.35875083E-02 0.42634793E+03</pdfrwt>
<totfact> 0.19662638E+04</totfact>
</mgrwt>
</event>
<event>
 6    0  0.1284967E-004  0.3948820E+03  0.7546771E-02  0.1045566E+00
         21   -1    0    0  502  501  0.00000000000E+00  0.00000000000E+00  0.38825689189E+03  0.38825689189E+03  0.00000000000E+00 0. -1.
         21   -1    0    0  501  502 -0.00000000000E+00 -0.00000000000E+00 -0.10040502346E+03  0.10040502346E+03  0.00000000000E+00 0. -1.
      99925    2    1    2    0    0 -0.24398450028E+02 -0.10252047297E+02  0.21937468144E+03  0.34362046584E+03  0.26315277853E+03 0.  0.
         25    1    1    2    0    0  0.24398450028E+02  0.10252047297E+02  0.68477186988E+02  0.14504144951E+03  0.12509000000E+03 0.  0.
         25    1    3    3    0    0 -0.40538100978E+02  0.23942786944E+02  0.11657884728E+03  0.17735481502E+03  0.12509000000E+03 0.  0.
         25    1    3    3    0    0  0.16139650950E+02 -0.34194834242E+02  0.10279583416E+03  0.16626565082E+03  0.12509000000E+03 0.  0.
<mgrwt>
<rscale>  2 0.39488197E+03</rscale>
<asrwt>0</asrwt>
<pdfrwt beam="1">  1       21 0.57096601E-01 0.39488197E+03</pdfrwt>
<pdfrwt beam="2">  1       21 0.14765445E-01 0.39488197E+03</pdfrwt>
<totfact> 0.10979831E+05</totfact>
</mgrwt>
</event>
<event>
 6    0  0.1284967E-004  0.4503274E+03  0.7546771E-02  0.1027624E+00
         21   -1    0    0  502  501  0.00000000000E+00  0.00000000000E+00  0.28973445471E+03  0.28973445471E+03  0.00000000000E+00 0. -1.
         21   -1    0    0  501  502 -0.00000000000E+00 -0.00000000000E+00 -0.17498332278E+03  0.17498332278E+03  0.00000000000E+00 0. -1.
      99925    2    1    2    0    0 -0.30333490054E+01  0.91206936896E+02  0.13354837758E+03  0.30874101291E+03  0.26297896751E+03 0.  0.
         25    1    3    3    0    0 -0.15567783180E+02  0.72696289753E+02  0.10232159943E+03  0.17788851629E+03  0.12509000000E+03 0.  0.
         25    1    1    2    0    0  0.30333490054E+01 -0.91206936896E+02 -0.18797245654E+02  0.15597676458E+03  0.12509000000E+03 0.  0.
         25    1    3    3    0    0  0.12534434175E+02  0.18510647143E+02  0.31226778154E+02  0.13085249662E+03  0.12509000000E+03 0.  0.
<mgrwt>
<rscale>  2 0.45032743E+03</rscale>
<asrwt>0</asrwt>
<pdfrwt beam="1">  1       21 0.42608008E-01 0.45032743E+03</pdfrwt>
<pdfrwt beam="2">  1       21 0.25732841E-01 0.45032743E+03</pdfrwt>
<totfact> 0.70404254E+04</totfact>
</mgrwt>
</event>
<event>
 6    0  0.1284967E-004  0.4257304E+03  0.7546771E-02  0.1035217E+00
         21   -1    0    0  502  501  0.00000000000E+00  0.00000000000E+00  0.28220351728E+03  0.28220351728E+03  0.00000000000E+00 0.  1.
         21   -1    0    0  501  502 -0.00000000000E+00 -0.00000000000E+00 -0.16056351110E+03  0.16056351110E+03  0.00000000000E+00 0.  1.
      99925    2    1    2    0    0 -0.40778802112E+02  0.72034092385E+02  0.80574033326E+02  0.28724936574E+03  0.26299848309E+03 0.  0.
         25    1    3    3    0    0  0.19190163427E+02  0.40699973124E+02  0.48106137168E+02  0.14137347247E+03  0.12509000000E+03 0.  0.
         25    1    1    2    0    0  0.40778802112E+02 -0.72034092385E+02  0.41065972851E+02  0.15551766264E+03  0.12509000000E+03 0.  0.
         25    1    3    3    0    0 -0.59968965539E+02  0.31334119260E+02  0.32467896157E+02  0.14587589327E+03  0.12509000000E+03 0.  0.
<mgrwt>
<rscale>  2 0.42573037E+03</rscale>
<asrwt>0</asrwt>
<pdfrwt beam="1">  1       21 0.41500517E-01 0.42573037E+03</pdfrwt>
<pdfrwt beam="2">  1       21 0.23612281E-01 0.42573037E+03</pdfrwt>
<totfact> 0.88305269E+04</totfact>
</mgrwt>
</event>
<event>
 6    0  0.1284967E-004  0.4272279E+03  0.7546771E-02  0.1034739E+00
         21   -1    0    0  502  501  0.00000000000E+00  0.00000000000E+00  0.64059819736E+02  0.64059819736E+02  0.00000000000E+00 0. -1.
         21   -1    0    0  501  502 -0.00000000000E+00 -0.00000000000E+00 -0.71231729619E+03  0.71231729619E+03  0.00000000000E+00 0. -1.
      99925    2    1    2    0    0 -0.72387453590E+02  0.41762703398E+02 -0.39746522116E+03  0.48392484589E+03  0.26309805702E+03 0.  0.
         25    1    3    3    0    0 -0.64846878291E+02  0.51006137410E+02 -0.20094707696E+03  0.25066706907E+03  0.12509000000E+03 0.  0.
         25    1    1    2    0    0  0.72387453590E+02 -0.41762703398E+02 -0.25079225529E+03  0.29245227003E+03  0.12509000000E+03 0.  0.
         25    1    3    3    0    0 -0.75405752992E+01 -0.92434340120E+01 -0.19651814420E+03  0.23325777682E+03  0.12509000000E+03 0.  0.
<mgrwt>
<rscale>  2 0.42722789E+03</rscale>
<asrwt>0</asrwt>
<pdfrwt beam="1">  1       21 0.94205625E-02 0.42722789E+03</pdfrwt>
<pdfrwt beam="2">  1       21 0.10475254E+00 0.42722789E+03</pdfrwt>
<totfact> 0.61224384E+04</totfact>
</mgrwt>
</event>
<event>
 6    0  0.1284967E-004  0.3983791E+03  0.7546771E-02  0.1044342E+00
         21   -1    0    0  502  501  0.00000000000E+00  0.00000000000E+00  0.71512263833E+02  0.71512263833E+02  0.00000000000E+00 0.  1.
         21   -1    0    0  501  502 -0.00000000000E+00 -0.00000000000E+00 -0.55482060821E+03  0.55482060821E+03  0.00000000000E+00 0.  1.
      99925    2    1    2    0    0 -0.89198966487E+01 -0.18351343491E+02 -0.26518140315E+03  0.37405681897E+03  0.26302279536E+03 0.  0.
         25    1    1    2    0    0  0.89198966487E+01  0.18351343491E+02 -0.21812694123E+03  0.25227605307E+03  0.12509000000E+03 0.  0.
         25    1    3    3    0    0  0.34022855996E+02 -0.14570591162E+02 -0.14835050161E+03  0.19754806070E+03  0.12509000000E+03 0.  0.
         25    1    3    3    0    0 -0.42942752644E+02 -0.37807523288E+01 -0.11683090154E+03  0.17650875827E+03  0.12509000000E+03 0.  0.
<mgrwt>
<rscale>  2 0.39837910E+03</rscale>
<asrwt>0</asrwt>
<pdfrwt beam="1">  1       21 0.10516509E-01 0.39837910E+03</pdfrwt>
<pdfrwt beam="2">  1       21 0.81591265E-01 0.39837910E+03</pdfrwt>
<totfact> 0.91674813E+04</totfact>
</mgrwt>
</event>
<event>
 6    0  0.1284967E-004  0.4308421E+03  0.7546771E-02  0.1033594E+00
         21   -1    0    0  502  501  0.00000000000E+00  0.00000000000E+00  0.44895041704E+03  0.44895041704E+03  0.00000000000E+00 0. -1.
         21   -1    0    0  501  502 -0.00000000000E+00 -0.00000000000E+00 -0.10336604658E+03  0.10336604658E+03  0.00000000000E+00 0. -1.
      99925    2    1    2    0    0 -0.44270805886E+02 -0.76890188015E+02  0.21851135181E+03  0.35315053922E+03  0.26286134600E+03 0.  0.
         25    1    1    2    0    0  0.44270805886E+02  0.76890188015E+02  0.12707301866E+03  0.19916592439E+03  0.12509000000E+03 0.  0.
         25    1    3    3    0    0  0.44349243937E+01 -0.27958177911E+02  0.66262089102E+02  0.14435893051E+03  0.12509000000E+03 0.  0.
         25    1    3    3    0    0 -0.48705730280E+02 -0.48932010105E+02  0.15224926270E+03  0.20879160871E+03  0.12509000000E+03 0.  0.
<mgrwt>
<rscale>  2 0.43084210E+03</rscale>
<asrwt>0</asrwt>
<pdfrwt beam="1">  1       21 0.66022119E-01 0.43084210E+03</pdfrwt>
<pdfrwt beam="2">  1       21 0.15200889E-01 0.43084210E+03</pdfrwt>
<totfact> 0.75063679E+04</totfact>
</mgrwt>
</event>
<event>
 6    0  0.1284967E-004  0.4358919E+03  0.7546771E-02  0.1032015E+00
         21   -1    0    0  502  501  0.00000000000E+00  0.00000000000E+00  0.66495309068E+03  0.66495309068E+03  0.00000000000E+00 0. -1.
         21   -1    0    0  501  502 -0.00000000000E+00 -0.00000000000E+00 -0.71434271087E+02  0.71434271087E+02  0.00000000000E+00 0. -1.
      99925    2    1    2    0    0 -0.46570459418E+02  0.80439963131E+02  0.40537047940E+03  0.49207874264E+03  0.26301495782E+03 0.  0.
         25    1    3    3    0    0 -0.18495605935E+02  0.42155836862E+02  0.13133296879E+03  0.18712311138E+03  0.12509000000E+03 0.  0.
         25    1    3    3    0    0 -0.28074853482E+02  0.38284126269E+02  0.27403751060E+03  0.30495563126E+03  0.12509000000E+03 0.  0.
         25    1    1    2    0    0  0.46570459418E+02 -0.80439963131E+02  0.18814834019E+03  0.24430861912E+03  0.12509000000E+03 0.  0.
<mgrwt>
<rscale>  2 0.43589191E+03</rscale>
<asrwt>0</asrwt>
<pdfrwt beam="1">  1       21 0.97787216E-01 0.43589191E+03</pdfrwt>
<pdfrwt beam="2">  1       21 0.10505040E-01 0.43589191E+03</pdfrwt>
<totfact> 0.59405555E+04</totfact>
</mgrwt>
</event>
<event>
 6    0  0.1284967E-004  0.4205091E+03  0.7546771E-02  0.1036901E+00
         21   -1    0    0  502  501  0.00000000000E+00  0.00000000000E+00  0.98555936674E+03  0.98555936674E+03  0.00000000000E+00 0.  1.
         21   -1    0    0  501  502 -0.00000000000E+00 -0.00000000000E+00 -0.44854697397E+02  0.44854697397E+02  0.00000000000E+00 0.  1.
      99925    2    1    2    0    0 -0.28918730133E+02 -0.65985846183E+02  0.67314970045E+03  0.72640157372E+03  0.26332167066E+03 0.  0.
         25    1    3    3    0    0  0.15971362915E+02 -0.45744197001E+01  0.33147346992E+03  0.35468039009E+03  0.12509000000E+03 0.  0.
         25    1    3    3    0    0 -0.44890093047E+02 -0.61411426482E+02  0.34167623053E+03  0.37172118364E+03  0.12509000000E+03 0.  0.
         25    1    1    2    0    0  0.28918730133E+02  0.65985846183E+02  0.26755496890E+03  0.30401249042E+03  0.12509000000E+03 0.  0.
<mgrwt>
<rscale>  2 0.42050906E+03</rscale>
<asrwt>0</asrwt>
<pdfrwt beam="1">  1       21 0.14493519E+00 0.42050906E+03</pdfrwt>
<pdfrwt beam="2">  1       21 0.65962797E-02 0.42050906E+03</pdfrwt>
<totfact> 0.50225954E+04</totfact>
</mgrwt>
</event>
<event>
 6    0  0.1284967E-004  0.4268320E+03  0.7546771E-02  0.1034865E+00
         21   -1    0    0  502  501  0.00000000000E+00  0.00000000000E+00  0.90787705948E+02  0.90787705948E+02  0.00000000000E+00 0. -1.
         21   -1    0    0  501  502 -0.00000000000E+00 -0.00000000000E+00 -0.50168014978E+03  0.50168014978E+03  0.00000000000E+00 0. -1.
      99925    2    1    2    0    0 -0.12538738645E+02 -0.82151540531E+02 -0.24882113240E+03  0.37151375718E+03  0.26306733028E+03 0.  0.
         25    1    3    3    0    0  0.18947818137E+02 -0.77396667898E+01 -0.10717143738E+03  0.16598839521E+03  0.12509000000E+03 0.  0.
         25    1    1    2    0    0  0.12538738645E+02  0.82151540531E+02 -0.16207131143E+03  0.22095409855E+03  0.12509000000E+03 0.  0.
         25    1    3    3    0    0 -0.31486556782E+02 -0.74411873741E+02 -0.14164969502E+03  0.20552536197E+03  0.12509000000E+03 0.  0.
<mgrwt>
<rscale>  2 0.42683200E+03</rscale>
<asrwt>0</asrwt>
<pdfrwt beam="1">  1       21 0.13351133E-01 0.42683200E+03</pdfrwt>
<pdfrwt beam="2">  1       21 0.73776492E-01 0.42683200E+03</pdfrwt>
<totfact> 0.74365395E+04</totfact>
</mgrwt>
</event>
<event>
 6    0  0.1284967E-004  0.4007625E+03  0.7546771E-02  0.1043516E+00
         21   -1    0    0  502  501  0.00000000000E+00  0.00000000000E+00  0.57602869309E+02  0.57602869309E+02  0.00000000000E+00 0.  1.
         21   -1    0    0  501  502 -0.00000000000E+00 -0.00000000000E+00 -0.69705978033E+03  0.69705978033E+03  0.00000000000E+00 0.  1.
      99925    2    1    2    0    0 -0.82603191068E+01  0.45182019415E+02 -0.40718939478E+03  0.48688409383E+03  0.26295107882E+03 0.  0.
         25    1    3    3    0    0 -0.34799899104E+02  0.19099059112E+02 -0.25190071093E+03  0.28403746813E+03  0.12509000000E+03 0.  0.
         25    1    3    3    0    0  0.26539579998E+02  0.26082960304E+02 -0.15528868385E+03  0.20284662570E+03  0.12509000000E+03 0.  0.
         25    1    1    2    0    0  0.82603191068E+01 -0.45182019415E+02 -0.23226751624E+03  0.26777855581E+03  0.12509000000E+03 0.  0.
<mgrwt>
<rscale>  2 0.40076249E+03</rscale>
<asrwt>0</asrwt>
<pdfrwt beam="1">  1       21 0.84710109E-02 0.40076249E+03</pdfrwt>
<pdfrwt beam="2">  1       21 0.10250878E+00 0.40076249E+03</pdfrwt>
<totfact> 0.78501800E+04</totfact>
</mgrwt>
</event>
<event>
 6    0  0.1284967E-004  0.4165589E+03  0.7546771E-02  0.1038192E+00
         21   -1    0    0  502  501  0.00000000000E+00  0.00000000000E+00  0.26286056429E+02  0.26286056429E+02  0.00000000000E+00 0.  1.
         21   -1    0    0  501  502 -0.00000000000E+00 -0.00000000000E+00 -0.16503171619E+04  0.16503171619E+04  0.00000000000E+00 0.  1.
      99925    2    1    2    0    0  0.24254876771E+02  0.84252496867E+01 -0.79370245426E+03  0.83651247263E+03  0.26292631495E+03 0.  0.
         25    1    3    3    0    0  0.98775151390E+01  0.20282363052E+02 -0.28048864255E+03  0.30794532998E+03  0.12509000000E+03 0.  0.
         25    1    1    2    0    0 -0.24254876771E+02 -0.84252496867E+01 -0.83032865126E+03  0.84009074574E+03  0.12509000000E+03 0.  0.
         25    1    3    3    0    0  0.14377361632E+02 -0.11857113365E+02 -0.51321381171E+03  0.52856714265E+03  0.12509000000E+03 0.  0.
<mgrwt>
<rscale>  2 0.41655890E+03</rscale>
<asrwt>0</asrwt>
<pdfrwt beam="1">  1       21 0.38655956E-02 0.41655890E+03</pdfrwt>
<pdfrwt beam="2">  1       21 0.24269376E+00 0.41655890E+03</pdfrwt>
<totfact> 0.26939512E+04</totfact>
</mgrwt>
</event>
<event>
 6    0  0.1284967E-004  0.3914253E+03  0.7546771E-02  0.1046790E+00
         21   -1    0    0  502  501  0.00000000000E+00  0.00000000000E+00  0.36043976143E+03  0.36043976143E+03  0.00000000000E+00 0. -1.
         21   -1    0    0  501  502 -0.00000000000E+00 -0.00000000000E+00 -0.10626862412E+03  0.10626862412E+03  0.00000000000E+00 0. -1.
      99925    2    1    2    0    0  0.22330270938E+02  0.11880633418E+01  0.17853491335E+03  0.31882870822E+03  0.26320520018E+03 0.  0.
         25    1    1    2    0    0 -0.22330270938E+02 -0.11880633418E+01  0.75636223952E+02  0.14787967733E+03  0.12509000000E+03 0.  0.
         25    1    3    3    0    0 -0.19902003511E+02 -0.24298444959E+02  0.99145726649E+02  0.16267724913E+03  0.12509000000E+03 0.  0.
         25    1    3    3    0    0  0.42232274448E+02  0.25486508301E+02  0.79389186702E+02  0.15615145909E+03  0.12509000000E+03 0.  0.
<mgrwt>
<rscale>  2 0.39142528E+03</rscale>
<asrwt>0</asrwt>
<pdfrwt beam="1">  1       21 0.53005847E-01 0.39142528E+03</pdfrwt>
<pdfrwt beam="2">  1       21 0.15627739E-01 0.39142528E+03</pdfrwt>
<totfact> 0.11607759E+05</totfact>
</mgrwt>
</event>
<event>
 6    0  0.1284967E-004  0.3993206E+03  0.7546771E-02  0.1044015E+00
         21   -1    0    0  502  501  0.00000000000E+00  0.00000000000E+00  0.59551270121E+02  0.59551270121E+02  0.00000000000E+00 0.  1.
         21   -1    0    0  501  502 -0.00000000000E+00 -0.00000000000E+00 -0.66941018822E+03  0.66941018822E+03  0.00000000000E+00 0.  1.
      99925    2    1    2    0    0  0.21050083815E+02  0.16804796373E+02 -0.47094236773E+03  0.54009424764E+03  0.26303911383E+03 0.  0.
         25    1    3    3    0    0  0.33589875244E+02 -0.45141703584E+01 -0.17425291980E+03  0.21716409835E+03  0.12509000000E+03 0.  0.
         25    1    3    3    0    0 -0.12539791429E+02  0.21318966732E+02 -0.29668944793E+03  0.32293014930E+03  0.12509000000E+03 0.  0.
         25    1    1    2    0    0 -0.21050083815E+02 -0.16804796373E+02 -0.13891655037E+03  0.18886721070E+03  0.12509000000E+03 0.  0.
<mgrwt>
<rscale>  2 0.39932056E+03</rscale>
<asrwt>0</asrwt>
<pdfrwt beam="1">  1       21 0.87575400E-02 0.39932056E+03</pdfrwt>
<pdfrwt beam="2">  1       21 0.98442671E-01 0.39932056E+03</pdfrwt>
<totfact> 0.81662601E+04</totfact>
</mgrwt>
</event>
<event>
 6    0  0.1284967E-004  0.4643629E+03  0.7546771E-02  0.1023523E+00
         21   -1    0    0  502  501  0.00000000000E+00  0.00000000000E+00  0.13604047495E+03  0.13604047495E+03  0.00000000000E+00 0. -1.
         21   -1    0    0  501  502 -0.00000000000E+00 -0.00000000000E+00 -0.39626600801E+03  0.39626600801E+03  0.00000000000E+00 0. -1.
      99925    2    1    2    0    0 -0.71832538892E+02 -0.57416538965E+02 -0.25389406273E+03  0.37692254490E+03  0.26296736903E+03 0.  0.
         25    1    3    3    0    0 -0.74418347293E+02 -0.35926577750E+02 -0.15814700735E+03  0.21791464714E+03  0.12509000000E+03 0.  0.
         25    1    3    3    0    0  0.25858084014E+01 -0.21489961215E+02 -0.95747055374E+02  0.15900789776E+03  0.12509000000E+03 0.  0.
         25    1    1    2    0    0  0.71832538892E+02  0.57416538965E+02 -0.63314703404E+01  0.15538393806E+03  0.12509000000E+03 0.  0.
<mgrwt>
<rscale>  2 0.46436286E+03</rscale>
<asrwt>0</asrwt>
<pdfrwt beam="1">  1       21 0.20005952E-01 0.46436286E+03</pdfrwt>
<pdfrwt beam="2">  1       21 0.58274414E-01 0.46436286E+03</pdfrwt>
<totfact> 0.58580720E+04</totfact>
</mgrwt>
</event>
<event>
 6    0  0.1284967E-004  0.4085134E+03  0.7546771E-02  0.1040871E+00
         21   -1    0    0  502  501  0.00000000000E+00  0.00000000000E+00  0.97951416431E+02  0.97951416431E+02  0.00000000000E+00 0. -1.
         21   -1    0    0  501  502 -0.00000000000E+00 -0.00000000000E+00 -0.42593351410E+03  0.42593351410E+03  0.00000000000E+00 0. -1.
      99925    2    1    2    0    0  0.28400241384E+02  0.41953715364E+02 -0.25741342219E+03  0.37158872572E+03  0.26315361143E+03 0.  0.
         25    1    3    3    0    0  0.16844249133E+02 -0.16289725110E+02 -0.99355143618E+02  0.16145598947E+03  0.12509000000E+03 0.  0.
         25    1    3    3    0    0  0.11555992251E+02  0.58243440474E+02 -0.15805827858E+03  0.21013273624E+03  0.12509000000E+03 0.  0.
         25    1    1    2    0    0 -0.28400241384E+02 -0.41953715364E+02 -0.70568675480E+02  0.15229620482E+03  0.12509000000E+03 0.  0.
<mgrwt>
<rscale>  2 0.40851336E+03</rscale>
<asrwt>0</asrwt>
<pdfrwt beam="1">  1       21 0.14404620E-01 0.40851336E+03</pdfrwt>
<pdfrwt beam="2">  1       21 0.62637283E-01 0.40851336E+03</pdfrwt>
<totfact> 0.93608053E+04</totfact>
</mgrwt>
</event>
<event>
 6    0  0.1284967E-004  0.4040485E+03  0.7546771E-02  0.1042387E+00
         21   -1    0    0  502  501  0.00000000000E+00  0.00000000000E+00  0.60583168869E+03  0.60583168869E+03  0.00000000000E+00 0.  1.
         21   -1    0    0  501  502 -0.00000000000E+00 -0.00000000000E+00 -0.67368212083E+02  0.67368212083E+02  0.00000000000E+00 0.  1.
      99925    2    1    2    0    0  0.27549871617E+02  0.26234201781E+02  0.41856142659E+03  0.49579855222E+03  0.26301199172E+03 0.  0.
         25    1    3    3    0    0  0.20039700352E+02  0.31467638349E+02  0.14650308296E+03  0.19622044560E+03  0.12509000000E+03 0.  0.
         25    1    3    3    0    0  0.75101712642E+01 -0.52334365678E+01  0.27205834362E+03  0.29957810662E+03  0.12509000000E+03 0.  0.
         25    1    1    2    0    0 -0.27549871617E+02 -0.26234201781E+02  0.11990205002E+03  0.17740134855E+03  0.12509000000E+03 0.  0.
<mgrwt>
<rscale>  2 0.40404850E+03</rscale>
<asrwt>0</asrwt>
<pdfrwt beam="1">  1       21 0.89092892E-01 0.40404850E+03</pdfrwt>
<pdfrwt beam="2">  1       21 0.99070903E-02 0.40404850E+03</pdfrwt>
<totfact> 0.83007168E+04</totfact>
</mgrwt>
</event>
<event>
 6    0  0.1284967E-004  0.4260872E+03  0.7546771E-02  0.1035103E+00
         21   -1    0    0  502  501  0.00000000000E+00  0.00000000000E+00  0.13053529499E+03  0.13053529499E+03  0.00000000000E+00 0. -1.
         21   -1    0    0  501  502 -0.00000000000E+00 -0.00000000000E+00 -0.34770352957E+03  0.34770352957E+03  0.00000000000E+00 0. -1.
      99925    2    1    2    0    0  0.24689184337E+02  0.75570537147E+02 -0.16811752071E+03  0.32211726122E+03  0.26301248507E+03 0.  0.
         25    1    3    3    0    0 -0.32621009833E+01  0.30280942976E+02 -0.38727874854E+02  0.13444304817E+03  0.12509000000E+03 0.  0.
         25    1    1    2    0    0 -0.24689184337E+02 -0.75570537147E+02 -0.49050713872E+02  0.15612156334E+03  0.12509000000E+03 0.  0.
         25    1    3    3    0    0  0.27951285320E+02  0.45289594170E+02 -0.12938964585E+03  0.18767421305E+03  0.12509000000E+03 0.  0.
<mgrwt>
<rscale>  2 0.42608723E+03</rscale>
<asrwt>0</asrwt>
<pdfrwt beam="1">  1       21 0.19196367E-01 0.42608723E+03</pdfrwt>
<pdfrwt beam="2">  1       21 0.51132871E-01 0.42608723E+03</pdfrwt>
<totfact> 0.84651755E+04</totfact>
</mgrwt>
</event>
<event>
 6    0  0.1284967E-004  0.4246238E+03  0.7546771E-02  0.1035572E+00
         21   -1    0    0  502  501  0.00000000000E+00  0.00000000000E+00  0.66576740069E+03  0.66576740069E+03  0.00000000000E+00 0. -1.
         21   -1    0    0  501  502 -0.00000000000E+00 -0.00000000000E+00 -0.67705845798E+02  0.67705845798E+02  0.00000000000E+00 0. -1.
      99925    2    1    2    0    0 -0.52617951889E+02 -0.62208533453E+02  0.38344786555E+03  0.47204429964E+03  0.26297339169E+03 0.  0.
         25    1    1    2    0    0  0.52617951889E+02  0.62208533453E+02  0.21461368934E+03  0.26142894685E+03  0.12509000000E+03 0.  0.
         25    1    3    3    0    0  0.79827805813E+01 -0.65466824926E+01  0.17993224556E+03  0.21938483295E+03  0.12509000000E+03 0.  0.
         25    1    3    3    0    0 -0.60600732470E+02 -0.55661850960E+02  0.20351561999E+03  0.25265946669E+03  0.12509000000E+03 0.  0.
<mgrwt>
<rscale>  2 0.42462381E+03</rscale>
<asrwt>0</asrwt>
<pdfrwt beam="1">  1       21 0.97906967E-01 0.42462381E+03</pdfrwt>
<pdfrwt beam="2">  1       21 0.99567424E-02 0.42462381E+03</pdfrwt>
<totfact> 0.65398419E+04</totfact>
</mgrwt>
</event>
<event>
 6    0  0.1284967E-004  0.4247733E+03  0.7546771E-02  0.1035524E+00
         21   -1    0    0  502  501  0.00000000000E+00  0.00000000000E+00  0.10509347605E+03  0.10509347605E+03  0.00000000000E+00 0. -1.
         21   -1    0    0  501  502 -0.00000000000E+00 -0.00000000000E+00 -0.42921875771E+03  0.42921875771E+03  0.00000000000E+00 0. -1.
      99925    2    1    2    0    0 -0.39136039768E+02  0.87422633818E+01 -0.12017323549E+03  0.29171791805E+03  0.26277305875E+03 0.  0.
         25    1    1    2    0    0  0.39136039768E+02 -0.87422633818E+01 -0.20395204617E+03  0.24259431571E+03  0.12509000000E+03 0.  0.
         25    1    3    3    0    0 -0.81629292103E+01  0.18579226163E+01 -0.17047354359E+02  0.12652353805E+03  0.12509000000E+03 0.  0.
         25    1    3    3    0    0 -0.30973110558E+02  0.68843407655E+01 -0.10312588113E+03  0.16519438000E+03  0.12509000000E+03 0.  0.
<mgrwt>
<rscale>  2 0.42477331E+03</rscale>
<asrwt>0</asrwt>
<pdfrwt beam="1">  1       21 0.15454923E-01 0.42477331E+03</pdfrwt>
<pdfrwt beam="2">  1       21 0.63120406E-01 0.42477331E+03</pdfrwt>
<totfact> 0.80517935E+04</totfact>
</mgrwt>
</event>
<event>
 6    0  0.1284967E-004  0.4310546E+03  0.7546771E-02  0.1033527E+00
         21   -1    0    0  502  501  0.00000000000E+00  0.00000000000E+00  0.17240026001E+03  0.17240026001E+03  0.00000000000E+00 0. -1.
         21   -1    0    0  501  502 -0.00000000000E+00 -0.00000000000E+00 -0.26944288536E+03  0.26944288536E+03  0.00000000000E+00 0. -1.
      99925    2    1    2    0    0  0.87319646755E+02  0.13504213736E+02 -0.53490424369E+02  0.28262195706E+03  0.26307196851E+03 0.  0.
         25    1    1    2    0    0 -0.87319646755E+02 -0.13504213736E+02 -0.43552200983E+02  0.15922118832E+03  0.12509000000E+03 0.  0.
         25    1    3    3    0    0  0.64753213697E+02  0.41354230181E+02 -0.19171788492E+02  0.14804802130E+03  0.12509000000E+03 0.  0.
         25    1    3    3    0    0  0.22566433058E+02 -0.27850016445E+02 -0.34318635877E+02  0.13457393576E+03  0.12509000000E+03 0.  0.
<mgrwt>
<rscale>  2 0.43105463E+03</rscale>
<asrwt>0</asrwt>
<pdfrwt beam="1">  1       21 0.25352980E-01 0.43105463E+03</pdfrwt>
<pdfrwt beam="2">  1       21 0.39623953E-01 0.43105463E+03</pdfrwt>
<totfact> 0.84539071E+04</totfact>
</mgrwt>
</event>
<event>
 6    0  0.1284967E-004  0.4810645E+03  0.7546771E-02  0.1018843E+00
         21   -1    0    0  502  501  0.00000000000E+00  0.00000000000E+00  0.46005965825E+03  0.46005965825E+03  0.00000000000E+00 0. -1.
         21   -1    0    0  501  502 -0.00000000000E+00 -0.00000000000E+00 -0.12575710117E+03  0.12575710117E+03  0.00000000000E+00 0. -1.
      99925    2    1    2    0    0 -0.10254870814E+03 -0.38462791569E+00  0.96711098579E+02  0.29839095206E+03  0.26299760114E+03 0.  0.
         25    1    3    3    0    0 -0.92006265457E+01  0.95056045566E+01  0.39130781157E+02  0.13173357272E+03  0.12509000000E+03 0.  0.
         25    1    3    3    0    0 -0.93348081595E+02 -0.98902324723E+01  0.57580317421E+02  0.16665737935E+03  0.12509000000E+03 0.  0.
         25    1    1    2    0    0  0.10254870814E+03  0.38462791569E+00  0.23759145851E+03  0.28742580736E+03  0.12509000000E+03 0.  0.
<mgrwt>
<rscale>  2 0.48106452E+03</rscale>
<asrwt>0</asrwt>
<pdfrwt beam="1">  1       21 0.67655831E-01 0.48106452E+03</pdfrwt>
<pdfrwt beam="2">  1       21 0.18493692E-01 0.48106452E+03</pdfrwt>
<totfact> 0.48718287E+04</totfact>
</mgrwt>
</event>
<event>
 6    0  0.1284967E-004  0.3927783E+03  0.7546771E-02  0.1046309E+00
         21   -1    0    0  502  501  0.00000000000E+00  0.00000000000E+00  0.14560613678E+03  0.14560613678E+03  0.00000000000E+00 0.  1.
         21   -1    0    0  501  502 -0.00000000000E+00 -0.00000000000E+00 -0.26488371570E+03  0.26488371570E+03  0.00000000000E+00 0.  1.
      99925    2    1    2    0    0 -0.97859433529E+01 -0.21076264518E+02 -0.97428238714E+02  0.28139734541E+03  0.26296811726E+03 0.  0.
         25    1    3    3    0    0 -0.88496254378E+01 -0.36168057758E+02 -0.16277219862E+02  0.13152528372E+03  0.12509000000E+03 0.  0.
         25    1    3    3    0    0 -0.93631791511E+00  0.15091793240E+02 -0.81151018853E+02  0.14987206169E+03  0.12509000000E+03 0.  0.
         25    1    1    2    0    0  0.97859433529E+01  0.21076264518E+02 -0.21849340197E+02  0.12909250707E+03  0.12509000000E+03 0.  0.
<mgrwt>
<rscale>  2 0.39277828E+03</rscale>
<asrwt>0</asrwt>
<pdfrwt beam="1">  1       21 0.21412667E-01 0.39277828E+03</pdfrwt>
<pdfrwt beam="2">  1       21 0.38953487E-01 0.39277828E+03</pdfrwt>
<totfact> 0.12219254E+05</totfact>
</mgrwt>
</event>
<event>
 6    0  0.1284967E-004  0.4266507E+03  0.7546771E-02  0.1034923E+00
         21   -1    0    0  502  501  0.00000000000E+00  0.00000000000E+00  0.41223978639E+02  0.41223978639E+02  0.00000000000E+00 0. -1.
         21   -1    0    0  501  502 -0.00000000000E+00 -0.00000000000E+00 -0.11039133116E+04  0.11039133116E+04  0.00000000000E+00 0. -1.
      99925    2    1    2    0    0  0.29658573427E+02  0.33868378440E+02 -0.49805524622E+03  0.56506327941E+03  0.26307942415E+03 0.  0.
         25    1    3    3    0    0  0.49180608420E+02  0.35963468580E+01 -0.28977099080E+03  0.31944702404E+03  0.12509000000E+03 0.  0.
         25    1    3    3    0    0 -0.19522034994E+02  0.30272031582E+02 -0.20828425542E+03  0.24561625537E+03  0.12509000000E+03 0.  0.
         25    1    1    2    0    0 -0.29658573427E+02 -0.33868378440E+02 -0.56463408671E+03  0.58007401081E+03  0.12509000000E+03 0.  0.
<mgrwt>
<rscale>  2 0.42665067E+03</rscale>
<asrwt>0</asrwt>
<pdfrwt beam="1">  1       21 0.60623510E-02 0.42665067E+03</pdfrwt>
<pdfrwt beam="2">  1       21 0.16234016E+00 0.42665067E+03</pdfrwt>
<totfact> 0.42609441E+04</totfact>
</mgrwt>
</event>
<event>
 6    0  0.1284967E-004  0.4988844E+03  0.7546771E-02  0.1014071E+00
         21   -1    0    0  502  501  0.00000000000E+00  0.00000000000E+00  0.10154787329E+04  0.10154787329E+04  0.00000000000E+00 0.  1.
         21   -1    0    0  501  502 -0.00000000000E+00 -0.00000000000E+00 -0.61272977958E+02  0.61272977958E+02  0.00000000000E+00 0.  1.
      99925    2    1    2    0    0 -0.97536208663E+02  0.10634290160E+03  0.48651589812E+03  0.57157507344E+03  0.26301752932E+03 0.  0.
         25    1    3    3    0    0 -0.99265321356E+01  0.55485792849E+02  0.25555700373E+03  0.29005878629E+03  0.12509000000E+03 0.  0.
         25    1    1    2    0    0  0.97536208663E+02 -0.10634290160E+03  0.46768985680E+03  0.50517663740E+03  0.12509000000E+03 0.  0.
         25    1    3    3    0    0 -0.87609676527E+02  0.50857108752E+02  0.23095889439E+03  0.28151628715E+03  0.12509000000E+03 0.  0.
<mgrwt>
<rscale>  2 0.49888438E+03</rscale>
<asrwt>0</asrwt>
<pdfrwt beam="1">  1       21 0.14933510E+00 0.49888438E+03</pdfrwt>
<pdfrwt beam="2">  1       21 0.90107327E-02 0.49888438E+03</pdfrwt>
<totfact> 0.26143290E+04</totfact>
</mgrwt>
</event>
<event>
 6    0  0.1284967E-004  0.4291151E+03  0.7546771E-02  0.1034140E+00
         21   -1    0    0  502  501  0.00000000000E+00  0.00000000000E+00  0.28927253805E+03  0.28927253805E+03  0.00000000000E+00 0. -1.
         21   -1    0    0  501  502 -0.00000000000E+00 -0.00000000000E+00 -0.15914035294E+03  0.15914035294E+03  0.00000000000E+00 0. -1.
      99925    2    1    2    0    0  0.63678467475E+02  0.54837783478E+02  0.10626885206E+03  0.29583800288E+03  0.26299225334E+03 0.  0.
         25    1    1    2    0    0 -0.63678467475E+02 -0.54837783478E+02  0.23863333047E+02  0.15257488811E+03  0.12509000000E+03 0.  0.
         25    1    3    3    0    0  0.12715622431E+02  0.32152890368E+02  0.89948951561E+02  0.15790445655E+03  0.12509000000E+03 0.  0.
         25    1    3    3    0    0  0.50962845044E+02  0.22684893111E+02  0.16319900502E+02  0.13793354633E+03  0.12509000000E+03 0.  0.
<mgrwt>
<rscale>  2 0.42911506E+03</rscale>
<asrwt>0</asrwt>
<pdfrwt beam="1">  1       21 0.42540079E-01 0.42911506E+03</pdfrwt>
<pdfrwt beam="2">  1       21 0.23402993E-01 0.42911506E+03</pdfrwt>
<totfact> 0.85288890E+04</totfact>
</mgrwt>
</event>
<event>
 6    0  0.1284967E-004  0.3966453E+03  0.7546771E-02  0.1044948E+00
         21   -1    0    0  502  501  0.00000000000E+00  0.00000000000E+00  0.51540225915E+03  0.51540225915E+03  0.00000000000E+00 0.  1.
         21   -1    0    0  501  502 -0.00000000000E+00 -0.00000000000E+00 -0.76312955537E+02  0.76312955537E+02  0.00000000000E+00 0.  1.
      99925    2    1    2    0    0 -0.17184300832E+02  0.32700141487E+02  0.30972035148E+03  0.40800774798E+03  0.26301906174E+03 0.  0.
         25    1    3    3    0    0  0.29950358334E+02  0.95044254456E+01  0.16821242444E+03  0.21196765297E+03  0.12509000000E+03 0.  0.
         25    1    1    2    0    0  0.17184300832E+02 -0.32700141487E+02  0.12936895213E+03  0.18370746671E+03  0.12509000000E+03 0.  0.
         25    1    3    3    0    0 -0.47134659166E+02  0.23195716042E+02  0.14150792704E+03  0.19604009501E+03  0.12509000000E+03 0.  0.
<mgrwt>
<rscale>  2 0.39664528E+03</rscale>
<asrwt>0</asrwt>
<pdfrwt beam="1">  1       21 0.75794448E-01 0.39664528E+03</pdfrwt>
<pdfrwt beam="2">  1       21 0.11222494E-01 0.39664528E+03</pdfrwt>
<totfact> 0.96595525E+04</totfact>
</mgrwt>
</event>
<event>
 6    0  0.1284967E-004  0.4077198E+03  0.7546771E-02  0.1041139E+00
         21   -1    0    0  502  501  0.00000000000E+00  0.00000000000E+00  0.94566650680E+02  0.94566650680E+02  0.00000000000E+00 0.  1.
         21   -1    0    0  501  502 -0.00000000000E+00 -0.00000000000E+00 -0.43946635378E+03  0.43946635378E+03  0.00000000000E+00 0.  1.
      99925    2    1    2    0    0  0.72485825779E+01  0.25381139755E+02 -0.29671984269E+03  0.39741107630E+03  0.26305161911E+03 0.  0.
         25    1    3    3    0    0  0.37982502173E+02 -0.36960588042E+01 -0.16906497269E+03  0.21374471786E+03  0.12509000000E+03 0.  0.
         25    1    3    3    0    0 -0.30733919595E+02  0.29077198559E+02 -0.12765487000E+03  0.18366635844E+03  0.12509000000E+03 0.  0.
         25    1    1    2    0    0 -0.72485825779E+01 -0.25381139755E+02 -0.48179860415E+02  0.13662192816E+03  0.12509000000E+03 0.  0.
<mgrwt>
<rscale>  2 0.40771981E+03</rscale>
<asrwt>0</asrwt>
<pdfrwt beam="1">  1       21 0.13906861E-01 0.40771981E+03</pdfrwt>
<pdfrwt beam="2">  1       21 0.64627404E-01 0.40771981E+03</pdfrwt>
<totfact> 0.93223245E+04</totfact>
</mgrwt>
</event>
<event>
 6    0  0.1284967E-004  0.6148529E+03  0.7546771E-02  0.9875061E-01
         21   -1    0    0  502  501  0.00000000000E+00  0.00000000000E+00  0.21056222300E+03  0.21056222300E+03  0.00000000000E+00 0. -1.
         21   -1    0    0  501  502 -0.00000000000E+00 -0.00000000000E+00 -0.44885080868E+03  0.44885080868E+03  0.00000000000E+00 0.  1.
      99925    2    1    2    0    0 -0.12374231931E+03 -0.13208830837E+03 -0.29227631666E+03  0.43287017482E+03  0.26304307665E+03 0.  0.
         25    1    1    2    0    0  0.12374231931E+03  0.13208830837E+03  0.53987730989E+02  0.22654285686E+03  0.12509000000E+03 0.  0.
         25    1    3    3    0    0 -0.95573437581E+02 -0.43496171141E+02 -0.15563214305E+03  0.22559935932E+03  0.12509000000E+03 0.  0.
         25    1    3    3    0    0 -0.28168881731E+02 -0.88592137224E+02 -0.13664417362E+03  0.20727081550E+03  0.12509000000E+03 0.  0.
<mgrwt>
<rscale>  2 0.61485291E+03</rscale>
<asrwt>0</asrwt>
<pdfrwt beam="1">  1       21 0.30965034E-01 0.61485291E+03</pdfrwt>
<pdfrwt beam="2">  1       21 0.66007470E-01 0.61485291E+03</pdfrwt>
<totfact> 0.18385419E+04</totfact>
</mgrwt>
</event>
<event>
 6    0  0.1284967E-004  0.4105604E+03  0.7546771E-02  0.1040183E+00
         21   -1    0    0  502  501  0.00000000000E+00  0.00000000000E+00  0.99606350945E+03  0.99606350945E+03  0.00000000000E+00 0.  1.
         21   -1    0    0  501  502 -0.00000000000E+00 -0.00000000000E+00 -0.42306490162E+02  0.42306490162E+02  0.00000000000E+00 0.  1.
      99925    2    1    2    0    0 -0.36001040514E+02  0.18272158436E+02  0.75097797474E+03  0.79671570997E+03  0.26297919554E+03 0.  0.
         25    1    3    3    0    0 -0.46125120289E+02 -0.15358353708E+02  0.33361314987E+03  0.35959511623E+03  0.12509000000E+03 0.  0.
         25    1    3    3    0    0  0.10124079775E+02  0.33630512144E+02  0.41736482486E+03  0.43712059374E+03  0.12509000000E+03 0.  0.
         25    1    1    2    0    0  0.36001040514E+02 -0.18272158436E+02  0.20277904455E+03  0.24165428964E+03  0.12509000000E+03 0.  0.
<mgrwt>
<rscale>  2 0.41056035E+03</rscale>
<asrwt>0</asrwt>
<pdfrwt beam="1">  1       21 0.14647991E+00 0.41056035E+03</pdfrwt>
<pdfrwt beam="2">  1       21 0.62215433E-02 0.41056035E+03</pdfrwt>
<totfact> 0.54209682E+04</totfact>
</mgrwt>
</event>
<event>
 6    0  0.1284967E-004  0.3999084E+03  0.7546771E-02  0.1043811E+00
         21   -1    0    0  502  501  0.00000000000E+00  0.00000000000E+00  0.70628996520E+02  0.70628996520E+02  0.00000000000E+00 0.  1.
         21   -1    0    0  501  502 -0.00000000000E+00 -0.00000000000E+00 -0.56608020100E+03  0.56608020100E+03  0.00000000000E+00 0.  1.
      99925    2    1    2    0    0  0.46428802441E+01  0.39739514475E+02 -0.36446149276E+03  0.45121904138E+03  0.26299364679E+03 0.  0.
         25    1    3    3    0    0  0.28709334191E+02 -0.63286456330E+01 -0.20553326222E+03  0.24239576647E+03  0.12509000000E+03 0.  0.
         25    1    1    2    0    0 -0.46428802441E+01 -0.39739514475E+02 -0.13098971172E+03  0.18549015614E+03  0.12509000000E+03 0.  0.
         25    1    3    3    0    0 -0.24066453947E+02  0.46068160108E+02 -0.15892823054E+03  0.20882327491E+03  0.12509000000E+03 0.  0.
<mgrwt>
<rscale>  2 0.39990837E+03</rscale>
<asrwt>0</asrwt>
<pdfrwt beam="1">  1       21 0.10386617E-01 0.39990837E+03</pdfrwt>
<pdfrwt beam="2">  1       21 0.83247087E-01 0.39990837E+03</pdfrwt>
<totfact> 0.89453732E+04</totfact>
</mgrwt>
</event>
<event>
 6    0  0.1284967E-004  0.4103272E+03  0.7546771E-02  0.1040261E+00
         21   -1    0    0  502  501  0.00000000000E+00  0.00000000000E+00  0.19584472362E+03  0.19584472362E+03  0.00000000000E+00 0. -1.
         21   -1    0    0  501  502 -0.00000000000E+00 -0.00000000000E+00 -0.21492585813E+03  0.21492585813E+03  0.00000000000E+00 0. -1.
      99925    2    1    2    0    0  0.30752650811E+02  0.43818069013E+02  0.20460278322E+02  0.26907802679E+03  0.26290418941E+03 0.  0.
         25    1    3    3    0    0  0.10487918831E+02  0.22386271644E+02 -0.30026122298E+02  0.13099701416E+03  0.12509000000E+03 0.  0.
         25    1    1    2    0    0 -0.30752650811E+02 -0.43818069013E+02 -0.39541412833E+02  0.14169255497E+03  0.12509000000E+03 0.  0.
         25    1    3    3    0    0  0.20264731980E+02  0.21431797369E+02  0.50486400619E+02  0.13808101263E+03  0.12509000000E+03 0.  0.
<mgrwt>
<rscale>  2 0.41032716E+03</rscale>
<asrwt>0</asrwt>
<pdfrwt beam="1">  1       21 0.28800695E-01 0.41032716E+03</pdfrwt>
<pdfrwt beam="2">  1       21 0.31606743E-01 0.41032716E+03</pdfrwt>
<totfact> 0.10447814E+05</totfact>
</mgrwt>
</event>
<event>
 6    0  0.1284967E-004  0.4417482E+03  0.7546771E-02  0.1030212E+00
         21   -1    0    0  502  501  0.00000000000E+00  0.00000000000E+00  0.50316594979E+03  0.50316594979E+03  0.00000000000E+00 0.  1.
         21   -1    0    0  501  502 -0.00000000000E+00 -0.00000000000E+00 -0.96956804536E+02  0.96956804536E+02  0.00000000000E+00 0.  1.
      99925    2    1    2    0    0 -0.15948134476E+02  0.96984086286E+02  0.28484953848E+03  0.40003297887E+03  0.26310999339E+03 0.  0.
         25    1    1    2    0    0  0.15948134476E+02 -0.96984086286E+02  0.12135960677E+03  0.20008977545E+03  0.12509000000E+03 0.  0.
         25    1    3    3    0    0 -0.31956827202E+01  0.64745463517E+02  0.94536245876E+02  0.16966672425E+03  0.12509000000E+03 0.  0.
         25    1    3    3    0    0 -0.12752451755E+02  0.32238622769E+02  0.19031329261E+03  0.23036625462E+03  0.12509000000E+03 0.  0.
<mgrwt>
<rscale>  2 0.44174818E+03</rscale>
<asrwt>0</asrwt>
<pdfrwt beam="1">  1       21 0.73994992E-01 0.44174818E+03</pdfrwt>
<pdfrwt beam="2">  1       21 0.14258354E-01 0.44174818E+03</pdfrwt>
<totfact> 0.65237377E+04</totfact>
</mgrwt>
</event>
<event>
 6    0  0.1284967E-004  0.3910951E+03  0.7546771E-02  0.1046907E+00
         21   -1    0    0  502  501  0.00000000000E+00  0.00000000000E+00  0.83201784948E+02  0.83201784948E+02  0.00000000000E+00 0.  1.
         21   -1    0    0  501  502 -0.00000000000E+00 -0.00000000000E+00 -0.45959169367E+03  0.45959169367E+03  0.00000000000E+00 0.  1.
      99925    2    1    2    0    0  0.22501515509E+02 -0.56099603736E+01 -0.26219018450E+03  0.37183478487E+03  0.26263972383E+03 0.  0.
         25    1    3    3    0    0  0.22273741207E+02 -0.70314313609E+01 -0.78250310841E+02  0.14938600946E+03  0.12509000000E+03 0.  0.
         25    1    3    3    0    0  0.22777430188E+00  0.14214709873E+01 -0.18393987366E+03  0.22244877541E+03  0.12509000000E+03 0.  0.
         25    1    1    2    0    0 -0.22501515509E+02  0.56099603736E+01 -0.11419972422E+03  0.17095869375E+03  0.12509000000E+03 0.  0.
<mgrwt>
<rscale>  2 0.39109513E+03</rscale>
<asrwt>0</asrwt>
<pdfrwt beam="1">  1       21 0.12235557E-01 0.39109513E+03</pdfrwt>
<pdfrwt beam="2">  1       21 0.67587012E-01 0.39109513E+03</pdfrwt>
<totfact> 0.10704989E+05</totfact>
</mgrwt>
</event>
<event>
 6    0  0.1284967E-004  0.4430451E+03  0.7546771E-02  0.1029817E+00
         21   -1    0    0  502  501  0.00000000000E+00  0.00000000000E+00  0.76255345949E+02  0.76255345949E+02  0.00000000000E+00 0.  1.
         21   -1    0    0  501  502 -0.00000000000E+00 -0.00000000000E+00 -0.64352535070E+03  0.64352535070E+03  0.00000000000E+00 0.  1.
      99925    2    1    2    0    0  0.34228997577E+02 -0.62069050518E+02 -0.24274513854E+03  0.36483268891E+03  0.26297052555E+03 0.  0.
         25    1    3    3    0    0 -0.96629290311E+01 -0.58463121105E+02 -0.10598082404E+03  0.17432943495E+03  0.12509000000E+03 0.  0.
         25    1    3    3    0    0  0.43891926608E+02 -0.36059294132E+01 -0.13676431450E+03  0.19050325396E+03  0.12509000000E+03 0.  0.
         25    1    1    2    0    0 -0.34228997577E+02  0.62069050518E+02 -0.32452486620E+03  0.35494800773E+03  0.12509000000E+03 0.  0.
<mgrwt>
<rscale>  2 0.44304514E+03</rscale>
<asrwt>0</asrwt>
<pdfrwt beam="1">  1       21 0.11214022E-01 0.44304514E+03</pdfrwt>
<pdfrwt beam="2">  1       21 0.94636075E-01 0.44304514E+03</pdfrwt>
<totfact> 0.57017384E+04</totfact>
</mgrwt>
</event>
<event>
 6    0  0.1284967E-004  0.4126904E+03  0.7546771E-02  0.1039472E+00
         21   -1    0    0  502  501  0.00000000000E+00  0.00000000000E+00  0.61644767061E+02  0.61644767061E+02  0.00000000000E+00 0. -1.
         21   -1    0    0  501  502 -0.00000000000E+00 -0.00000000000E+00 -0.69070500205E+03  0.69070500205E+03  0.00000000000E+00 0. -1.
      99925    2    1    2    0    0 -0.42136564904E+02  0.17339294080E+02 -0.50079237270E+03  0.56748145431E+03  0.26299440908E+03 0.  0.
         25    1    3    3    0    0 -0.10113769745E+02 -0.29356308681E+02 -0.26331213416E+03  0.29316355383E+03  0.12509000000E+03 0.  0.
         25    1    1    2    0    0  0.42136564904E+02 -0.17339294080E+02 -0.12826786229E+03  0.18486831480E+03  0.12509000000E+03 0.  0.
         25    1    3    3    0    0 -0.32022795159E+02  0.46695602761E+02 -0.23748023854E+03  0.27431790048E+03  0.12509000000E+03 0.  0.
<mgrwt>
<rscale>  2 0.41269044E+03</rscale>
<asrwt>0</asrwt>
<pdfrwt beam="1">  1       21 0.90654064E-02 0.41269044E+03</pdfrwt>
<pdfrwt beam="2">  1       21 0.10157427E+00 0.41269044E+03</pdfrwt>
<totfact> 0.70952836E+04</totfact>
</mgrwt>
</event>
<event>
 6    0  0.1284967E-004  0.4205660E+03  0.7546771E-02  0.1036882E+00
         21   -1    0    0  502  501  0.00000000000E+00  0.00000000000E+00  0.21336362147E+03  0.21336362147E+03  0.00000000000E+00 0.  1.
         21   -1    0    0  501  502 -0.00000000000E+00 -0.00000000000E+00 -0.20724684423E+03  0.20724684423E+03  0.00000000000E+00 0.  1.
      99925    2    1    2    0    0 -0.44065704258E+02 -0.51239447545E+02 -0.32321369132E+02  0.27332751871E+03  0.26286116926E+03 0.  0.
         25    1    3    3    0    0 -0.44298987920E+01 -0.50612116206E+02 -0.42940284825E+02  0.14167775574E+03  0.12509000000E+03 0.  0.
         25    1    3    3    0    0 -0.39635805466E+02 -0.62733133881E+00  0.10618915693E+02  0.13164976297E+03  0.12509000000E+03 0.  0.
         25    1    1    2    0    0  0.44065704258E+02  0.51239447545E+02  0.38438146375E+02  0.14728294699E+03  0.12509000000E+03 0.  0.
<mgrwt>
<rscale>  2 0.42056599E+03</rscale>
<asrwt>0</asrwt>
<pdfrwt beam="1">  1       21 0.31377003E-01 0.42056599E+03</pdfrwt>
<pdfrwt beam="2">  1       21 0.30477477E-01 0.42056599E+03</pdfrwt>
<totfact> 0.94576208E+04</totfact>
</mgrwt>
</event>
<event>
 6    0  0.1284967E-004  0.3952390E+03  0.7546771E-02  0.1045441E+00
         21   -1    0    0  502  501  0.00000000000E+00  0.00000000000E+00  0.53251099780E+02  0.53251099780E+02  0.00000000000E+00 0.  1.
         21   -1    0    0  501  502 -0.00000000000E+00 -0.00000000000E+00 -0.73338325834E+03  0.73338325834E+03  0.00000000000E+00 0.  1.
      99925    2    1    2    0    0 -0.12335737814E+02  0.13629340891E+02 -0.51597026131E+03  0.57942778011E+03  0.26300819844E+03 0.  0.
         25    1    3    3    0    0  0.22389785138E+02  0.11207847151E+02 -0.19318125603E+03  0.23150253583E+03  0.12509000000E+03 0.  0.
         25    1    1    2    0    0  0.12335737814E+02 -0.13629340891E+02 -0.16416189725E+03  0.20720657800E+03  0.12509000000E+03 0.  0.
         25    1    3    3    0    0 -0.34725522952E+02  0.24214937398E+01 -0.32278900528E+03  0.34792524428E+03  0.12509000000E+03 0.  0.
<mgrwt>
<rscale>  2 0.39523899E+03</rscale>
<asrwt>0</asrwt>
<pdfrwt beam="1">  1       21 0.78310439E-02 0.39523899E+03</pdfrwt>
<pdfrwt beam="2">  1       21 0.10785048E+00 0.39523899E+03</pdfrwt>
<totfact> 0.79747206E+04</totfact>
</mgrwt>
</event>
<event>
 6    0  0.1284967E-004  0.3899085E+03  0.7546771E-02  0.1047331E+00
         21   -1    0    0  502  501  0.00000000000E+00  0.00000000000E+00  0.15255606494E+02  0.15255606494E+02  0.00000000000E+00 0. -1.
         21   -1    0    0  501  502 -0.00000000000E+00 -0.00000000000E+00 -0.24913564487E+04  0.24913564487E+04  0.00000000000E+00 0. -1.
      99925    2    1    2    0    0  0.16949407062E+02 -0.62867321343E+00 -0.16978878302E+04  0.17182272014E+04  0.26304743652E+03 0.  0.
         25    1    3    3    0    0 -0.39181608168E+01 -0.13980449938E+01 -0.59163333235E+03  0.60472705790E+03  0.12509000000E+03 0.  0.
         25    1    1    2    0    0 -0.16949407062E+02  0.62867321343E+00 -0.77821301203E+03  0.78838485387E+03  0.12509000000E+03 0.  0.
         25    1    3    3    0    0  0.20867567879E+02  0.76937178042E+00 -0.11062544979E+04  0.11135001435E+04  0.12509000000E+03 0.  0.
<mgrwt>
<rscale>  2 0.38990847E+03</rscale>
<asrwt>0</asrwt>
<pdfrwt beam="1">  1       21 0.22434744E-02 0.38990847E+03</pdfrwt>
<pdfrwt beam="2">  1       21 0.36637549E+00 0.38990847E+03</pdfrwt>
<totfact> 0.12152088E+04</totfact>
</mgrwt>
</event>
<event>
 6    0  0.1284967E-004  0.4338579E+03  0.7546771E-02  0.1032648E+00
         21   -1    0    0  502  501  0.00000000000E+00  0.00000000000E+00  0.80310054551E+03  0.80310054551E+03  0.00000000000E+00 0.  1.
         21   -1    0    0  501  502 -0.00000000000E+00 -0.00000000000E+00 -0.58595609954E+02  0.58595609954E+02  0.00000000000E+00 0.  1.
      99925    2    1    2    0    0  0.55087122395E+01  0.20182980587E+02  0.30039661233E+03  0.39983317851E+03  0.26304134148E+03 0.  0.
         25    1    1    2    0    0 -0.55087122395E+01 -0.20182980587E+02  0.44410832322E+03  0.46186297694E+03  0.12509000000E+03 0.  0.
         25    1    3    3    0    0 -0.37469806918E+02  0.15470344991E+02  0.14689753486E+03  0.19715403078E+03  0.12509000000E+03 0.  0.
         25    1    3    3    0    0  0.42978519157E+02  0.47126355964E+01  0.15349907747E+03  0.20267914774E+03  0.12509000000E+03 0.  0.
<mgrwt>
<rscale>  2 0.43385789E+03</rscale>
<asrwt>0</asrwt>
<pdfrwt beam="1">  1       21 0.11810301E+00 0.43385789E+03</pdfrwt>
<pdfrwt beam="2">  1       21 0.86170020E-02 0.43385789E+03</pdfrwt>
<totfact> 0.53208090E+04</totfact>
</mgrwt>
</event>
<event>
 6    0  0.1284967E-004  0.4147198E+03  0.7546771E-02  0.1038799E+00
         21   -1    0    0  502  501  0.00000000000E+00  0.00000000000E+00  0.78278251500E+02  0.78278251500E+02  0.00000000000E+00 0. -1.
         21   -1    0    0  501  502 -0.00000000000E+00 -0.00000000000E+00 -0.54929863188E+03  0.54929863188E+03  0.00000000000E+00 0. -1.
      99925    2    1    2    0    0 -0.34412373110E+02 -0.58545573944E+02 -0.32538551228E+03  0.42393794173E+03  0.26312706281E+03 0.  0.
         25    1    1    2    0    0  0.34412373110E+02  0.58545573944E+02 -0.14563486810E+03  0.20363894165E+03  0.12509000000E+03 0.  0.
         25    1    3    3    0    0 -0.41019974283E+02 -0.27064748231E+01 -0.19049167352E+03  0.23156974992E+03  0.12509000000E+03 0.  0.
         25    1    3    3    0    0  0.66076011734E+01 -0.55839099121E+02 -0.13489383876E+03  0.19236819181E+03  0.12509000000E+03 0.  0.
<mgrwt>
<rscale>  2 0.41471984E+03</rscale>
<asrwt>0</asrwt>
<pdfrwt beam="1">  1       21 0.11511507E-01 0.41471984E+03</pdfrwt>
<pdfrwt beam="2">  1       21 0.80779214E-01 0.41471984E+03</pdfrwt>
<totfact> 0.79391193E+04</totfact>
</mgrwt>
</event>
<event>
 6    0  0.1284967E-004  0.4208655E+03  0.7546771E-02  0.1036785E+00
         21   -1    0    0  502  501  0.00000000000E+00  0.00000000000E+00  0.13157808930E+03  0.13157808930E+03  0.00000000000E+00 0. -1.
         21   -1    0    0  501  502 -0.00000000000E+00 -0.00000000000E+00 -0.33654497694E+03  0.33654497694E+03  0.00000000000E+00 0. -1.
      99925    2    1    2    0    0 -0.70164432457E+02  0.30327358018E+02 -0.14252101072E+03  0.30878132070E+03  0.26304157331E+03 0.  0.
         25    1    3    3    0    0 -0.29845119796E+02 -0.14413584870E+02 -0.37593355710E+02  0.13475626552E+03  0.12509000000E+03 0.  0.
         25    1    3    3    0    0 -0.40319312661E+02  0.44740942888E+02 -0.10492765501E+03  0.17402505518E+03  0.12509000000E+03 0.  0.
         25    1    1    2    0    0  0.70164432457E+02 -0.30327358018E+02 -0.62445876923E+02  0.15934174554E+03  0.12509000000E+03 0.  0.
<mgrwt>
<rscale>  2 0.42086551E+03</rscale>
<asrwt>0</asrwt>
<pdfrwt beam="1">  1       21 0.19349720E-01 0.42086551E+03</pdfrwt>
<pdfrwt beam="2">  1       21 0.49491907E-01 0.42086551E+03</pdfrwt>
<totfact> 0.89468684E+04</totfact>
</mgrwt>
</event>
<event>
 6    0  0.1284967E-004  0.4427828E+03  0.7546771E-02  0.1029896E+00
         21   -1    0    0  502  501  0.00000000000E+00  0.00000000000E+00  0.10706992731E+03  0.10706992731E+03  0.00000000000E+00 0. -1.
         21   -1    0    0  501  502 -0.00000000000E+00 -0.00000000000E+00 -0.45777695273E+03  0.45777695273E+03  0.00000000000E+00 0. -1.
      99925    2    1    2    0    0  0.94635883291E+02  0.35462121846E+02 -0.23230784175E+03  0.36514863948E+03  0.26296973796E+03 0.  0.
         25    1    3    3    0    0  0.73909570457E+02  0.37555943856E+02 -0.15915795889E+03  0.21875062858E+03  0.12509000000E+03 0.  0.
         25    1    3    3    0    0  0.20726312835E+02 -0.20938220101E+01 -0.73149882861E+02  0.14639801091E+03  0.12509000000E+03 0.  0.
         25    1    1    2    0    0 -0.94635883291E+02 -0.35462121846E+02 -0.11839918366E+03  0.19969824056E+03  0.12509000000E+03 0.  0.
<mgrwt>
<rscale>  2 0.44278277E+03</rscale>
<asrwt>0</asrwt>
<pdfrwt beam="1">  1       21 0.15745578E-01 0.44278277E+03</pdfrwt>
<pdfrwt beam="2">  1       21 0.67320139E-01 0.44278277E+03</pdfrwt>
<totfact> 0.67153007E+04</totfact>
</mgrwt>
</event>
<event>
 6    0  0.1284967E-004  0.4161652E+03  0.7546771E-02  0.1038322E+00
         21   -1    0    0  502  501  0.00000000000E+00  0.00000000000E+00  0.56598066249E+03  0.56598066249E+03  0.00000000000E+00 0. -1.
         21   -1    0    0  501  502 -0.00000000000E+00 -0.00000000000E+00 -0.76501512369E+02  0.76501512369E+02  0.00000000000E+00 0. -1.
      99925    2    1    2    0    0  0.31641063797E+02 -0.52933247468E+02  0.37431168072E+03  0.46161166949E+03  0.26300763007E+03 0.  0.
         25    1    3    3    0    0  0.20526304047E+02 -0.65861539621E+02  0.21883720473E+03  0.26133561149E+03  0.12509000000E+03 0.  0.
         25    1    3    3    0    0  0.11114759750E+02  0.12928292153E+02  0.15547447599E+03  0.20027605800E+03  0.12509000000E+03 0.  0.
         25    1    1    2    0    0 -0.31641063797E+02  0.52933247468E+02  0.11516746940E+03  0.18087050537E+03  0.12509000000E+03 0.  0.
<mgrwt>
<rscale>  2 0.41616524E+03</rscale>
<asrwt>0</asrwt>
<pdfrwt beam="1">  1       21 0.83232448E-01 0.41616524E+03</pdfrwt>
<pdfrwt beam="2">  1       21 0.11250223E-01 0.41616524E+03</pdfrwt>
<totfact> 0.77196510E+04</totfact>
</mgrwt>
</event>
<event>
 6    0  0.1284967E-004  0.5546714E+03  0.7546771E-02  0.1000418E+00
         21   -1    0    0  502  501  0.00000000000E+00  0.00000000000E+00  0.22120377100E+04  0.22120377100E+04  0.00000000000E+00 0. -1.
         21   -1    0    0  501  502 -0.00000000000E+00 -0.00000000000E+00 -0.34771144435E+02  0.34771144435E+02  0.00000000000E+00 0. -1.
      99925    2    1    2    0    0  0.16632369932E+03 -0.88717922533E+02  0.14240402697E+04  0.14603409253E+04  0.26300282420E+03 0.  0.
         25    1    3    3    0    0  0.12525041144E+03 -0.62287611122E+02  0.90122549616E+03  0.92055543836E+03  0.12509000000E+03 0.  0.
         25    1    1    2    0    0 -0.16632369932E+03  0.88717922533E+02  0.75322629583E+03  0.78646792914E+03  0.12509000000E+03 0.  0.
         25    1    3    3    0    0  0.41073287877E+02 -0.26430311410E+02  0.52281477354E+03  0.53978548690E+03  0.12509000000E+03 0.  0.
<mgrwt>
<rscale>  2 0.55467137E+03</rscale>
<asrwt>0</asrwt>
<pdfrwt beam="1">  1       21 0.32529957E+00 0.55467137E+03</pdfrwt>
<pdfrwt beam="2">  1       21 0.51134051E-02 0.55467137E+03</pdfrwt>
<totfact> 0.49781123E+03</totfact>
</mgrwt>
</event>
<event>
 6    0  0.1284967E-004  0.4017944E+03  0.7546771E-02  0.1043160E+00
         21   -1    0    0  502  501  0.00000000000E+00  0.00000000000E+00  0.21026512553E+04  0.21026512553E+04  0.00000000000E+00 0. -1.
         21   -1    0    0  501  502 -0.00000000000E+00 -0.00000000000E+00 -0.19194664904E+02  0.19194664904E+02  0.00000000000E+00 0. -1.
      99925    2    1    2    0    0  0.15574378204E+02 -0.30099089137E+02  0.11999372140E+04  0.12288719492E+04  0.26292286593E+03 0.  0.
         25    1    3    3    0    0  0.26185464401E+02 -0.45538869805E+02  0.52932203627E+03  0.54643278946E+03  0.12509000000E+03 0.  0.
         25    1    1    2    0    0 -0.15574378204E+02  0.30099089137E+02  0.88351937637E+03  0.89297397104E+03  0.12509000000E+03 0.  0.
         25    1    3    3    0    0 -0.10611086197E+02  0.15439780669E+02  0.67061517775E+03  0.68243915971E+03  0.12509000000E+03 0.  0.
<mgrwt>
<rscale>  2 0.40179441E+03</rscale>
<asrwt>0</asrwt>
<pdfrwt beam="1">  1       21 0.30921326E+00 0.40179441E+03</pdfrwt>
<pdfrwt beam="2">  1       21 0.28227463E-02 0.40179441E+03</pdfrwt>
<totfact> 0.18294064E+04</totfact>
</mgrwt>
</event>
<event>
 6    0  0.1284967E-004  0.4000019E+03  0.7546771E-02  0.1043779E+00
         21   -1    0    0  502  501  0.00000000000E+00  0.00000000000E+00  0.77542489705E+02  0.77542489705E+02  0.00000000000E+00 0. -1.
         21   -1    0    0  501  502 -0.00000000000E+00 -0.00000000000E+00 -0.51585110942E+03  0.51585110942E+03  0.00000000000E+00 0. -1.
      99925    2    1    2    0    0  0.17780411554E+02  0.20387397251E+02 -0.23846356097E+03  0.35608084218E+03  0.26305305027E+03 0.  0.
         25    1    3    3    0    0 -0.15149851087E+02  0.41530440523E+02 -0.13289939894E+03  0.18778725680E+03  0.12509000000E+03 0.  0.
         25    1    1    2    0    0 -0.17780411554E+02 -0.20387397251E+02 -0.19984505875E+03  0.23731275694E+03  0.12509000000E+03 0.  0.
         25    1    3    3    0    0  0.32930262640E+02 -0.21143043271E+02 -0.10556416203E+03  0.16829358538E+03  0.12509000000E+03 0.  0.
<mgrwt>
<rscale>  2 0.40000190E+03</rscale>
<asrwt>0</asrwt>
<pdfrwt beam="1">  1       21 0.11403307E-01 0.40000190E+03</pdfrwt>
<pdfrwt beam="2">  1       21 0.75860458E-01 0.40000190E+03</pdfrwt>
<totfact> 0.93586469E+04</totfact>
</mgrwt>
</event>
<event>
 6    0  0.1284967E-004  0.3908125E+03  0.7546771E-02  0.1047008E+00
         21   -1    0    0  502  501  0.00000000000E+00  0.00000000000E+00  0.74701456033E+02  0.74701456033E+02  0.00000000000E+00 0. -1.
         21   -1    0    0  501  502 -0.00000000000E+00 -0.00000000000E+00 -0.51114935405E+03  0.51114935405E+03  0.00000000000E+00 0. -1.
      99925    2    1    2    0    0  0.21532968058E+02  0.39432694562E+01 -0.29442636408E+03  0.39533350827E+03  0.26291154560E+03 0.  0.
         25    1    3    3    0    0  0.40811121404E+02 -0.16090894091E+02 -0.11934577016E+03  0.17836867847E+03  0.12509000000E+03 0.  0.
         25    1    3    3    0    0 -0.19278153346E+02  0.20034163547E+02 -0.17508059391E+03  0.21696482980E+03  0.12509000000E+03 0.  0.
         25    1    1    2    0    0 -0.21532968058E+02 -0.39432694562E+01 -0.14202153394E+03  0.19051730181E+03  0.12509000000E+03 0.  0.
<mgrwt>
<rscale>  2 0.39081249E+03</rscale>
<asrwt>0</asrwt>
<pdfrwt beam="1">  1       21 0.10985508E-01 0.39081249E+03</pdfrwt>
<pdfrwt beam="2">  1       21 0.75169023E-01 0.39081249E+03</pdfrwt>
<totfact> 0.10243620E+05</totfact>
</mgrwt>
</event>
<event>
 6    0  0.1284967E-004  0.4511265E+03  0.7546771E-02  0.1027387E+00
         21   -1    0    0  502  501  0.00000000000E+00  0.00000000000E+00  0.22396549389E+03  0.22396549389E+03  0.00000000000E+00 0.  1.
         21   -1    0    0  501  502 -0.00000000000E+00 -0.00000000000E+00 -0.22717239347E+03  0.22717239347E+03  0.00000000000E+00 0.  1.
      99925    2    1    2    0    0  0.99429426773E+02 -0.21125548721E+02 -0.42805710825E+02  0.28516176356E+03  0.26296844450E+03 0.  0.
         25    1    3    3    0    0  0.19256354796E+02  0.10724392930E+02 -0.40058580342E+02  0.13318414982E+03  0.12509000000E+03 0.  0.
         25    1    1    2    0    0 -0.99429426773E+02  0.21125548721E+02  0.39598811248E+02  0.16597612379E+03  0.12509000000E+03 0.  0.
         25    1    3    3    0    0  0.80173071977E+02 -0.31849941652E+02 -0.27471304829E+01  0.15197761374E+03  0.12509000000E+03 0.  0.
<mgrwt>
<rscale>  2 0.45112649E+03</rscale>
<asrwt>0</asrwt>
<pdfrwt beam="1">  1       21 0.32936102E-01 0.45112649E+03</pdfrwt>
<pdfrwt beam="2">  1       21 0.33407705E-01 0.45112649E+03</pdfrwt>
<totfact> 0.70998742E+04</totfact>
</mgrwt>
</event>
<event>
 6    0  0.1284967E-004  0.4101852E+03  0.7546771E-02  0.1040309E+00
         21   -1    0    0  502  501  0.00000000000E+00  0.00000000000E+00  0.16525080540E+04  0.16525080540E+04  0.00000000000E+00 0. -1.
         21   -1    0    0  501  502 -0.00000000000E+00 -0.00000000000E+00 -0.25454026900E+02  0.25454026900E+02  0.00000000000E+00 0. -1.
      99925    2    1    2    0    0 -0.52549140778E+02  0.21531183083E+02  0.11758721375E+04  0.12063291625E+04  0.26330545133E+03 0.  0.
         25    1    3    3    0    0  0.66006984753E+01  0.91604806042E+01  0.67306204245E+03  0.68468058590E+03  0.12509000000E+03 0.  0.
         25    1    1    2    0    0  0.52549140778E+02 -0.21531183083E+02  0.45118188963E+03  0.47163291835E+03  0.12509000000E+03 0.  0.
         25    1    3    3    0    0 -0.59149839254E+02  0.12370702479E+02  0.50281009501E+03  0.52164857663E+03  0.12509000000E+03 0.  0.
<mgrwt>
<rscale>  2 0.41018525E+03</rscale>
<asrwt>0</asrwt>
<pdfrwt beam="1">  1       21 0.24301582E+00 0.41018525E+03</pdfrwt>
<pdfrwt beam="2">  1       21 0.37432404E-02 0.41018525E+03</pdfrwt>
<totfact> 0.28389767E+04</totfact>
</mgrwt>
</event>
<event>
 6    0  0.1284967E-004  0.4368542E+03  0.7546771E-02  0.1031716E+00
         21   -1    0    0  502  501  0.00000000000E+00  0.00000000000E+00  0.12083402361E+04  0.12083402361E+04  0.00000000000E+00 0. -1.
         21   -1    0    0  501  502 -0.00000000000E+00 -0.00000000000E+00 -0.39484234009E+02  0.39484234009E+02  0.00000000000E+00 0. -1.
      99925    2    1    2    0    0  0.94757977021E+02 -0.44855852702E+01  0.77079790135E+03  0.81992617103E+03  0.26296449673E+03 0.  0.
         25    1    3    3    0    0  0.88768472097E+01  0.16077381617E+02  0.34958875622E+03  0.37174868822E+03  0.12509000000E+03 0.  0.
         25    1    3    3    0    0  0.85881129811E+02 -0.20562966887E+02  0.42120914512E+03  0.44817748281E+03  0.12509000000E+03 0.  0.
         25    1    1    2    0    0 -0.94757977021E+02  0.44855852702E+01  0.39805810077E+03  0.42789829910E+03  0.12509000000E+03 0.  0.
<mgrwt>
<rscale>  2 0.43685416E+03</rscale>
<asrwt>0</asrwt>
<pdfrwt beam="1">  1       21 0.17769707E+00 0.43685416E+03</pdfrwt>
<pdfrwt beam="2">  1       21 0.58065058E-02 0.43685416E+03</pdfrwt>
<totfact> 0.35410706E+04</totfact>
</mgrwt>
</event>
<event>
 6    0  0.1284967E-004  0.4011329E+03  0.7546771E-02  0.1043388E+00
         21   -1    0    0  502  501  0.00000000000E+00  0.00000000000E+00  0.77380081338E+02  0.77380081338E+02  0.00000000000E+00 0.  1.
         21   -1    0    0  501  502 -0.00000000000E+00 -0.00000000000E+00 -0.51986106213E+03  0.51986106213E+03  0.00000000000E+00 0.  1.
      99925    2    1    2    0    0 -0.95105206286E+01 -0.25209136539E+02 -0.35300308440E+03  0.44110097371E+03  0.26312153247E+03 0.  0.
         25    1    1    2    0    0  0.95105206286E+01  0.25209136539E+02 -0.89477896393E+02  0.15614016975E+03  0.12509000000E+03 0.  0.
         25    1    3    3    0    0  0.83664445670E+01 -0.25144430689E+02 -0.23832804502E+03  0.27046257584E+03  0.12509000000E+03 0.  0.
         25    1    3    3    0    0 -0.17876965196E+02 -0.64705850305E-01 -0.11467503938E+03  0.17063839787E+03  0.12509000000E+03 0.  0.
<mgrwt>
<rscale>  2 0.40113285E+03</rscale>
<asrwt>0</asrwt>
<pdfrwt beam="1">  1       21 0.11379424E-01 0.40113285E+03</pdfrwt>
<pdfrwt beam="2">  1       21 0.76450154E-01 0.40113285E+03</pdfrwt>
<totfact> 0.92274651E+04</totfact>
</mgrwt>
</event>
<event>
 6    0  0.1284967E-004  0.3932734E+03  0.7546771E-02  0.1046134E+00
         21   -1    0    0  502  501  0.00000000000E+00  0.00000000000E+00  0.47501755601E+03  0.47501755601E+03  0.00000000000E+00 0. -1.
         21   -1    0    0  501  502 -0.00000000000E+00 -0.00000000000E+00 -0.81399086261E+02  0.81399086261E+02  0.00000000000E+00 0. -1.
      99925    2    1    2    0    0 -0.28953843820E+02  0.13017458387E+01  0.25503000618E+03  0.36748731700E+03  0.26299544575E+03 0.  0.
         25    1    1    2    0    0  0.28953843820E+02 -0.13017458387E+01  0.13858846357E+03  0.18892932527E+03  0.12509000000E+03 0.  0.
         25    1    3    3    0    0  0.11029987392E+02  0.13425241942E+02  0.84683617081E+02  0.15205499283E+03  0.12509000000E+03 0.  0.
         25    1    3    3    0    0 -0.39983831212E+02 -0.12123496103E+02  0.17034638910E+03  0.21543232416E+03  0.12509000000E+03 0.  0.
<mgrwt>
<rscale>  2 0.39327342E+03</rscale>
<asrwt>0</asrwt>
<pdfrwt beam="1">  1       21 0.69855522E-01 0.39327342E+03</pdfrwt>
<pdfrwt beam="2">  1       21 0.11970454E-01 0.39327342E+03</pdfrwt>
<totfact> 0.10342039E+05</totfact>
</mgrwt>
</event>
<event>
 6    0  0.1284967E-004  0.4074406E+03  0.7546771E-02  0.1041233E+00
         21   -1    0    0  502  501  0.00000000000E+00  0.00000000000E+00  0.25214222174E+03  0.25214222174E+03  0.00000000000E+00 0. -1.
         21   -1    0    0  501  502 -0.00000000000E+00 -0.00000000000E+00 -0.16459743146E+03  0.16459743146E+03  0.00000000000E+00 0. -1.
      99925    2    1    2    0    0  0.30489937118E+02  0.28580463793E+02  0.99618287049E+02  0.28430190707E+03  0.26297774064E+03 0.  0.
         25    1    3    3    0    0  0.34145873283E+02  0.33567026200E+02  0.83968728206E+02  0.15808523437E+03  0.12509000000E+03 0.  0.
         25    1    3    3    0    0 -0.36559361652E+01 -0.49865624073E+01  0.15649558843E+02  0.12621667269E+03  0.12509000000E+03 0.  0.
         25    1    1    2    0    0 -0.30489937118E+02 -0.28580463793E+02 -0.12073496763E+02  0.13243774613E+03  0.12509000000E+03 0.  0.
<mgrwt>
<rscale>  2 0.40744061E+03</rscale>
<asrwt>0</asrwt>
<pdfrwt beam="1">  1       21 0.37079738E-01 0.40744061E+03</pdfrwt>
<pdfrwt beam="2">  1       21 0.24205505E-01 0.40744061E+03</pdfrwt>
<totfact> 0.10643092E+05</totfact>
</mgrwt>
</event>
<event>
 6    0  0.1284967E-004  0.4298215E+03  0.7546771E-02  0.1033916E+00
         21   -1    0    0  502  501  0.00000000000E+00  0.00000000000E+00  0.23462800216E+02  0.23462800216E+02  0.00000000000E+00 0. -1.
         21   -1    0    0  501  502 -0.00000000000E+00 -0.00000000000E+00 -0.19685048764E+04  0.19685048764E+04  0.00000000000E+00 0. -1.
      99925    2    1    2    0    0  0.60491249614E+01 -0.79800643368E+02 -0.10912122506E+04  0.11253203356E+04  0.26305312617E+03 0.  0.
         25    1    1    2    0    0 -0.60491249614E+01  0.79800643368E+02 -0.85382982558E+03  0.86664734105E+03  0.12509000000E+03 0.  0.
         25    1    3    3    0    0  0.34856632718E+02 -0.53877473501E+02 -0.47616221549E+03  0.49648336383E+03  0.12509000000E+03 0.  0.
         25    1    3    3    0    0 -0.28807507757E+02 -0.25923169867E+02 -0.61505003515E+03  0.62883697178E+03  0.12509000000E+03 0.  0.
<mgrwt>
<rscale>  2 0.42982153E+03</rscale>
<asrwt>0</asrwt>
<pdfrwt beam="1">  1       21 0.34504115E-02 0.42982153E+03</pdfrwt>
<pdfrwt beam="2">  1       21 0.28948603E+00 0.42982153E+03</pdfrwt>
<totfact> 0.16913396E+04</totfact>
</mgrwt>
</event>
<event>
 6    0  0.1284967E-004  0.3968181E+03  0.7546771E-02  0.1044887E+00
         21   -1    0    0  502  501  0.00000000000E+00  0.00000000000E+00  0.28381054711E+03  0.28381054711E+03  0.00000000000E+00 0.  1.
         21   -1    0    0  501  502 -0.00000000000E+00 -0.00000000000E+00 -0.13870571235E+03  0.13870571235E+03  0.00000000000E+00 0.  1.
      99925    2    1    2    0    0  0.16681509903E+02  0.28682393286E+02  0.75594470529E+02  0.27561441708E+03  0.26295975067E+03 0.  0.
         25    1    3    3    0    0  0.25019733139E+02  0.55350137721E+01  0.56696948284E+00  0.12768889137E+03  0.12509000000E+03 0.  0.
         25    1    1    2    0    0 -0.16681509903E+02 -0.28682393286E+02  0.69510364231E+02  0.14690184237E+03  0.12509000000E+03 0.  0.
         25    1    3    3    0    0 -0.83382232365E+01  0.23147379514E+02  0.75027501046E+02  0.14792552572E+03  0.12509000000E+03 0.  0.
<mgrwt>
<rscale>  2 0.39681806E+03</rscale>
<asrwt>0</asrwt>
<pdfrwt beam="1">  1       21 0.41736845E-01 0.39681806E+03</pdfrwt>
<pdfrwt beam="2">  1       21 0.20397899E-01 0.39681806E+03</pdfrwt>
<totfact> 0.11620820E+05</totfact>
</mgrwt>
</event>
<event>
 6    0  0.1284967E-004  0.4184009E+03  0.7546771E-02  0.1037588E+00
         21   -1    0    0  502  501  0.00000000000E+00  0.00000000000E+00  0.36091107544E+03  0.36091107544E+03  0.00000000000E+00 0.  1.
         21   -1    0    0  501  502 -0.00000000000E+00 -0.00000000000E+00 -0.12126205373E+03  0.12126205373E+03  0.00000000000E+00 0.  1.
      99925    2    1    2    0    0 -0.25485008031E+02  0.68024481474E+02  0.14447916663E+03  0.30902110022E+03  0.26333058136E+03 0.  0.
         25    1    3    3    0    0 -0.33123076642E+02  0.34183136596E+02  0.32848123365E+02  0.13781194557E+03  0.12509000000E+03 0.  0.
         25    1    3    3    0    0  0.76380686113E+01  0.33841344878E+02  0.11163104327E+03  0.17120915465E+03  0.12509000000E+03 0.  0.
         25    1    1    2    0    0  0.25485008031E+02 -0.68024481474E+02  0.95169855079E+02  0.17315202895E+03  0.12509000000E+03 0.  0.
<mgrwt>
<rscale>  2 0.41840085E+03</rscale>
<asrwt>0</asrwt>
<pdfrwt beam="1">  1       21 0.53075158E-01 0.41840085E+03</pdfrwt>
<pdfrwt beam="2">  1       21 0.17832655E-01 0.41840085E+03</pdfrwt>
<totfact> 0.89966454E+04</totfact>
</mgrwt>
</event>
<event>
 6    0  0.1284967E-004  0.4990890E+03  0.7546771E-02  0.1014017E+00
         21   -1    0    0  502  501  0.00000000000E+00  0.00000000000E+00  0.57066092997E+03  0.57066092997E+03  0.00000000000E+00 0.  1.
         21   -1    0    0  501  502 -0.00000000000E+00 -0.00000000000E+00 -0.10912338270E+03  0.10912338270E+03  0.00000000000E+00 0.  1.
      99925    2    1    2    0    0  0.82911530393E+01  0.13213307067E+03  0.18208491989E+03  0.34621397431E+03  0.26302339510E+03 0.  0.
         25    1    3    3    0    0  0.41267448245E+02  0.52514787028E+02  0.75513797828E+02  0.16065692299E+03  0.12509000000E+03 0.  0.
         25    1    3    3    0    0 -0.32976295206E+02  0.79618283646E+02  0.10657112206E+03  0.18555705132E+03  0.12509000000E+03 0.  0.
         25    1    1    2    0    0 -0.82911530393E+01 -0.13213307067E+03  0.27945262739E+03  0.33357033837E+03  0.12509000000E+03 0.  0.
<mgrwt>
<rscale>  2 0.49908897E+03</rscale>
<asrwt>0</asrwt>
<pdfrwt beam="1">  1       21 0.83920724E-01 0.49908897E+03</pdfrwt>
<pdfrwt beam="2">  1       21 0.16047557E-01 0.49908897E+03</pdfrwt>
<totfact> 0.38704020E+04</totfact>
</mgrwt>
</event>
<event>
 6    0  0.1284967E-004  0.4089057E+03  0.7546771E-02  0.1040739E+00
         21   -1    0    0  502  501  0.00000000000E+00  0.00000000000E+00  0.17129574435E+03  0.17129574435E+03  0.00000000000E+00 0.  1.
         21   -1    0    0  501  502 -0.00000000000E+00 -0.00000000000E+00 -0.24402810836E+03  0.24402810836E+03  0.00000000000E+00 0.  1.
      99925    2    1    2    0    0  0.26353707928E+02  0.49454214012E+02 -0.24629181700E+02  0.27005974340E+03  0.26303123618E+03 0.  0.
         25    1    3    3    0    0  0.48016261363E+02  0.39038430653E+01 -0.13558403398E+02  0.13472987697E+03  0.12509000000E+03 0.  0.
         25    1    3    3    0    0 -0.21662553435E+02  0.45550370947E+02 -0.11070778302E+02  0.13532986643E+03  0.12509000000E+03 0.  0.
         25    1    1    2    0    0 -0.26353707928E+02 -0.49454214012E+02 -0.48103182319E+02  0.14526410931E+03  0.12509000000E+03 0.  0.
<mgrwt>
<rscale>  2 0.40890574E+03</rscale>
<asrwt>0</asrwt>
<pdfrwt beam="1">  1       21 0.25190551E-01 0.40890574E+03</pdfrwt>
<pdfrwt beam="2">  1       21 0.35886486E-01 0.40890574E+03</pdfrwt>
<totfact> 0.10524017E+05</totfact>
</mgrwt>
</event>
<event>
 6    0  0.1284967E-004  0.4072826E+03  0.7546771E-02  0.1041287E+00
         21   -1    0    0  502  501  0.00000000000E+00  0.00000000000E+00  0.67952313246E+02  0.67952313246E+02  0.00000000000E+00 0. -1.
         21   -1    0    0  501  502 -0.00000000000E+00 -0.00000000000E+00 -0.61027756549E+03  0.61027756549E+03  0.00000000000E+00 0. -1.
      99925    2    1    2    0    0  0.54157109922E+02 -0.17532357286E+02 -0.38016990028E+03  0.46566872900E+03  0.26282662723E+03 0.  0.
         25    1    1    2    0    0 -0.54157109922E+02  0.17532357286E+02 -0.16215535197E+03  0.21256114974E+03  0.12509000000E+03 0.  0.
         25    1    3    3    0    0 -0.12890043476E+02 -0.13100340246E+02 -0.19317285595E+03  0.23087016375E+03  0.12509000000E+03 0.  0.
         25    1    3    3    0    0  0.67047153398E+02 -0.44320170396E+01 -0.18699704433E+03  0.23479856525E+03  0.12509000000E+03 0.  0.
<mgrwt>
<rscale>  2 0.40728257E+03</rscale>
<asrwt>0</asrwt>
<pdfrwt beam="1">  1       21 0.99929874E-02 0.40728257E+03</pdfrwt>
<pdfrwt beam="2">  1       21 0.89746699E-01 0.40728257E+03</pdfrwt>
<totfact> 0.80274435E+04</totfact>
</mgrwt>
</event>
