<event>
 6    0  0.1335790E-005  0.5562647E+03  0.7546771E-02  0.1000054E+00
         21   -1    0    0  502  501  0.00000000000E+00  0.00000000000E+00  0.75900297790E+03  0.75900297790E+03  0.00000000000E+00 0. -1.
         21   -1    0    0  501  502 -0.00000000000E+00 -0.00000000000E+00 -0.10192001314E+03  0.10192001314E+03  0.00000000000E+00 0. -1.
      99926    2    1    2    0    0  0.82593339758E+02  0.16655762240E+02  0.55707007831E+03  0.67995570188E+03  0.38067520300E+03 0.  0.
         25    1    3    3    0    0  0.41749790120E+02 -0.10196136403E+03  0.11173859177E+03  0.20067931064E+03  0.12509000000E+03 0.  0.
         25    1    3    3    0    0  0.40843549638E+02  0.11861712627E+03  0.44533148654E+03  0.47927639123E+03  0.12509000000E+03 0.  0.
         25    1    1    2    0    0 -0.82593339758E+02 -0.16655762240E+02  0.10001288646E+03  0.18096728916E+03  0.12509000000E+03 0.  0.
<mgrwt>
<rscale>  2 0.55626466E+03</rscale>
<asrwt>0</asrwt>
<pdfrwt beam="1">  1       21 0.11161808E+00 0.55626466E+03</pdfrwt>
<pdfrwt beam="2">  1       21 0.14988238E-01 0.55626466E+03</pdfrwt>
<totfact> 0.21773864E+04</totfact>
</mgrwt>
</event>
<event>
 6    0  0.1335790E-005  0.7027363E+03  0.7546771E-02  0.9712564E-01
         21   -1    0    0  502  501  0.00000000000E+00  0.00000000000E+00  0.27669049190E+03  0.27669049190E+03  0.00000000000E+00 0. -1.
         21   -1    0    0  501  502 -0.00000000000E+00 -0.00000000000E+00 -0.44620100097E+03  0.44620100097E+03  0.00000000000E+00 0.  1.
      99926    2    1    2    0    0  0.11206338154E+03 -0.20486750727E+03 -0.11811234536E+02  0.41459704546E+03  0.34237743475E+03 0.  0.
         25    1    3    3    0    0  0.45675803132E+02  0.11757588072E+02  0.59225145644E+02  0.14621780277E+03  0.12509000000E+03 0.  0.
         25    1    3    3    0    0  0.66387578408E+02 -0.21662509535E+03 -0.71036380180E+02  0.26837924270E+03  0.12509000000E+03 0.  0.
         25    1    1    2    0    0 -0.11206338154E+03  0.20486750727E+03 -0.15769927453E+03  0.30829444741E+03  0.12509000000E+03 0.  0.
<mgrwt>
<rscale>  2 0.70273629E+03</rscale>
<asrwt>0</asrwt>
<pdfrwt beam="1">  1       21 0.40689778E-01 0.70273629E+03</pdfrwt>
<pdfrwt beam="2">  1       21 0.65617794E-01 0.70273629E+03</pdfrwt>
<totfact> 0.10488284E+04</totfact>
</mgrwt>
</event>
<event>
 6    0  0.1335790E-005  0.5689379E+03  0.7546771E-02  0.9972032E-01
         21   -1    0    0  502  501  0.00000000000E+00  0.00000000000E+00  0.38974850046E+03  0.38974850046E+03  0.00000000000E+00 0. -1.
         21   -1    0    0  501  502 -0.00000000000E+00 -0.00000000000E+00 -0.20762771424E+03  0.20762771424E+03  0.00000000000E+00 0. -1.
      99926    2    1    2    0    0 -0.10821110945E+03  0.52650852222E+02  0.37911997079E+02  0.37170955919E+03  0.34964113090E+03 0.  0.
         25    1    3    3    0    0 -0.89291195100E+01 -0.89248282268E+01 -0.92867206884E+02  0.15630485581E+03  0.12509000000E+03 0.  0.
         25    1    3    3    0    0 -0.99281989939E+02  0.61575680449E+02  0.13077920396E+03  0.21540470338E+03  0.12509000000E+03 0.  0.
         25    1    1    2    0    0  0.10821110945E+03 -0.52650852222E+02  0.14420878914E+03  0.22566665552E+03  0.12509000000E+03 0.  0.
<mgrwt>
<rscale>  2 0.56893792E+03</rscale>
<asrwt>0</asrwt>
<pdfrwt beam="1">  1       21 0.57315956E-01 0.56893792E+03</pdfrwt>
<pdfrwt beam="2">  1       21 0.30533487E-01 0.56893792E+03</pdfrwt>
<totfact> 0.26081347E+04</totfact>
</mgrwt>
</event>
<event>
 6    0  0.1335790E-005  0.6411958E+03  0.7546771E-02  0.9823441E-01
         21   -1    0    0  502  501  0.00000000000E+00  0.00000000000E+00  0.26187416139E+03  0.26187416139E+03  0.00000000000E+00 0. -1.
         21   -1    0    0  501  502 -0.00000000000E+00 -0.00000000000E+00 -0.39249007045E+03  0.39249007045E+03  0.00000000000E+00 0. -1.
      99926    2    1    2    0    0  0.27063825485E+02  0.28156148207E+02 -0.10496216147E+03  0.52083205521E+03  0.50864895071E+03 0.  0.
         25    1    1    2    0    0 -0.27063825485E+02 -0.28156148207E+02 -0.25653747587E+02  0.13353217664E+03  0.12509000000E+03 0.  0.
         25    1    3    3    0    0  0.78255271970E+02 -0.58527901620E+02  0.15073360708E+03  0.21890073381E+03  0.12509000000E+03 0.  0.
         25    1    3    3    0    0 -0.51191446485E+02  0.86684049827E+02 -0.25569576855E+03  0.30193132140E+03  0.12509000000E+03 0.  0.
<mgrwt>
<rscale>  2 0.64119578E+03</rscale>
<asrwt>0</asrwt>
<pdfrwt beam="1">  1       21 0.38510907E-01 0.64119578E+03</pdfrwt>
<pdfrwt beam="2">  1       21 0.57719127E-01 0.64119578E+03</pdfrwt>
<totfact> 0.15809667E+04</totfact>
</mgrwt>
</event>
<event>
 6    0  0.1335790E-005  0.5117095E+03  0.7546771E-02  0.1010767E+00
         21   -1    0    0  502  501  0.00000000000E+00  0.00000000000E+00  0.26670668040E+03  0.26670668040E+03  0.00000000000E+00 0.  1.
         21   -1    0    0  501  502 -0.00000000000E+00 -0.00000000000E+00 -0.24544441671E+03  0.24544441671E+03  0.00000000000E+00 0. -1.
      99926    2    1    2    0    0  0.00000000000E+00 -0.35527136788E-14  0.21262263690E+02  0.51215109710E+03  0.51170954887E+03 0.  0.
         25    1    3    3    0    0  0.10437262751E+03  0.24082304127E+02  0.85768275711E+02  0.18568066125E+03  0.12509000000E+03 0.  0.
         25    1    3    3    0    0 -0.77996320273E+02 -0.51685306736E+02  0.37449917213E+02  0.16063872917E+03  0.12509000000E+03 0.  0.
         25    1    3    3    0    0 -0.26376307234E+02  0.27603002608E+02 -0.10195592923E+03  0.16583170669E+03  0.12509000000E+03 0.  0.
<mgrwt>
<rscale>  2 0.51170955E+03</rscale>
<asrwt>0</asrwt>
<pdfrwt beam="1">  1       21 0.39221570E-01 0.51170955E+03</pdfrwt>
<pdfrwt beam="2">  1       21 0.36094767E-01 0.51170955E+03</pdfrwt>
<totfact> 0.42050919E+04</totfact>
</mgrwt>
</event>
