<event>
 7    0  0.4748297E-002  0.4730720E+03  0.7546771E-02  0.1021057E+00
         21   -1    0    0  502  501  0.00000000000E+00  0.00000000000E+00  0.28581291586E+03  0.28581291586E+03  0.00000000000E+00 0. -1.
         21   -1    0    0  501  502 -0.00000000000E+00 -0.00000000000E+00 -0.19575488623E+03  0.19575488623E+03  0.00000000000E+00 0. -1.
      99926    2    1    2    0    0  0.00000000000E+00  0.00000000000E+00  0.90058029631E+02  0.48156780209E+03  0.47307198110E+03 0.  0.
      99925    2    3    3    0    0 -0.91440771498E+02  0.23518407410E+02  0.14550461140E+03  0.31532592497E+03  0.26333309104E+03 0.  0.
         25    1    3    3    0    0  0.91440771498E+02 -0.23518407410E+02 -0.55446581765E+02  0.16624187712E+03  0.12509000000E+03 0.  0.
         25    1    4    4    0    0 -0.66830720468E+01  0.13635719056E+02  0.86359707636E+02  0.15276159036E+03  0.12509000000E+03 0.  0.
         25    1    4    4    0    0 -0.84757699451E+02  0.98826883538E+01  0.59144903760E+02  0.16256433461E+03  0.12509000000E+03 0.  0.
<mgrwt>
<rscale>  2 0.47307198E+03</rscale>
<asrwt>0</asrwt>
<pdfrwt beam="1">  1       21 0.42031311E-01 0.47307198E+03</pdfrwt>
<pdfrwt beam="2">  1       21 0.28787483E-01 0.47307198E+03</pdfrwt>
<totfact> 0.57832308E+04</totfact>
</mgrwt>
</event>
<event>
 7    0  0.4748297E-002  0.4327669E+03  0.7546771E-02  0.1032989E+00
         21   -1    0    0  502  501  0.00000000000E+00  0.00000000000E+00  0.85269850585E+02  0.85269850585E+02  0.00000000000E+00 0. -1.
         21   -1    0    0  501  502 -0.00000000000E+00 -0.00000000000E+00 -0.54910131566E+03  0.54910131566E+03  0.00000000000E+00 0. -1.
      99926    2    1    2    0    0 -0.88817841970E-15  0.00000000000E+00 -0.46383146507E+03  0.63437116624E+03  0.43276685244E+03 0.  0.
      99925    2    3    3    0    0 -0.51878683480E+01 -0.34747877708E+02 -0.17537298301E+03  0.31800091961E+03  0.26293454075E+03 0.  0.
         25    1    4    4    0    0  0.17453607484E+02  0.14641393152E+02 -0.10284616606E+03  0.16353544197E+03  0.12509000000E+03 0.  0.
         25    1    4    4    0    0 -0.22641475832E+02 -0.49389270861E+02 -0.72526816951E+02  0.15446547764E+03  0.12509000000E+03 0.  0.
         25    1    3    3    0    0  0.51878683480E+01  0.34747877708E+02 -0.28845848206E+03  0.31637024664E+03  0.12509000000E+03 0.  0.
<mgrwt>
<rscale>  2 0.43276685E+03</rscale>
<asrwt>0</asrwt>
<pdfrwt beam="1">  1       21 0.12539684E-01 0.43276685E+03</pdfrwt>
<pdfrwt beam="2">  1       21 0.80750190E-01 0.43276685E+03</pdfrwt>
<totfact> 0.67733659E+04</totfact>
</mgrwt>
</event>
<event>
 7    0  0.4748297E-002  0.4526019E+03  0.7546771E-02  0.1026949E+00
         21   -1    0    0  502  501  0.00000000000E+00  0.00000000000E+00  0.49490899563E+02  0.49490899563E+02  0.00000000000E+00 0.  1.
         21   -1    0    0  501  502 -0.00000000000E+00 -0.00000000000E+00 -0.10347787119E+04  0.10347787119E+04  0.00000000000E+00 0.  1.
      99926    2    1    2    0    0  0.00000000000E+00 -0.14210854715E-13 -0.98528781231E+03  0.10842696114E+04  0.45260194122E+03 0.  0.
      99925    2    3    3    0    0  0.71045650676E+02 -0.78569929336E+02 -0.54251336054E+03  0.61212827506E+03  0.26298205354E+03 0.  0.
         25    1    3    3    0    0 -0.71045650676E+02  0.78569929336E+02 -0.44277445177E+03  0.47214133638E+03  0.12509000000E+03 0.  0.
         25    1    4    4    0    0  0.97158778352E+01 -0.47134177850E+01 -0.22711377781E+03  0.25950874891E+03  0.12509000000E+03 0.  0.
         25    1    4    4    0    0  0.61329772841E+02 -0.73856511551E+02 -0.31539958274E+03  0.35261952615E+03  0.12509000000E+03 0.  0.
<mgrwt>
<rscale>  2 0.45260194E+03</rscale>
<asrwt>0</asrwt>
<pdfrwt beam="1">  1       21 0.72780730E-02 0.45260194E+03</pdfrwt>
<pdfrwt beam="2">  1       21 0.15217335E+00 0.45260194E+03</pdfrwt>
<totfact> 0.36726865E+04</totfact>
</mgrwt>
</event>
<event>
 6    0  0.4748297E-002  0.4502612E+03  0.7546771E-02  0.1027644E+00
         21   -1    0    0  502  501  0.00000000000E+00  0.00000000000E+00  0.12196233484E+03  0.12196233484E+03  0.00000000000E+00 0. -1.
         21   -1    0    0  501  502 -0.00000000000E+00 -0.00000000000E+00 -0.41556925766E+03  0.41556925766E+03  0.00000000000E+00 0. -1.
      99926    2    1    2    0    0 -0.35527136788E-14 -0.14210854715E-13 -0.29360692282E+03  0.53753159250E+03  0.45026124395E+03 0.  0.
         25    1    3    3    0    0  0.26025057835E+01 -0.64389351117E+01 -0.10485211458E+02  0.12572064541E+03  0.12509000000E+03 0.  0.
         25    1    3    3    0    0  0.30527096252E+02 -0.66348201716E+02 -0.17999239228E+03  0.23103843156E+03  0.12509000000E+03 0.  0.
         25    1    3    3    0    0 -0.33129602036E+02  0.72787136828E+02 -0.10312931908E+03  0.18077251553E+03  0.12509000000E+03 0.  0.
<mgrwt>
<rscale>  2 0.45026124E+03</rscale>
<asrwt>0</asrwt>
<pdfrwt beam="1">  1       21 0.17935638E-01 0.45026124E+03</pdfrwt>
<pdfrwt beam="2">  1       21 0.61113126E-01 0.45026124E+03</pdfrwt>
<totfact> 0.65105620E+04</totfact>
</mgrwt>
</event>
<event>
 7    0  0.4748297E-002  0.4520791E+03  0.7546771E-02  0.1027104E+00
         21   -1    0    0  502  501  0.00000000000E+00  0.00000000000E+00  0.18199640117E+03  0.18199640117E+03  0.00000000000E+00 0. -1.
         21   -1    0    0  501  502 -0.00000000000E+00 -0.00000000000E+00 -0.28074109989E+03  0.28074109989E+03  0.00000000000E+00 0. -1.
      99926    2    1    2    0    0  0.00000000000E+00 -0.17763568394E-14 -0.98744698719E+02  0.46273750107E+03  0.45207906318E+03 0.  0.
      99925    2    3    3    0    0  0.10561546885E+03 -0.10705507791E+02 -0.93341407459E+02  0.29858531919E+03  0.26300444736E+03 0.  0.
         25    1    3    3    0    0 -0.10561546885E+03  0.10705507791E+02 -0.54032912596E+01  0.16415218188E+03  0.12509000000E+03 0.  0.
         25    1    4    4    0    0  0.34190624145E+02 -0.41755953535E+02 -0.47058462286E+02  0.14413384546E+03  0.12509000000E+03 0.  0.
         25    1    4    4    0    0  0.71424844710E+02  0.31050445744E+02 -0.46282945173E+02  0.15445147373E+03  0.12509000000E+03 0.  0.
<mgrwt>
<rscale>  2 0.45207906E+03</rscale>
<asrwt>0</asrwt>
<pdfrwt beam="1">  1       21 0.26764177E-01 0.45207906E+03</pdfrwt>
<pdfrwt beam="2">  1       21 0.41285456E-01 0.45207906E+03</pdfrwt>
<totfact> 0.69578347E+04</totfact>
</mgrwt>
</event>
<event>
 7    0  0.4748297E-002  0.4822201E+03  0.7546771E-02  0.1018527E+00
         21   -1    0    0  502  501  0.00000000000E+00  0.00000000000E+00  0.15690171751E+03  0.15690171751E+03  0.00000000000E+00 0. -1.
         21   -1    0    0  501  502 -0.00000000000E+00 -0.00000000000E+00 -0.37051262675E+03  0.37051262675E+03  0.00000000000E+00 0. -1.
      99926    2    1    2    0    0  0.00000000000E+00 -0.35527136788E-14 -0.21361090924E+03  0.52741434426E+03  0.48222014680E+03 0.  0.
      99925    2    3    3    0    0 -0.10281179941E+03 -0.30572221895E+02 -0.22506320255E+03  0.36223689431E+03  0.26278735816E+03 0.  0.
         25    1    3    3    0    0  0.10281179941E+03  0.30572221895E+02  0.11452293307E+02  0.16517744995E+03  0.12509000000E+03 0.  0.
         25    1    4    4    0    0 -0.61368497472E+02 -0.53546278171E+02 -0.10506760227E+03  0.18253768251E+03  0.12509000000E+03 0.  0.
         25    1    4    4    0    0 -0.41443301936E+02  0.22974056276E+02 -0.11999560028E+03  0.17969921180E+03  0.12509000000E+03 0.  0.
<mgrwt>
<rscale>  2 0.48222015E+03</rscale>
<asrwt>0</asrwt>
<pdfrwt beam="1">  1       21 0.23073782E-01 0.48222015E+03</pdfrwt>
<pdfrwt beam="2">  1       21 0.54487150E-01 0.48222015E+03</pdfrwt>
<totfact> 0.51360831E+04</totfact>
</mgrwt>
</event>
<event>
 7    0  0.4748297E-002  0.4568705E+03  0.7546771E-02  0.1025693E+00
         21   -1    0    0  502  501  0.00000000000E+00  0.00000000000E+00  0.55422795850E+02  0.55422795850E+02  0.00000000000E+00 0. -1.
         21   -1    0    0  501  502 -0.00000000000E+00 -0.00000000000E+00 -0.94153789412E+03  0.94153789412E+03  0.00000000000E+00 0. -1.
      99926    2    1    2    0    0  0.00000000000E+00  0.22204460493E-15 -0.88611509827E+03  0.99696068997E+03  0.45687049583E+03 0.  0.
      99925    2    3    3    0    0 -0.80869214041E+02  0.19180857077E+01 -0.37882434989E+03  0.46825006938E+03  0.26307172135E+03 0.  0.
         25    1    3    3    0    0  0.80869214041E+02 -0.19180857077E+01 -0.50729074838E+03  0.52871062059E+03  0.12509000000E+03 0.  0.
         25    1    4    4    0    0 -0.58554058768E+02 -0.30142932178E+02 -0.16307635621E+03  0.21582071312E+03  0.12509000000E+03 0.  0.
         25    1    4    4    0    0 -0.22315155274E+02  0.32061017886E+02 -0.21574799369E+03  0.25242935626E+03  0.12509000000E+03 0.  0.
<mgrwt>
<rscale>  2 0.45687050E+03</rscale>
<asrwt>0</asrwt>
<pdfrwt beam="1">  1       21 0.81504112E-02 0.45687050E+03</pdfrwt>
<pdfrwt beam="2">  1       21 0.13846145E+00 0.45687050E+03</pdfrwt>
<totfact> 0.38716514E+04</totfact>
</mgrwt>
</event>
<event>
 7    0  0.4748297E-002  0.4572364E+03  0.7546771E-02  0.1025586E+00
         21   -1    0    0  502  501  0.00000000000E+00  0.00000000000E+00  0.70024726936E+03  0.70024726936E+03  0.00000000000E+00 0.  1.
         21   -1    0    0  501  502 -0.00000000000E+00 -0.00000000000E+00 -0.74639748956E+02  0.74639748956E+02  0.00000000000E+00 0.  1.
      99926    2    1    2    0    0  0.14210854715E-13  0.00000000000E+00  0.62560752040E+03  0.77488701831E+03  0.45723639572E+03 0.  0.
      99925    2    3    3    0    0 -0.11496614103E+03  0.41729154492E+01  0.38208115532E+03  0.47792367816E+03  0.26304069283E+03 0.  0.
         25    1    3    3    0    0  0.11496614103E+03 -0.41729154492E+01  0.24352636508E+03  0.29696334016E+03  0.12509000000E+03 0.  0.
         25    1    4    4    0    0 -0.43261043124E+02 -0.26539653985E+02  0.22585870452E+03  0.26312645932E+03  0.12509000000E+03 0.  0.
         25    1    4    4    0    0 -0.71705097906E+02  0.30712569434E+02  0.15622245079E+03  0.21479721883E+03  0.12509000000E+03 0.  0.
<mgrwt>
<rscale>  2 0.45723640E+03</rscale>
<asrwt>0</asrwt>
<pdfrwt beam="1">  1       21 0.10297754E+00 0.45723640E+03</pdfrwt>
<pdfrwt beam="2">  1       21 0.10976434E-01 0.45723640E+03</pdfrwt>
<totfact> 0.48152604E+04</totfact>
</mgrwt>
</event>
<event>
 7    0  0.4748297E-002  0.4486062E+03  0.7546771E-02  0.1028139E+00
         21   -1    0    0  502  501  0.00000000000E+00  0.00000000000E+00  0.43251446188E+02  0.43251446188E+02  0.00000000000E+00 0. -1.
         21   -1    0    0  501  502 -0.00000000000E+00 -0.00000000000E+00 -0.11632414689E+04  0.11632414689E+04  0.00000000000E+00 0. -1.
      99926    2    1    2    0    0  0.00000000000E+00  0.71054273576E-14 -0.11199900227E+04  0.12064929151E+04  0.44860617826E+03 0.  0.
      99925    2    3    3    0    0 -0.98174327941E+02  0.41968246271E+02 -0.70575309243E+03  0.76080325302E+03  0.26331469760E+03 0.  0.
         25    1    4    4    0    0 -0.51113156405E+02 -0.15909564951E+02 -0.39070257456E+03  0.41371690669E+03  0.12509000000E+03 0.  0.
         25    1    3    3    0    0  0.98174327941E+02 -0.41968246271E+02 -0.41423693025E+03  0.44568966203E+03  0.12509000000E+03 0.  0.
         25    1    4    4    0    0 -0.47061171536E+02  0.57877811223E+02 -0.31505051787E+03  0.34708634633E+03  0.12509000000E+03 0.  0.
<mgrwt>
<rscale>  2 0.44860618E+03</rscale>
<asrwt>0</asrwt>
<pdfrwt beam="1">  1       21 0.63605077E-02 0.44860618E+03</pdfrwt>
<pdfrwt beam="2">  1       21 0.17106490E+00 0.44860618E+03</pdfrwt>
<totfact> 0.33592982E+04</totfact>
</mgrwt>
</event>
<event>
 7    0  0.4748297E-002  0.4330657E+03  0.7546771E-02  0.1032896E+00
         21   -1    0    0  502  501  0.00000000000E+00  0.00000000000E+00  0.76123910372E+03  0.76123910372E+03  0.00000000000E+00 0.  1.
         21   -1    0    0  501  502 -0.00000000000E+00 -0.00000000000E+00 -0.61592319470E+02  0.61592319470E+02  0.00000000000E+00 0.  1.
      99926    2    1    2    0    0  0.00000000000E+00  0.00000000000E+00  0.69964678425E+03  0.82283142319E+03  0.43306573205E+03 0.  0.
      99925    2    3    3    0    0 -0.59320874515E+02 -0.54523519632E+02  0.53032947890E+03  0.59742592561E+03  0.26301444838E+03 0.  0.
         25    1    3    3    0    0  0.59320874515E+02  0.54523519632E+02  0.16931730535E+03  0.22540549757E+03  0.12509000000E+03 0.  0.
         25    1    4    4    0    0  0.61788852047E+00 -0.25578894474E+02  0.31236083164E+03  0.33744845365E+03  0.12509000000E+03 0.  0.
         25    1    4    4    0    0 -0.59938763036E+02 -0.28944625158E+02  0.21796864726E+03  0.25997747196E+03  0.12509000000E+03 0.  0.
<mgrwt>
<rscale>  2 0.43306573E+03</rscale>
<asrwt>0</asrwt>
<pdfrwt beam="1">  1       21 0.11194692E+00 0.43306573E+03</pdfrwt>
<pdfrwt beam="2">  1       21 0.90576945E-02 0.43306573E+03</pdfrwt>
<totfact> 0.55658816E+04</totfact>
</mgrwt>
</event>
<event>
 7    0  0.4748297E-002  0.4548006E+03  0.7546771E-02  0.1026300E+00
         21   -1    0    0  502  501  0.00000000000E+00  0.00000000000E+00  0.66377930029E+02  0.66377930029E+02  0.00000000000E+00 0.  1.
         21   -1    0    0  501  502 -0.00000000000E+00 -0.00000000000E+00 -0.77903747104E+03  0.77903747104E+03  0.00000000000E+00 0.  1.
      99926    2    1    2    0    0  0.00000000000E+00 -0.71054273576E-14 -0.71265954101E+03  0.84541540107E+03  0.45480059254E+03 0.  0.
      99925    2    3    3    0    0  0.25291000190E+02  0.63542843211E+02 -0.28128748644E+03  0.39109537600E+03  0.26297455293E+03 0.  0.
         25    1    3    3    0    0 -0.25291000190E+02 -0.63542843211E+02 -0.43137205457E+03  0.45432002507E+03  0.12509000000E+03 0.  0.
         25    1    4    4    0    0  0.24191894166E+02 -0.77474650579E+01 -0.13738531378E+03  0.18753000694E+03  0.12509000000E+03 0.  0.
         25    1    4    4    0    0  0.10991060239E+01  0.71290308269E+02 -0.14390217266E+03  0.20356536906E+03  0.12509000000E+03 0.  0.
<mgrwt>
<rscale>  2 0.45480059E+03</rscale>
<asrwt>0</asrwt>
<pdfrwt beam="1">  1       21 0.97614604E-02 0.45480059E+03</pdfrwt>
<pdfrwt beam="2">  1       21 0.11456433E+00 0.45480059E+03</pdfrwt>
<totfact> 0.45716638E+04</totfact>
</mgrwt>
</event>
<event>
 7    0  0.4748297E-002  0.4598381E+03  0.7546771E-02  0.1024828E+00
         21   -1    0    0  502  501  0.00000000000E+00  0.00000000000E+00  0.11329038124E+03  0.11329038124E+03  0.00000000000E+00 0.  1.
         21   -1    0    0  501  502 -0.00000000000E+00 -0.00000000000E+00 -0.46661299611E+03  0.46661299611E+03  0.00000000000E+00 0.  1.
      99926    2    1    2    0    0  0.00000000000E+00  0.14210854715E-13 -0.35332261487E+03  0.57990337735E+03  0.45983807681E+03 0.  0.
      99925    2    3    3    0    0 -0.94933345681E+01 -0.11405158799E+03 -0.18698079421E+03  0.34238496222E+03  0.26299763654E+03 0.  0.
         25    1    4    4    0    0 -0.14850124522E+02 -0.69907249927E+02 -0.14181153437E+03  0.20215234150E+03  0.12509000000E+03 0.  0.
         25    1    4    4    0    0  0.53567899539E+01 -0.44144338060E+02 -0.45169259836E+02  0.14023262073E+03  0.12509000000E+03 0.  0.
         25    1    3    3    0    0  0.94933345681E+01  0.11405158799E+03 -0.16634182066E+03  0.23751841513E+03  0.12509000000E+03 0.  0.
<mgrwt>
<rscale>  2 0.45983808E+03</rscale>
<asrwt>0</asrwt>
<pdfrwt beam="1">  1       21 0.16660350E-01 0.45983808E+03</pdfrwt>
<pdfrwt beam="2">  1       21 0.68619558E-01 0.45983808E+03</pdfrwt>
<totfact> 0.57694020E+04</totfact>
</mgrwt>
</event>
<event>
 7    0  0.4748297E-002  0.4602249E+03  0.7546771E-02  0.1024716E+00
         21   -1    0    0  502  501  0.00000000000E+00  0.00000000000E+00  0.37599931657E+03  0.37599931657E+03  0.00000000000E+00 0. -1.
         21   -1    0    0  501  502 -0.00000000000E+00 -0.00000000000E+00 -0.14082934888E+03  0.14082934888E+03  0.00000000000E+00 0. -1.
      99926    2    1    2    0    0  0.00000000000E+00  0.00000000000E+00  0.23516996769E+03  0.51682866545E+03  0.46022489690E+03 0.  0.
      99925    2    3    3    0    0 -0.78254359819E+02 -0.55713450637E+02  0.70366801008E+02  0.28871613782E+03  0.26301670696E+03 0.  0.
         25    1    4    4    0    0 -0.29759286069E+02 -0.57786519543E+02  0.62801158931E+02  0.15432559934E+03  0.12509000000E+03 0.  0.
         25    1    4    4    0    0 -0.48495073750E+02  0.20730689065E+01  0.75656420773E+01  0.13439053848E+03  0.12509000000E+03 0.  0.
         25    1    3    3    0    0  0.78254359819E+02  0.55713450637E+02  0.16480316669E+03  0.22811252763E+03  0.12509000000E+03 0.  0.
<mgrwt>
<rscale>  2 0.46022490E+03</rscale>
<asrwt>0</asrwt>
<pdfrwt beam="1">  1       21 0.55294017E-01 0.46022490E+03</pdfrwt>
<pdfrwt beam="2">  1       21 0.20710198E-01 0.46022490E+03</pdfrwt>
<totfact> 0.61513564E+04</totfact>
</mgrwt>
</event>
<event>
 7    0  0.4748297E-002  0.4456394E+03  0.7546771E-02  0.1029030E+00
         21   -1    0    0  502  501  0.00000000000E+00  0.00000000000E+00  0.10584148080E+04  0.10584148080E+04  0.00000000000E+00 0. -1.
         21   -1    0    0  501  502 -0.00000000000E+00 -0.00000000000E+00 -0.46908470433E+02  0.46908470433E+02  0.00000000000E+00 0. -1.
      99926    2    1    2    0    0 -0.71054273576E-14  0.00000000000E+00  0.10115063376E+04  0.11053232784E+04  0.44563940457E+03 0.  0.
      99925    2    3    3    0    0 -0.43825528314E+02  0.35225196828E+02  0.85946766469E+03  0.90056791812E+03  0.26301410055E+03 0.  0.
         25    1    3    3    0    0  0.43825528314E+02 -0.35225196828E+02  0.15203867287E+03  0.20475536030E+03  0.12509000000E+03 0.  0.
         25    1    4    4    0    0 -0.53939497147E+02  0.38631925622E+02  0.50736214988E+03  0.52675018202E+03  0.12509000000E+03 0.  0.
         25    1    4    4    0    0  0.10113968833E+02 -0.34067287935E+01  0.35210551481E+03  0.37381773610E+03  0.12509000000E+03 0.  0.
<mgrwt>
<rscale>  2 0.44563940E+03</rscale>
<asrwt>0</asrwt>
<pdfrwt beam="1">  1       21 0.15564922E+00 0.44563940E+03</pdfrwt>
<pdfrwt beam="2">  1       21 0.68983052E-02 0.44563940E+03</pdfrwt>
<totfact> 0.38008750E+04</totfact>
</mgrwt>
</event>
<event>
 7    0  0.4748297E-002  0.4276699E+03  0.7546771E-02  0.1034599E+00
         21   -1    0    0  502  501  0.00000000000E+00  0.00000000000E+00  0.33769769676E+03  0.33769769676E+03  0.00000000000E+00 0.  1.
         21   -1    0    0  501  502 -0.00000000000E+00 -0.00000000000E+00 -0.13540328388E+03  0.13540328388E+03  0.00000000000E+00 0.  1.
      99926    2    1    2    0    0 -0.71054273576E-14  0.00000000000E+00  0.20229441288E+03  0.47310098065E+03  0.42766985913E+03 0.  0.
      99925    2    3    3    0    0  0.62486525463E+02 -0.56756264338E+02  0.11972125980E+03  0.30107867652E+03  0.26303868537E+03 0.  0.
         25    1    3    3    0    0 -0.62486525463E+02  0.56756264338E+02  0.82573153077E+02  0.17202230412E+03  0.12509000000E+03 0.  0.
         25    1    4    4    0    0  0.62856195601E+02 -0.20117727083E+02  0.89185043502E+02  0.16720378092E+03  0.12509000000E+03 0.  0.
         25    1    4    4    0    0 -0.36967013810E+00 -0.36638537255E+02  0.30536216298E+02  0.13387489561E+03  0.12509000000E+03 0.  0.
<mgrwt>
<rscale>  2 0.42766986E+03</rscale>
<asrwt>0</asrwt>
<pdfrwt beam="1">  1       21 0.49661426E-01 0.42766986E+03</pdfrwt>
<pdfrwt beam="2">  1       21 0.19912248E-01 0.42766986E+03</pdfrwt>
<totfact> 0.84004046E+04</totfact>
</mgrwt>
</event>
<event>
 7    0  0.4748297E-002  0.4495687E+03  0.7546771E-02  0.1027851E+00
         21   -1    0    0  502  501  0.00000000000E+00  0.00000000000E+00  0.93954092486E+02  0.93954092486E+02  0.00000000000E+00 0. -1.
         21   -1    0    0  501  502 -0.00000000000E+00 -0.00000000000E+00 -0.53779465875E+03  0.53779465875E+03  0.00000000000E+00 0. -1.
      99926    2    1    2    0    0  0.00000000000E+00  0.00000000000E+00 -0.44384056626E+03  0.63174875123E+03  0.44956872269E+03 0.  0.
      99925    2    3    3    0    0 -0.88090981145E+02 -0.41509582272E+02 -0.34611677176E+03  0.44552170032E+03  0.26307736387E+03 0.  0.
         25    1    3    3    0    0  0.88090981145E+02  0.41509582272E+02 -0.97723794498E+02  0.18622705091E+03  0.12509000000E+03 0.  0.
         25    1    4    4    0    0 -0.52128989136E+02 -0.24980280890E+02 -0.11379815519E+03  0.17871478441E+03  0.12509000000E+03 0.  0.
         25    1    4    4    0    0 -0.35961992009E+02 -0.16529301382E+02 -0.23231861657E+03  0.26680691591E+03  0.12509000000E+03 0.  0.
<mgrwt>
<rscale>  2 0.44956872E+03</rscale>
<asrwt>0</asrwt>
<pdfrwt beam="1">  1       21 0.13816778E-01 0.44956872E+03</pdfrwt>
<pdfrwt beam="2">  1       21 0.79087450E-01 0.44956872E+03</pdfrwt>
<totfact> 0.59265577E+04</totfact>
</mgrwt>
</event>
<event>
 7    0  0.4748297E-002  0.4447450E+03  0.7546771E-02  0.1029301E+00
         21   -1    0    0  502  501  0.00000000000E+00  0.00000000000E+00  0.13204036793E+03  0.13204036793E+03  0.00000000000E+00 0. -1.
         21   -1    0    0  501  502 -0.00000000000E+00 -0.00000000000E+00 -0.37450313038E+03  0.37450313038E+03  0.00000000000E+00 0. -1.
      99926    2    1    2    0    0  0.00000000000E+00 -0.31086244690E-14 -0.24246276245E+03  0.50654349832E+03  0.44474501067E+03 0.  0.
      99925    2    3    3    0    0  0.78787936593E+02 -0.35322199244E+01 -0.22993898279E+03  0.35813740448E+03  0.26300275502E+03 0.  0.
         25    1    3    3    0    0 -0.78787936593E+02  0.35322199244E+01 -0.12523779653E+02  0.14840609383E+03  0.12509000000E+03 0.  0.
         25    1    4    4    0    0  0.23190689698E+02  0.30437549579E+02 -0.85601291639E+02  0.15633087265E+03  0.12509000000E+03 0.  0.
         25    1    4    4    0    0  0.55597246895E+02 -0.33969769503E+02 -0.14433769115E+03  0.20180653183E+03  0.12509000000E+03 0.  0.
<mgrwt>
<rscale>  2 0.44474501E+03</rscale>
<asrwt>0</asrwt>
<pdfrwt beam="1">  1       21 0.19417701E-01 0.44474501E+03</pdfrwt>
<pdfrwt beam="2">  1       21 0.55073989E-01 0.44474501E+03</pdfrwt>
<totfact> 0.70367911E+04</totfact>
</mgrwt>
</event>
<event>
 7    0  0.4748297E-002  0.4557536E+03  0.7546771E-02  0.1026020E+00
         21   -1    0    0  502  501  0.00000000000E+00  0.00000000000E+00  0.40015138027E+03  0.40015138027E+03  0.00000000000E+00 0.  1.
         21   -1    0    0  501  502 -0.00000000000E+00 -0.00000000000E+00 -0.12977050052E+03  0.12977050052E+03  0.00000000000E+00 0.  1.
      99926    2    1    2    0    0  0.00000000000E+00  0.00000000000E+00  0.27038087975E+03  0.52992188079E+03  0.45575363916E+03 0.  0.
      99925    2    3    3    0    0 -0.10396042862E+03  0.38408354275E+02  0.13863178908E+03  0.31711139376E+03  0.26278868071E+03 0.  0.
         25    1    4    4    0    0 -0.90719397980E+02  0.37663676455E+02  0.69426309624E+02  0.17353985785E+03  0.12509000000E+03 0.  0.
         25    1    3    3    0    0  0.10396042862E+03 -0.38408354275E+02  0.13174909067E+03  0.21281048703E+03  0.12509000000E+03 0.  0.
         25    1    4    4    0    0 -0.13241030641E+02  0.74467782001E+00  0.69205479453E+02  0.14357153591E+03  0.12509000000E+03 0.  0.
<mgrwt>
<rscale>  2 0.45575364E+03</rscale>
<asrwt>0</asrwt>
<pdfrwt beam="1">  1       21 0.58845791E-01 0.45575364E+03</pdfrwt>
<pdfrwt beam="2">  1       21 0.19083897E-01 0.45575364E+03</pdfrwt>
<totfact> 0.62835639E+04</totfact>
</mgrwt>
</event>
<event>
 7    0  0.4748297E-002  0.4551985E+03  0.7546771E-02  0.1026183E+00
         21   -1    0    0  502  501  0.00000000000E+00  0.00000000000E+00  0.20311396507E+03  0.20311396507E+03  0.00000000000E+00 0. -1.
         21   -1    0    0  501  502 -0.00000000000E+00 -0.00000000000E+00 -0.25503625619E+03  0.25503625619E+03  0.00000000000E+00 0. -1.
      99926    2    1    2    0    0 -0.35527136788E-14  0.00000000000E+00 -0.51922291116E+02  0.45815022126E+03  0.45519852913E+03 0.  0.
      99925    2    3    3    0    0 -0.12880804813E+02  0.27135459841E+01 -0.14597327659E+03  0.30109489842E+03  0.26301456597E+03 0.  0.
         25    1    4    4    0    0  0.25214798475E+01  0.13702780679E+02 -0.29820225078E+02  0.12934789516E+03  0.12509000000E+03 0.  0.
         25    1    3    3    0    0  0.12880804813E+02 -0.27135459841E+01  0.94050985473E+02  0.15705532284E+03  0.12509000000E+03 0.  0.
         25    1    4    4    0    0 -0.15402284661E+02 -0.10989234695E+02 -0.11615305151E+03  0.17174700326E+03  0.12509000000E+03 0.  0.
<mgrwt>
<rscale>  2 0.45519853E+03</rscale>
<asrwt>0</asrwt>
<pdfrwt beam="1">  1       21 0.29869701E-01 0.45519853E+03</pdfrwt>
<pdfrwt beam="2">  1       21 0.37505332E-01 0.45519853E+03</pdfrwt>
<totfact> 0.68207445E+04</totfact>
</mgrwt>
</event>
<event>
 6    0  0.4748297E-002  0.4433262E+03  0.7546771E-02  0.1029731E+00
         21   -1    0    0  502  501  0.00000000000E+00  0.00000000000E+00  0.74977814240E+02  0.74977814240E+02  0.00000000000E+00 0.  1.
         21   -1    0    0  501  502 -0.00000000000E+00 -0.00000000000E+00 -0.65532100796E+03  0.65532100796E+03  0.00000000000E+00 0.  1.
      99926    2    1    2    0    0 -0.35527136788E-14  0.00000000000E+00 -0.58034319372E+03  0.73029882220E+03  0.44332623113E+03 0.  0.
         25    1    3    3    0    0 -0.15323693083E+02  0.14527670392E+02 -0.12744591523E+03  0.17982168441E+03  0.12509000000E+03 0.  0.
         25    1    3    3    0    0 -0.19308079108E+02 -0.88396133401E+02 -0.29615337556E+03  0.33397755654E+03  0.12509000000E+03 0.  0.
         25    1    3    3    0    0  0.34631772191E+02  0.73868463009E+02 -0.15674390293E+03  0.21649958124E+03  0.12509000000E+03 0.  0.
<mgrwt>
<rscale>  2 0.44332623E+03</rscale>
<asrwt>0</asrwt>
<pdfrwt beam="1">  1       21 0.11026149E-01 0.44332623E+03</pdfrwt>
<pdfrwt beam="2">  1       21 0.96370735E-01 0.44332623E+03</pdfrwt>
<totfact> 0.56279637E+04</totfact>
</mgrwt>
</event>
<event>
 7    0  0.4748297E-002  0.4555975E+03  0.7546771E-02  0.1026066E+00
         21   -1    0    0  502  501  0.00000000000E+00  0.00000000000E+00  0.10866610666E+03  0.10866610666E+03  0.00000000000E+00 0. -1.
         21   -1    0    0  501  502 -0.00000000000E+00 -0.00000000000E+00 -0.47753866768E+03  0.47753866768E+03  0.00000000000E+00 0. -1.
      99926    2    1    2    0    0  0.00000000000E+00  0.00000000000E+00 -0.36887256101E+03  0.58620477434E+03  0.45559748813E+03 0.  0.
      99925    2    3    3    0    0 -0.34629762007E+02  0.90337721685E+02 -0.15524373763E+03  0.32041367845E+03  0.26306687911E+03 0.  0.
         25    1    3    3    0    0  0.34629762007E+02 -0.90337721685E+02 -0.21362882339E+03  0.26579109590E+03  0.12509000000E+03 0.  0.
         25    1    4    4    0    0 -0.41469182286E+02  0.56483814020E+02 -0.11719066570E+03  0.18517903378E+03  0.12509000000E+03 0.  0.
         25    1    4    4    0    0  0.68394202792E+01  0.33853907664E+02 -0.38053071928E+02  0.13523464466E+03  0.12509000000E+03 0.  0.
<mgrwt>
<rscale>  2 0.45559749E+03</rscale>
<asrwt>0</asrwt>
<pdfrwt beam="1">  1       21 0.15980310E-01 0.45559749E+03</pdfrwt>
<pdfrwt beam="2">  1       21 0.70226275E-01 0.45559749E+03</pdfrwt>
<totfact> 0.59255190E+04</totfact>
</mgrwt>
</event>
<event>
 7    0  0.4748297E-002  0.4510808E+03  0.7546771E-02  0.1027400E+00
         21   -1    0    0  502  501  0.00000000000E+00  0.00000000000E+00  0.62335674746E+03  0.62335674746E+03  0.00000000000E+00 0. -1.
         21   -1    0    0  501  502 -0.00000000000E+00 -0.00000000000E+00 -0.81604093970E+02  0.81604093970E+02  0.00000000000E+00 0. -1.
      99926    2    1    2    0    0  0.71054273576E-14  0.00000000000E+00  0.54175265349E+03  0.70496084143E+03  0.45108075816E+03 0.  0.
      99925    2    3    3    0    0  0.42929945950E+02 -0.71940601636E+02  0.45125547399E+03  0.52930299782E+03  0.26365077333E+03 0.  0.
         25    1    4    4    0    0  0.33836483794E+02 -0.72514663485E+02  0.20734010398E+03  0.25503080378E+03  0.12509000000E+03 0.  0.
         25    1    3    3    0    0 -0.42929945950E+02  0.71940601636E+02  0.90497179501E+02  0.17565784361E+03  0.12509000000E+03 0.  0.
         25    1    4    4    0    0  0.90934621561E+01  0.57406184825E+00  0.24391537001E+03  0.27427219404E+03  0.12509000000E+03 0.  0.
<mgrwt>
<rscale>  2 0.45108076E+03</rscale>
<asrwt>0</asrwt>
<pdfrwt beam="1">  1       21 0.91670108E-01 0.45108076E+03</pdfrwt>
<pdfrwt beam="2">  1       21 0.12000602E-01 0.45108076E+03</pdfrwt>
<totfact> 0.54289410E+04</totfact>
</mgrwt>
</event>
<event>
 7    0  0.4748297E-002  0.4506102E+03  0.7546771E-02  0.1027540E+00
         21   -1    0    0  502  501  0.00000000000E+00  0.00000000000E+00  0.12338192879E+03  0.12338192879E+03  0.00000000000E+00 0.  1.
         21   -1    0    0  501  502 -0.00000000000E+00 -0.00000000000E+00 -0.41142478285E+03  0.41142478285E+03  0.00000000000E+00 0.  1.
      99926    2    1    2    0    0  0.00000000000E+00 -0.14210854715E-13 -0.28804285406E+03  0.53480671163E+03  0.45061017857E+03 0.  0.
      99925    2    3    3    0    0 -0.65622877662E+02  0.85477272104E+02 -0.16349172860E+03  0.32798984319E+03  0.26312557040E+03 0.  0.
         25    1    3    3    0    0  0.65622877662E+02 -0.85477272104E+02 -0.12455112546E+03  0.20681686844E+03  0.12509000000E+03 0.  0.
         25    1    4    4    0    0 -0.11687846693E+02  0.77188978853E+02 -0.76092124696E+02  0.16592848989E+03  0.12509000000E+03 0.  0.
         25    1    4    4    0    0 -0.53935030969E+02  0.82882932517E+01 -0.87399603908E+02  0.16206135330E+03  0.12509000000E+03 0.  0.
<mgrwt>
<rscale>  2 0.45061018E+03</rscale>
<asrwt>0</asrwt>
<pdfrwt beam="1">  1       21 0.18144402E-01 0.45061018E+03</pdfrwt>
<pdfrwt beam="2">  1       21 0.60503643E-01 0.45061018E+03</pdfrwt>
<totfact> 0.65114898E+04</totfact>
</mgrwt>
</event>
<event>
 7    0  0.4748297E-002  0.4589231E+03  0.7546771E-02  0.1025094E+00
         21   -1    0    0  502  501  0.00000000000E+00  0.00000000000E+00  0.12172437932E+03  0.12172437932E+03  0.00000000000E+00 0. -1.
         21   -1    0    0  501  502 -0.00000000000E+00 -0.00000000000E+00 -0.43255599851E+03  0.43255599851E+03  0.00000000000E+00 0. -1.
      99926    2    1    2    0    0  0.00000000000E+00  0.00000000000E+00 -0.31083161919E+03  0.55428037783E+03  0.45892313273E+03 0.  0.
      99925    2    3    3    0    0 -0.58527816104E+02 -0.68256249534E+02 -0.28507536250E+03  0.39809038546E+03  0.26291362047E+03 0.  0.
         25    1    3    3    0    0  0.58527816104E+02  0.68256249534E+02 -0.25756256688E+02  0.15618999237E+03  0.12509000000E+03 0.  0.
         25    1    4    4    0    0  0.10689628034E+02 -0.41802003788E+02 -0.12929421134E+03  0.18500318066E+03  0.12509000000E+03 0.  0.
         25    1    4    4    0    0 -0.69217444138E+02 -0.26454245746E+02 -0.15578115116E+03  0.21308720480E+03  0.12509000000E+03 0.  0.
<mgrwt>
<rscale>  2 0.45892313E+03</rscale>
<asrwt>0</asrwt>
<pdfrwt beam="1">  1       21 0.17900644E-01 0.45892313E+03</pdfrwt>
<pdfrwt beam="2">  1       21 0.63611175E-01 0.45892313E+03</pdfrwt>
<totfact> 0.59709683E+04</totfact>
</mgrwt>
</event>
<event>
 7    0  0.4748297E-002  0.4562353E+03  0.7546771E-02  0.1025879E+00
         21   -1    0    0  502  501  0.00000000000E+00  0.00000000000E+00  0.37122612566E+03  0.37122612566E+03  0.00000000000E+00 0. -1.
         21   -1    0    0  501  502 -0.00000000000E+00 -0.00000000000E+00 -0.14017780694E+03  0.14017780694E+03  0.00000000000E+00 0. -1.
      99926    2    1    2    0    0  0.71054273576E-14 -0.71054273576E-14  0.23104831872E+03  0.51140393261E+03  0.45623530848E+03 0.  0.
      99925    2    3    3    0    0  0.44384578580E+02 -0.17109235848E+02  0.26180399189E+03  0.37408628516E+03  0.26293820911E+03 0.  0.
         25    1    4    4    0    0 -0.87192531824E+01  0.15577691653E+02  0.10759562269E+03  0.16596088688E+03  0.12509000000E+03 0.  0.
         25    1    3    3    0    0 -0.44384578580E+02  0.17109235848E+02 -0.30755673173E+02  0.13731764744E+03  0.12509000000E+03 0.  0.
         25    1    4    4    0    0  0.53103831763E+02 -0.32686927501E+02  0.15420836920E+03  0.20812539828E+03  0.12509000000E+03 0.  0.
<mgrwt>
<rscale>  2 0.45623531E+03</rscale>
<asrwt>0</asrwt>
<pdfrwt beam="1">  1       21 0.54592077E-01 0.45623531E+03</pdfrwt>
<pdfrwt beam="2">  1       21 0.20614383E-01 0.45623531E+03</pdfrwt>
<totfact> 0.63848455E+04</totfact>
</mgrwt>
</event>
<event>
 7    0  0.4748297E-002  0.4551078E+03  0.7546771E-02  0.1026210E+00
         21   -1    0    0  502  501  0.00000000000E+00  0.00000000000E+00  0.48885977205E+02  0.48885977205E+02  0.00000000000E+00 0.  1.
         21   -1    0    0  501  502 -0.00000000000E+00 -0.00000000000E+00 -0.10592155553E+04  0.10592155553E+04  0.00000000000E+00 0.  1.
      99926    2    1    2    0    0  0.00000000000E+00  0.00000000000E+00 -0.10103295780E+04  0.11081015325E+04  0.45510784432E+03 0.  0.
      99925    2    3    3    0    0  0.30918873602E+02 -0.34588703711E+02 -0.88727363090E+03  0.92660048729E+03  0.26302397568E+03 0.  0.
         25    1    3    3    0    0 -0.30918873602E+02  0.34588703711E+02 -0.12305594715E+03  0.18150104517E+03  0.12509000000E+03 0.  0.
         25    1    4    4    0    0  0.39130225508E+01 -0.55141365530E+02 -0.48927346644E+03  0.50802747465E+03  0.12509000000E+03 0.  0.
         25    1    4    4    0    0  0.27005851052E+02  0.20552661820E+02 -0.39800016446E+03  0.41857301264E+03  0.12509000000E+03 0.  0.
<mgrwt>
<rscale>  2 0.45510784E+03</rscale>
<asrwt>0</asrwt>
<pdfrwt beam="1">  1       21 0.71891143E-02 0.45510784E+03</pdfrwt>
<pdfrwt beam="2">  1       21 0.15576699E+00 0.45510784E+03</pdfrwt>
<totfact> 0.35182747E+04</totfact>
</mgrwt>
</event>
<event>
 7    0  0.4748297E-002  0.4505501E+03  0.7546771E-02  0.1027558E+00
         21   -1    0    0  502  501  0.00000000000E+00  0.00000000000E+00  0.48584755426E+03  0.48584755426E+03  0.00000000000E+00 0. -1.
         21   -1    0    0  501  502 -0.00000000000E+00 -0.00000000000E+00 -0.10445428318E+03  0.10445428318E+03  0.00000000000E+00 0. -1.
      99926    2    1    2    0    0 -0.26645352591E-14  0.00000000000E+00  0.38139327108E+03  0.59030183744E+03  0.45055014378E+03 0.  0.
      99925    2    3    3    0    0 -0.58795314069E+01  0.59675049718E+02  0.36003430312E+03  0.44994730755E+03  0.26312012409E+03 0.  0.
         25    1    3    3    0    0  0.58795314069E+01 -0.59675049718E+02  0.21358967966E+02  0.14035452989E+03  0.12509000000E+03 0.  0.
         25    1    4    4    0    0 -0.36617750109E+02  0.19065218920E+02  0.14393422875E+03  0.19511256367E+03  0.12509000000E+03 0.  0.
         25    1    4    4    0    0  0.30738218702E+02  0.40609830798E+02  0.21610007437E+03  0.25483474388E+03  0.12509000000E+03 0.  0.
<mgrwt>
<rscale>  2 0.45055014E+03</rscale>
<asrwt>0</asrwt>
<pdfrwt beam="1">  1       21 0.71448169E-01 0.45055014E+03</pdfrwt>
<pdfrwt beam="2">  1       21 0.15360924E-01 0.45055014E+03</pdfrwt>
<totfact> 0.61410615E+04</totfact>
</mgrwt>
</event>
<event>
 7    0  0.4748297E-002  0.4591805E+03  0.7546771E-02  0.1025019E+00
         21   -1    0    0  502  501  0.00000000000E+00  0.00000000000E+00  0.22461075328E+03  0.22461075328E+03  0.00000000000E+00 0. -1.
         21   -1    0    0  501  502 -0.00000000000E+00 -0.00000000000E+00 -0.23468012543E+03  0.23468012543E+03  0.00000000000E+00 0. -1.
      99926    2    1    2    0    0 -0.14210854715E-13 -0.14210854715E-13 -0.10069372141E+02  0.45929087871E+03  0.45918048631E+03 0.  0.
      99925    2    3    3    0    0  0.76707913040E+02  0.81385311508E+02 -0.40893119020E+02  0.28868816969E+03  0.26298467500E+03 0.  0.
         25    1    4    4    0    0  0.67689733253E+01  0.32112830715E+02 -0.45434167077E+02  0.13707233322E+03  0.12509000000E+03 0.  0.
         25    1    4    4    0    0  0.69938939714E+02  0.49272480794E+02  0.45410480577E+01  0.15161583647E+03  0.12509000000E+03 0.  0.
         25    1    3    3    0    0 -0.76707913040E+02 -0.81385311508E+02  0.30823746878E+02  0.17060270902E+03  0.12509000000E+03 0.  0.
<mgrwt>
<rscale>  2 0.45918049E+03</rscale>
<asrwt>0</asrwt>
<pdfrwt beam="1">  1       21 0.33030993E-01 0.45918049E+03</pdfrwt>
<pdfrwt beam="2">  1       21 0.34511783E-01 0.45918049E+03</pdfrwt>
<totfact> 0.66003361E+04</totfact>
</mgrwt>
</event>
<event>
 7    0  0.4748297E-002  0.4511353E+03  0.7546771E-02  0.1027384E+00
         21   -1    0    0  502  501  0.00000000000E+00  0.00000000000E+00  0.70022245485E+02  0.70022245485E+02  0.00000000000E+00 0. -1.
         21   -1    0    0  501  502 -0.00000000000E+00 -0.00000000000E+00 -0.72663717675E+03  0.72663717675E+03  0.00000000000E+00 0. -1.
      99926    2    1    2    0    0  0.00000000000E+00  0.00000000000E+00 -0.65661493126E+03  0.79665942223E+03  0.45113530905E+03 0.  0.
      99925    2    3    3    0    0  0.19877098721E+02  0.66281200000E+02 -0.26500062978E+03  0.37976907004E+03  0.26307967661E+03 0.  0.
         25    1    4    4    0    0  0.45450745588E+02  0.32185209339E+02 -0.10692296715E+03  0.17372877418E+03  0.12509000000E+03 0.  0.
         25    1    4    4    0    0 -0.25573646867E+02  0.34095990661E+02 -0.15807766263E+03  0.20604029585E+03  0.12509000000E+03 0.  0.
         25    1    3    3    0    0 -0.19877098721E+02 -0.66281200000E+02 -0.39161430149E+03  0.41689035220E+03  0.12509000000E+03 0.  0.
<mgrwt>
<rscale>  2 0.45113531E+03</rscale>
<asrwt>0</asrwt>
<pdfrwt beam="1">  1       21 0.10297390E-01 0.45113531E+03</pdfrwt>
<pdfrwt beam="2">  1       21 0.10685840E+00 0.45113531E+03</pdfrwt>
<totfact> 0.49408430E+04</totfact>
</mgrwt>
</event>
<event>
 7    0  0.4748297E-002  0.4509264E+03  0.7546771E-02  0.1027446E+00
         21   -1    0    0  502  501  0.00000000000E+00  0.00000000000E+00  0.10594402371E+04  0.10594402371E+04  0.00000000000E+00 0.  1.
         21   -1    0    0  501  502 -0.00000000000E+00 -0.00000000000E+00 -0.47981619583E+02  0.47981619583E+02  0.00000000000E+00 0.  1.
      99926    2    1    2    0    0  0.00000000000E+00  0.00000000000E+00  0.10114586175E+04  0.11074218567E+04  0.45092641719E+03 0.  0.
      99925    2    3    3    0    0  0.84848119834E+02 -0.60934739719E+02  0.55963742500E+03  0.62710722641E+03  0.26297752759E+03 0.  0.
         25    1    4    4    0    0  0.25656991312E+02 -0.30597795453E+02  0.18743487914E+03  0.22885333361E+03  0.12509000000E+03 0.  0.
         25    1    3    3    0    0 -0.84848119834E+02  0.60934739719E+02  0.45182119254E+03  0.48031463029E+03  0.12509000000E+03 0.  0.
         25    1    4    4    0    0  0.59191128522E+02 -0.30336944266E+02  0.37220254586E+03  0.39825389280E+03  0.12509000000E+03 0.  0.
<mgrwt>
<rscale>  2 0.45092642E+03</rscale>
<asrwt>0</asrwt>
<pdfrwt beam="1">  1       21 0.15580002E+00 0.45092642E+03</pdfrwt>
<pdfrwt beam="2">  1       21 0.70561212E-02 0.45092642E+03</pdfrwt>
<totfact> 0.36377867E+04</totfact>
</mgrwt>
</event>
<event>
 7    0  0.4748297E-002  0.4513328E+03  0.7546771E-02  0.1027325E+00
         21   -1    0    0  502  501  0.00000000000E+00  0.00000000000E+00  0.34638428204E+03  0.34638428204E+03  0.00000000000E+00 0. -1.
         21   -1    0    0  501  502 -0.00000000000E+00 -0.00000000000E+00 -0.14701975944E+03  0.14701975944E+03  0.00000000000E+00 0. -1.
      99926    2    1    2    0    0  0.14210854715E-13  0.00000000000E+00  0.19936452259E+03  0.49340404148E+03  0.45133284312E+03 0.  0.
      99925    2    3    3    0    0 -0.77351099826E+02 -0.69895015875E+02  0.88262348641E+02  0.29627538541E+03  0.26290750450E+03 0.  0.
         25    1    3    3    0    0  0.77351099826E+02  0.69895015875E+02  0.11110217395E+03  0.19712865607E+03  0.12509000000E+03 0.  0.
         25    1    4    4    0    0 -0.46311365956E+02 -0.75527391839E+02  0.38878600197E+02  0.15813975840E+03  0.12509000000E+03 0.  0.
         25    1    4    4    0    0 -0.31039733870E+02  0.56323759636E+01  0.49383748443E+02  0.13813562700E+03  0.12509000000E+03 0.  0.
<mgrwt>
<rscale>  2 0.45133284E+03</rscale>
<asrwt>0</asrwt>
<pdfrwt beam="1">  1       21 0.50938865E-01 0.45133284E+03</pdfrwt>
<pdfrwt beam="2">  1       21 0.21620553E-01 0.45133284E+03</pdfrwt>
<totfact> 0.67685660E+04</totfact>
</mgrwt>
</event>
<event>
 7    0  0.4748297E-002  0.4534754E+03  0.7546771E-02  0.1026691E+00
         21   -1    0    0  502  501  0.00000000000E+00  0.00000000000E+00  0.13174316920E+03  0.13174316920E+03  0.00000000000E+00 0. -1.
         21   -1    0    0  501  502 -0.00000000000E+00 -0.00000000000E+00 -0.39022879556E+03  0.39022879556E+03  0.00000000000E+00 0. -1.
      99926    2    1    2    0    0  0.00000000000E+00 -0.71054273576E-14 -0.25848562636E+03  0.52197196477E+03  0.45347537195E+03 0.  0.
      99925    2    3    3    0    0  0.75440408879E+02  0.48183182134E+02 -0.84562487898E+02  0.28978746803E+03  0.26232248843E+03 0.  0.
         25    1    4    4    0    0  0.78096957277E+02  0.21703859174E+02 -0.39630137015E+02  0.15423439337E+03  0.12509000000E+03 0.  0.
         25    1    3    3    0    0 -0.75440408879E+02 -0.48183182134E+02 -0.17392313846E+03  0.23218449674E+03  0.12509000000E+03 0.  0.
         25    1    4    4    0    0 -0.26565483978E+01  0.26479322960E+02 -0.44932350882E+02  0.13555307466E+03  0.12509000000E+03 0.  0.
<mgrwt>
<rscale>  2 0.45347537E+03</rscale>
<asrwt>0</asrwt>
<pdfrwt beam="1">  1       21 0.19373996E-01 0.45347537E+03</pdfrwt>
<pdfrwt beam="2">  1       21 0.57386587E-01 0.45347537E+03</pdfrwt>
<totfact> 0.64529641E+04</totfact>
</mgrwt>
</event>
<event>
 7    0  0.4748297E-002  0.4690621E+03  0.7546771E-02  0.1022185E+00
         21   -1    0    0  502  501  0.00000000000E+00  0.00000000000E+00  0.53564023967E+03  0.53564023967E+03  0.00000000000E+00 0.  1.
         21   -1    0    0  501  502 -0.00000000000E+00 -0.00000000000E+00 -0.10268986359E+03  0.10268986359E+03  0.00000000000E+00 0.  1.
      99926    2    1    2    0    0  0.14210854715E-13  0.00000000000E+00  0.43295037607E+03  0.63833010326E+03  0.46906214150E+03 0.  0.
      99925    2    3    3    0    0 -0.91431320275E+02  0.85560256403E+02  0.25133900968E+03  0.38473507116E+03  0.26300101405E+03 0.  0.
         25    1    4    4    0    0 -0.75785835949E+02  0.75714097140E+02  0.14825479887E+03  0.22159221765E+03  0.12509000000E+03 0.  0.
         25    1    3    3    0    0  0.91431320275E+02 -0.85560256403E+02  0.18161136639E+03  0.25359503210E+03  0.12509000000E+03 0.  0.
         25    1    4    4    0    0 -0.15645484326E+02  0.98461592637E+01  0.10308421081E+03  0.16314285351E+03  0.12509000000E+03 0.  0.
<mgrwt>
<rscale>  2 0.46906214E+03</rscale>
<asrwt>0</asrwt>
<pdfrwt beam="1">  1       21 0.78770622E-01 0.46906214E+03</pdfrwt>
<pdfrwt beam="2">  1       21 0.15101451E-01 0.46906214E+03</pdfrwt>
<totfact> 0.50532337E+04</totfact>
</mgrwt>
</event>
<event>
 7    0  0.4748297E-002  0.4636686E+03  0.7546771E-02  0.1023723E+00
         21   -1    0    0  502  501  0.00000000000E+00  0.00000000000E+00  0.41771875161E+03  0.41771875161E+03  0.00000000000E+00 0. -1.
         21   -1    0    0  501  502 -0.00000000000E+00 -0.00000000000E+00 -0.12866826570E+03  0.12866826570E+03  0.00000000000E+00 0. -1.
      99926    2    1    2    0    0 -0.17763568394E-14 -0.17763568394E-14  0.28905048591E+03  0.54638701731E+03  0.46366862012E+03 0.  0.
      99925    2    3    3    0    0  0.65802104285E+01  0.93585463343E+01  0.38460249721E+02  0.26607673185E+03  0.26303375233E+03 0.  0.
         25    1    4    4    0    0 -0.25003125722E+02 -0.23416664572E+02  0.11010421394E+02  0.13016233693E+03  0.12509000000E+03 0.  0.
         25    1    4    4    0    0  0.31583336151E+02  0.32775210906E+02  0.27449828326E+02  0.13591439492E+03  0.12509000000E+03 0.  0.
         25    1    3    3    0    0 -0.65802104285E+01 -0.93585463343E+01  0.25059023619E+03  0.28031028546E+03  0.12509000000E+03 0.  0.
<mgrwt>
<rscale>  2 0.46366862E+03</rscale>
<asrwt>0</asrwt>
<pdfrwt beam="1">  1       21 0.61429228E-01 0.46366862E+03</pdfrwt>
<pdfrwt beam="2">  1       21 0.18921804E-01 0.46366862E+03</pdfrwt>
<totfact> 0.58021480E+04</totfact>
</mgrwt>
</event>
<event>
 7    0  0.4748297E-002  0.4356297E+03  0.7546771E-02  0.1032096E+00
         21   -1    0    0  502  501  0.00000000000E+00  0.00000000000E+00  0.30342517075E+03  0.30342517075E+03  0.00000000000E+00 0. -1.
         21   -1    0    0  501  502 -0.00000000000E+00 -0.00000000000E+00 -0.15635918948E+03  0.15635918948E+03  0.00000000000E+00 0. -1.
      99926    2    1    2    0    0  0.00000000000E+00 -0.35527136788E-14  0.14706598127E+03  0.45978436023E+03  0.43562972243E+03 0.  0.
      99925    2    3    3    0    0 -0.12765447932E+02  0.21159451464E+02  0.18995649996E+03  0.32525635668E+03  0.26286412200E+03 0.  0.
         25    1    4    4    0    0 -0.17923555363E+02  0.47254932828E+02  0.11311836166E+03  0.17606122332E+03  0.12509000000E+03 0.  0.
         25    1    4    4    0    0  0.51581074308E+01 -0.26095481364E+02  0.76838138299E+02  0.14919513336E+03  0.12509000000E+03 0.  0.
         25    1    3    3    0    0  0.12765447932E+02 -0.21159451464E+02 -0.42890518686E+02  0.13452800355E+03  0.12509000000E+03 0.  0.
<mgrwt>
<rscale>  2 0.43562972E+03</rscale>
<asrwt>0</asrwt>
<pdfrwt beam="1">  1       21 0.44621349E-01 0.43562972E+03</pdfrwt>
<pdfrwt beam="2">  1       21 0.22993998E-01 0.43562972E+03</pdfrwt>
<totfact> 0.79777092E+04</totfact>
</mgrwt>
</event>
<event>
 7    0  0.4748297E-002  0.4548328E+03  0.7546771E-02  0.1026291E+00
         21   -1    0    0  502  501  0.00000000000E+00  0.00000000000E+00  0.20642222292E+02  0.20642222292E+02  0.00000000000E+00 0.  1.
         21   -1    0    0  501  502 -0.00000000000E+00 -0.00000000000E+00 -0.25054577072E+04  0.25054577072E+04  0.00000000000E+00 0.  1.
      99926    2    1    2    0    0  0.00000000000E+00  0.35527136788E-14 -0.24848154850E+04  0.25260999295E+04  0.45483278218E+03 0.  0.
      99925    2    3    3    0    0  0.88744157422E+02 -0.22849540782E+02 -0.11966878022E+04  0.12286724509E+04  0.26301457911E+03 0.  0.
         25    1    4    4    0    0  0.19853638588E+02 -0.41432810993E+02 -0.63348738679E+03  0.64735200788E+03  0.12509000000E+03 0.  0.
         25    1    4    4    0    0  0.68890518834E+02  0.18583270211E+02 -0.56320041537E+03  0.58132044303E+03  0.12509000000E+03 0.  0.
         25    1    3    3    0    0 -0.88744157422E+02  0.22849540782E+02 -0.12881276828E+04  0.12974274786E+04  0.12509000000E+03 0.  0.
<mgrwt>
<rscale>  2 0.45483278E+03</rscale>
<asrwt>0</asrwt>
<pdfrwt beam="1">  1       21 0.30356223E-02 0.45483278E+03</pdfrwt>
<pdfrwt beam="2">  1       21 0.36844950E+00 0.45483278E+03</pdfrwt>
<totfact> 0.68773582E+03</totfact>
</mgrwt>
</event>
<event>
 7    0  0.4748297E-002  0.4562331E+03  0.7546771E-02  0.1025879E+00
         21   -1    0    0  502  501  0.00000000000E+00  0.00000000000E+00  0.13985636901E+03  0.13985636901E+03  0.00000000000E+00 0.  1.
         21   -1    0    0  501  502 -0.00000000000E+00 -0.00000000000E+00 -0.37207578591E+03  0.37207578591E+03  0.00000000000E+00 0.  1.
      99926    2    1    2    0    0  0.00000000000E+00  0.71054273576E-14 -0.23221941691E+03  0.51193215492E+03  0.45623313520E+03 0.  0.
      99925    2    3    3    0    0  0.10370954062E+03  0.15744589483E+02 -0.94771583673E+02  0.29852415162E+03  0.26292861220E+03 0.  0.
         25    1    4    4    0    0  0.59068489385E+02 -0.22653137201E+02 -0.20766473912E+02  0.14170746488E+03  0.12509000000E+03 0.  0.
         25    1    4    4    0    0  0.44641051236E+02  0.38397726684E+02 -0.74005109760E+02  0.15681668674E+03  0.12509000000E+03 0.  0.
         25    1    3    3    0    0 -0.10370954062E+03 -0.15744589483E+02 -0.13744783323E+03  0.21340800330E+03  0.12509000000E+03 0.  0.
<mgrwt>
<rscale>  2 0.45623314E+03</rscale>
<asrwt>0</asrwt>
<pdfrwt beam="1">  1       21 0.20567113E-01 0.45623314E+03</pdfrwt>
<pdfrwt beam="2">  1       21 0.54717027E-01 0.45623314E+03</pdfrwt>
<totfact> 0.63813479E+04</totfact>
</mgrwt>
</event>
<event>
 7    0  0.4748297E-002  0.4516469E+03  0.7546771E-02  0.1027232E+00
         21   -1    0    0  502  501  0.00000000000E+00  0.00000000000E+00  0.70587580720E+03  0.70587580720E+03  0.00000000000E+00 0.  1.
         21   -1    0    0  501  502 -0.00000000000E+00 -0.00000000000E+00 -0.72245333141E+02  0.72245333141E+02  0.00000000000E+00 0.  1.
      99926    2    1    2    0    0 -0.71054273576E-14  0.00000000000E+00  0.63363047406E+03  0.77812114035E+03  0.45164691009E+03 0.  0.
      99925    2    3    3    0    0  0.62852824888E+02  0.62886111701E+02  0.28887111973E+03  0.40074644439E+03  0.26314643878E+03 0.  0.
         25    1    4    4    0    0  0.33213614681E+02  0.51300059480E+02  0.97701720036E+02  0.17008225804E+03  0.12509000000E+03 0.  0.
         25    1    4    4    0    0  0.29639210207E+02  0.11586052221E+02  0.19116939969E+03  0.23066418635E+03  0.12509000000E+03 0.  0.
         25    1    3    3    0    0 -0.62852824888E+02 -0.62886111701E+02  0.34475935434E+03  0.37737469595E+03  0.12509000000E+03 0.  0.
<mgrwt>
<rscale>  2 0.45164691E+03</rscale>
<asrwt>0</asrwt>
<pdfrwt beam="1">  1       21 0.10380526E+00 0.45164691E+03</pdfrwt>
<pdfrwt beam="2">  1       21 0.10624314E-01 0.45164691E+03</pdfrwt>
<totfact> 0.50148224E+04</totfact>
</mgrwt>
</event>
<event>
 7    0  0.4748297E-002  0.4536990E+03  0.7546771E-02  0.1026625E+00
         21   -1    0    0  502  501  0.00000000000E+00  0.00000000000E+00  0.40407448682E+03  0.40407448682E+03  0.00000000000E+00 0. -1.
         21   -1    0    0  501  502 -0.00000000000E+00 -0.00000000000E+00 -0.12735446175E+03  0.12735446175E+03  0.00000000000E+00 0. -1.
      99926    2    1    2    0    0  0.00000000000E+00 -0.17763568394E-14  0.27672002507E+03  0.53142894857E+03  0.45369896969E+03 0.  0.
      99925    2    3    3    0    0 -0.46736862984E+02  0.81426970489E+01  0.55685212824E+02  0.27305996010E+03  0.26307843128E+03 0.  0.
         25    1    4    4    0    0 -0.20003402317E+00  0.23956205453E+02 -0.56298237572E+00  0.12736469229E+03  0.12509000000E+03 0.  0.
         25    1    4    4    0    0 -0.46536828961E+02 -0.15813508404E+02  0.56248195199E+02  0.14569526781E+03  0.12509000000E+03 0.  0.
         25    1    3    3    0    0  0.46736862984E+02 -0.81426970489E+01  0.22103481225E+03  0.25836898847E+03  0.12509000000E+03 0.  0.
<mgrwt>
<rscale>  2 0.45369897E+03</rscale>
<asrwt>0</asrwt>
<pdfrwt beam="1">  1       21 0.59422718E-01 0.45369897E+03</pdfrwt>
<pdfrwt beam="2">  1       21 0.18728597E-01 0.45369897E+03</pdfrwt>
<totfact> 0.63764779E+04</totfact>
</mgrwt>
</event>
<event>
 7    0  0.4748297E-002  0.4537074E+03  0.7546771E-02  0.1026622E+00
         21   -1    0    0  502  501  0.00000000000E+00  0.00000000000E+00  0.71114577324E+03  0.71114577324E+03  0.00000000000E+00 0.  1.
         21   -1    0    0  501  502 -0.00000000000E+00 -0.00000000000E+00 -0.72365754118E+02  0.72365754118E+02  0.00000000000E+00 0.  1.
      99926    2    1    2    0    0  0.88817841970E-15 -0.14210854715E-13  0.63878001912E+03  0.78351152735E+03  0.45370739543E+03 0.  0.
      99925    2    3    3    0    0 -0.69154232768E+01 -0.10898689651E+03  0.44481459090E+03  0.52817633171E+03  0.26302899158E+03 0.  0.
         25    1    4    4    0    0 -0.10375240880E+02 -0.94304832135E+02  0.27596372367E+03  0.31749729427E+03  0.12509000000E+03 0.  0.
         25    1    3    3    0    0  0.69154232768E+01  0.10898689651E+03  0.19396542822E+03  0.25533519564E+03  0.12509000000E+03 0.  0.
         25    1    4    4    0    0  0.34598176029E+01 -0.14682064377E+02  0.16885086723E+03  0.21067903744E+03  0.12509000000E+03 0.  0.
<mgrwt>
<rscale>  2 0.45370740E+03</rscale>
<asrwt>0</asrwt>
<pdfrwt beam="1">  1       21 0.10458026E+00 0.45370740E+03</pdfrwt>
<pdfrwt beam="2">  1       21 0.10642023E-01 0.45370740E+03</pdfrwt>
<totfact> 0.49068654E+04</totfact>
</mgrwt>
</event>
<event>
 7    0  0.4748297E-002  0.4527609E+03  0.7546771E-02  0.1026902E+00
         21   -1    0    0  502  501  0.00000000000E+00  0.00000000000E+00  0.34597635094E+03  0.34597635094E+03  0.00000000000E+00 0. -1.
         21   -1    0    0  501  502 -0.00000000000E+00 -0.00000000000E+00 -0.14812607170E+03  0.14812607170E+03  0.00000000000E+00 0. -1.
      99926    2    1    2    0    0  0.00000000000E+00  0.00000000000E+00  0.19785027924E+03  0.49410242264E+03  0.45276094251E+03 0.  0.
      99925    2    3    3    0    0 -0.26066113670E+02 -0.72804204617E+02  0.21180568823E+03  0.34637918130E+03  0.26293914350E+03 0.  0.
         25    1    3    3    0    0  0.26066113670E+02  0.72804204617E+02 -0.13955408988E+02  0.14772324134E+03  0.12509000000E+03 0.  0.
         25    1    4    4    0    0 -0.14476045799E+02 -0.53886406111E+02  0.63131366138E+02  0.15081902452E+03  0.12509000000E+03 0.  0.
         25    1    4    4    0    0 -0.11590067871E+02 -0.18917798506E+02  0.14867432209E+03  0.19556015679E+03  0.12509000000E+03 0.  0.
<mgrwt>
<rscale>  2 0.45276094E+03</rscale>
<asrwt>0</asrwt>
<pdfrwt beam="1">  1       21 0.50878875E-01 0.45276094E+03</pdfrwt>
<pdfrwt beam="2">  1       21 0.21783246E-01 0.45276094E+03</pdfrwt>
<totfact> 0.66867674E+04</totfact>
</mgrwt>
</event>
<event>
 7    0  0.4748297E-002  0.4530667E+03  0.7546771E-02  0.1026811E+00
         21   -1    0    0  502  501  0.00000000000E+00  0.00000000000E+00  0.46917438125E+03  0.46917438125E+03  0.00000000000E+00 0. -1.
         21   -1    0    0  501  502 -0.00000000000E+00 -0.00000000000E+00 -0.10937802549E+03  0.10937802549E+03  0.00000000000E+00 0. -1.
      99926    2    1    2    0    0  0.00000000000E+00  0.00000000000E+00  0.35979635576E+03  0.57855240673E+03  0.45306673870E+03 0.  0.
      99925    2    3    3    0    0 -0.20883376120E+02 -0.10442888228E+03  0.26835737118E+03  0.39053617644E+03  0.26298539806E+03 0.  0.
         25    1    3    3    0    0  0.20883376120E+02  0.10442888228E+03  0.91438984579E+02  0.18801623029E+03  0.12509000000E+03 0.  0.
         25    1    4    4    0    0 -0.89766900979E+01 -0.14505791886E+02  0.14896832221E+03  0.19526921951E+03  0.12509000000E+03 0.  0.
         25    1    4    4    0    0 -0.11906686022E+02 -0.89923090392E+02  0.11938904897E+03  0.19526695694E+03  0.12509000000E+03 0.  0.
<mgrwt>
<rscale>  2 0.45306674E+03</rscale>
<asrwt>0</asrwt>
<pdfrwt beam="1">  1       21 0.68996232E-01 0.45306674E+03</pdfrwt>
<pdfrwt beam="2">  1       21 0.16085004E-01 0.45306674E+03</pdfrwt>
<totfact> 0.60944397E+04</totfact>
</mgrwt>
</event>
<event>
 7    0  0.4748297E-002  0.4548001E+03  0.7546771E-02  0.1026300E+00
         21   -1    0    0  502  501  0.00000000000E+00  0.00000000000E+00  0.23608488556E+02  0.23608488556E+02  0.00000000000E+00 0. -1.
         21   -1    0    0  501  502 -0.00000000000E+00 -0.00000000000E+00 -0.21903475073E+04  0.21903475073E+04  0.00000000000E+00 0. -1.
      99926    2    1    2    0    0 -0.14210854715E-13  0.00000000000E+00 -0.21667390188E+04  0.22139559959E+04  0.45480014978E+03 0.  0.
      99925    2    3    3    0    0  0.83049909047E+02 -0.76258426321E+02 -0.13288893918E+04  0.13593495716E+04  0.26300495639E+03 0.  0.
         25    1    4    4    0    0  0.19787279523E+02 -0.22670774451E+01 -0.64667001100E+03  0.65895848678E+03  0.12509000000E+03 0.  0.
         25    1    4    4    0    0  0.63262629523E+02 -0.73991348876E+02 -0.68221938080E+03  0.70039108478E+03  0.12509000000E+03 0.  0.
         25    1    3    3    0    0 -0.83049909047E+02  0.76258426321E+02 -0.83784962699E+03  0.85460642434E+03  0.12509000000E+03 0.  0.
<mgrwt>
<rscale>  2 0.45480015E+03</rscale>
<asrwt>0</asrwt>
<pdfrwt beam="1">  1       21 0.34718353E-02 0.45480015E+03</pdfrwt>
<pdfrwt beam="2">  1       21 0.32211005E+00 0.45480015E+03</pdfrwt>
<totfact> 0.10537057E+04</totfact>
</mgrwt>
</event>
<event>
 6    0  0.4748297E-002  0.4362101E+03  0.7546771E-02  0.1031916E+00
         21   -1    0    0  502  501  0.00000000000E+00  0.00000000000E+00  0.27575745106E+02  0.27575745106E+02  0.00000000000E+00 0.  1.
         21   -1    0    0  501  502 -0.00000000000E+00 -0.00000000000E+00 -0.17250603188E+04  0.17250603188E+04  0.00000000000E+00 0.  1.
      99926    2    1    2    0    0  0.14210854715E-13  0.00000000000E+00 -0.16974845737E+04  0.17526360639E+04  0.43621014955E+03 0.  0.
         25    1    3    3    0    0  0.72985664071E+02 -0.54586074288E+02 -0.62493456167E+03  0.64381461706E+03  0.12509000000E+03 0.  0.
         25    1    3    3    0    0 -0.23642113694E+02  0.69192309603E+02 -0.60419895705E+03  0.62132955269E+03  0.12509000000E+03 0.  0.
         25    1    3    3    0    0 -0.49343550377E+02 -0.14606235315E+02 -0.46835105500E+03  0.48749189418E+03  0.12509000000E+03 0.  0.
<mgrwt>
<rscale>  2 0.43621015E+03</rscale>
<asrwt>0</asrwt>
<pdfrwt beam="1">  1       21 0.40552547E-02 0.43621015E+03</pdfrwt>
<pdfrwt beam="2">  1       21 0.25368546E+00 0.43621015E+03</pdfrwt>
<totfact> 0.21101420E+04</totfact>
</mgrwt>
</event>
<event>
 7    0  0.4748297E-002  0.4545124E+03  0.7546771E-02  0.1026385E+00
         21   -1    0    0  502  501  0.00000000000E+00  0.00000000000E+00  0.36913020913E+03  0.36913020913E+03  0.00000000000E+00 0.  1.
         21   -1    0    0  501  502 -0.00000000000E+00 -0.00000000000E+00 -0.13991102352E+03  0.13991102352E+03  0.00000000000E+00 0.  1.
      99926    2    1    2    0    0  0.35527136788E-14  0.00000000000E+00  0.22921918561E+03  0.50904123265E+03  0.45451242170E+03 0.  0.
      99925    2    3    3    0    0  0.28750774747E+02 -0.10671507049E+03  0.16981848733E+03  0.33186712513E+03  0.26283598838E+03 0.  0.
         25    1    4    4    0    0  0.33021947023E+02 -0.31924804042E+02  0.11526208844E+03  0.17618881698E+03  0.12509000000E+03 0.  0.
         25    1    3    3    0    0 -0.28750774747E+02  0.10671507049E+03  0.59400698280E+02  0.17717410752E+03  0.12509000000E+03 0.  0.
         25    1    4    4    0    0 -0.42711722765E+01 -0.74790266447E+02  0.54556398887E+02  0.15567830815E+03  0.12509000000E+03 0.  0.
<mgrwt>
<rscale>  2 0.45451242E+03</rscale>
<asrwt>0</asrwt>
<pdfrwt beam="1">  1       21 0.54283854E-01 0.45451242E+03</pdfrwt>
<pdfrwt beam="2">  1       21 0.20575151E-01 0.45451242E+03</pdfrwt>
<totfact> 0.64890781E+04</totfact>
</mgrwt>
</event>
<event>
 7    0  0.4748297E-002  0.4435079E+03  0.7546771E-02  0.1029676E+00
         21   -1    0    0  502  501  0.00000000000E+00  0.00000000000E+00  0.48099881652E+03  0.48099881652E+03  0.00000000000E+00 0. -1.
         21   -1    0    0  501  502 -0.00000000000E+00 -0.00000000000E+00 -0.10223477591E+03  0.10223477591E+03  0.00000000000E+00 0. -1.
      99926    2    1    2    0    0  0.00000000000E+00  0.00000000000E+00  0.37876404061E+03  0.58323359243E+03  0.44350786337E+03 0.  0.
      99925    2    3    3    0    0  0.39087828964E+01 -0.86991946667E+02  0.17168891696E+03  0.32611398543E+03  0.26323064015E+03 0.  0.
         25    1    3    3    0    0 -0.39087828964E+01  0.86991946667E+02  0.20707512365E+03  0.25711960700E+03  0.12509000000E+03 0.  0.
         25    1    4    4    0    0 -0.75978522707E+01 -0.29637369138E+02  0.38872826242E+02  0.13451656303E+03  0.12509000000E+03 0.  0.
         25    1    4    4    0    0  0.11506635167E+02 -0.57354577529E+02  0.13281609072E+03  0.19159742240E+03  0.12509000000E+03 0.  0.
<mgrwt>
<rscale>  2 0.44350786E+03</rscale>
<asrwt>0</asrwt>
<pdfrwt beam="1">  1       21 0.70735119E-01 0.44350786E+03</pdfrwt>
<pdfrwt beam="2">  1       21 0.15034526E-01 0.44350786E+03</pdfrwt>
<totfact> 0.65470132E+04</totfact>
</mgrwt>
</event>
<event>
 7    0  0.4748297E-002  0.4548537E+03  0.7546771E-02  0.1026284E+00
         21   -1    0    0  502  501  0.00000000000E+00  0.00000000000E+00  0.51140671292E+03  0.51140671292E+03  0.00000000000E+00 0. -1.
         21   -1    0    0  501  502 -0.00000000000E+00 -0.00000000000E+00 -0.10113861054E+03  0.10113861054E+03  0.00000000000E+00 0. -1.
      99926    2    1    2    0    0  0.00000000000E+00  0.00000000000E+00  0.41026810238E+03  0.61254532346E+03  0.45485366598E+03 0.  0.
      99925    2    3    3    0    0  0.88630014853E+02  0.57256600929E+02  0.31227480621E+03  0.42179996420E+03  0.26318445494E+03 0.  0.
         25    1    3    3    0    0 -0.88630014853E+02 -0.57256600929E+02  0.97993296171E+02  0.19074535925E+03  0.12509000000E+03 0.  0.
         25    1    4    4    0    0  0.70309062146E+02  0.14965129552E+02  0.11905055253E+03  0.18705042496E+03  0.12509000000E+03 0.  0.
         25    1    4    4    0    0  0.18320952708E+02  0.42291471377E+02  0.19322425369E+03  0.23474953924E+03  0.12509000000E+03 0.  0.
<mgrwt>
<rscale>  2 0.45485367E+03</rscale>
<asrwt>0</asrwt>
<pdfrwt beam="1">  1       21 0.75206869E-01 0.45485367E+03</pdfrwt>
<pdfrwt beam="2">  1       21 0.14873325E-01 0.45485367E+03</pdfrwt>
<totfact> 0.57979626E+04</totfact>
</mgrwt>
</event>
<event>
 7    0  0.4748297E-002  0.4563668E+03  0.7546771E-02  0.1025840E+00
         21   -1    0    0  502  501  0.00000000000E+00  0.00000000000E+00  0.11512110098E+04  0.11512110098E+04  0.00000000000E+00 0. -1.
         21   -1    0    0  501  502 -0.00000000000E+00 -0.00000000000E+00 -0.45228600351E+02  0.45228600351E+02  0.00000000000E+00 0. -1.
      99926    2    1    2    0    0  0.00000000000E+00  0.00000000000E+00  0.11059824094E+04  0.11964396101E+04  0.45636679407E+03 0.  0.
      99925    2    3    3    0    0 -0.70830790467E+02 -0.73099159618E+02  0.83241682885E+03  0.87887682423E+03  0.26295666410E+03 0.  0.
         25    1    4    4    0    0 -0.13105203310E+02 -0.52950085232E+02  0.32006024521E+03  0.34793896957E+03  0.12509000000E+03 0.  0.
         25    1    4    4    0    0 -0.57725587158E+02 -0.20149074386E+02  0.51235658364E+03  0.53093785466E+03  0.12509000000E+03 0.  0.
         25    1    3    3    0    0  0.70830790467E+02  0.73099159618E+02  0.27356558059E+03  0.31756278592E+03  0.12509000000E+03 0.  0.
<mgrwt>
<rscale>  2 0.45636679E+03</rscale>
<asrwt>0</asrwt>
<pdfrwt beam="1">  1       21 0.16929572E+00 0.45636679E+03</pdfrwt>
<pdfrwt beam="2">  1       21 0.66512655E-02 0.45636679E+03</pdfrwt>
<totfact> 0.31927683E+04</totfact>
</mgrwt>
</event>
<event>
 7    0  0.4748297E-002  0.4630662E+03  0.7546771E-02  0.1023896E+00
         21   -1    0    0  502  501  0.00000000000E+00  0.00000000000E+00  0.24099369892E+03  0.24099369892E+03  0.00000000000E+00 0. -1.
         21   -1    0    0  501  502 -0.00000000000E+00 -0.00000000000E+00 -0.22244388300E+03  0.22244388300E+03  0.00000000000E+00 0. -1.
      99926    2    1    2    0    0  0.00000000000E+00  0.00000000000E+00  0.18549815929E+02  0.46343758192E+03  0.46306619037E+03 0.  0.
      99925    2    3    3    0    0 -0.46145248676E+02  0.10139883052E+03  0.58153545848E+02  0.29131242301E+03  0.26281169323E+03 0.  0.
         25    1    4    4    0    0  0.42221733984E+01  0.50135668019E+02  0.58684175415E+02  0.14704676977E+03  0.12509000000E+03 0.  0.
         25    1    3    3    0    0  0.46145248676E+02 -0.10139883052E+03 -0.39603729919E+02  0.17212515891E+03  0.12509000000E+03 0.  0.
         25    1    4    4    0    0 -0.50367422074E+02  0.51263162504E+02 -0.53062956655E+00  0.14426565324E+03  0.12509000000E+03 0.  0.
<mgrwt>
<rscale>  2 0.46306619E+03</rscale>
<asrwt>0</asrwt>
<pdfrwt beam="1">  1       21 0.35440250E-01 0.46306619E+03</pdfrwt>
<pdfrwt beam="2">  1       21 0.32712335E-01 0.46306619E+03</pdfrwt>
<totfact> 0.63730568E+04</totfact>
</mgrwt>
</event>
<event>
 7    0  0.4748297E-002  0.4523973E+03  0.7546771E-02  0.1027010E+00
         21   -1    0    0  502  501  0.00000000000E+00  0.00000000000E+00  0.45544942688E+02  0.45544942688E+02  0.00000000000E+00 0. -1.
         21   -1    0    0  501  502 -0.00000000000E+00 -0.00000000000E+00 -0.11234141096E+04  0.11234141096E+04  0.00000000000E+00 0. -1.
      99926    2    1    2    0    0  0.00000000000E+00  0.00000000000E+00 -0.10778691669E+04  0.11689590523E+04  0.45239730874E+03 0.  0.
      99925    2    3    3    0    0  0.26552418373E+02  0.93748943384E+02 -0.81572340798E+03  0.86259031640E+03  0.26298950609E+03 0.  0.
         25    1    4    4    0    0  0.28717712699E+02  0.86565571549E+02 -0.42973078248E+03  0.45676510234E+03  0.12509000000E+03 0.  0.
         25    1    3    3    0    0 -0.26552418373E+02 -0.93748943384E+02 -0.26214575896E+03  0.30636873592E+03  0.12509000000E+03 0.  0.
         25    1    4    4    0    0 -0.21652943260E+01  0.71833718351E+01 -0.38599262550E+03  0.40582521406E+03  0.12509000000E+03 0.  0.
<mgrwt>
<rscale>  2 0.45239731E+03</rscale>
<asrwt>0</asrwt>
<pdfrwt beam="1">  1       21 0.66977850E-02 0.45239731E+03</pdfrwt>
<pdfrwt beam="2">  1       21 0.16520797E+00 0.45239731E+03</pdfrwt>
<totfact> 0.33836672E+04</totfact>
</mgrwt>
</event>
<event>
 7    0  0.4748297E-002  0.4402851E+03  0.7546771E-02  0.1030659E+00
         21   -1    0    0  502  501  0.00000000000E+00  0.00000000000E+00  0.64950812116E+03  0.64950812116E+03  0.00000000000E+00 0.  1.
         21   -1    0    0  501  502 -0.00000000000E+00 -0.00000000000E+00 -0.74614544130E+02  0.74614544130E+02  0.00000000000E+00 0.  1.
      99926    2    1    2    0    0  0.00000000000E+00  0.00000000000E+00  0.57489357703E+03  0.72412266529E+03  0.44028514565E+03 0.  0.
      99925    2    3    3    0    0  0.53838486723E+01  0.78666641932E+02  0.46460623255E+03  0.53965523502E+03  0.26296652825E+03 0.  0.
         25    1    4    4    0    0  0.14267673678E+02  0.38729580968E+01  0.17884297310E+03  0.21874844787E+03  0.12509000000E+03 0.  0.
         25    1    3    3    0    0 -0.53838486723E+01 -0.78666641932E+02  0.11028734448E+03  0.18446743027E+03  0.12509000000E+03 0.  0.
         25    1    4    4    0    0 -0.88838250054E+01  0.74793683835E+02  0.28576325945E+03  0.32090678715E+03  0.12509000000E+03 0.  0.
<mgrwt>
<rscale>  2 0.44028515E+03</rscale>
<asrwt>0</asrwt>
<pdfrwt beam="1">  1       21 0.95515897E-01 0.44028515E+03</pdfrwt>
<pdfrwt beam="2">  1       21 0.10972727E-01 0.44028515E+03</pdfrwt>
<totfact> 0.58043990E+04</totfact>
</mgrwt>
</event>
<event>
 7    0  0.4748297E-002  0.4567971E+03  0.7546771E-02  0.1025714E+00
         21   -1    0    0  502  501  0.00000000000E+00  0.00000000000E+00  0.85507862453E+02  0.85507862453E+02  0.00000000000E+00 0. -1.
         21   -1    0    0  501  502 -0.00000000000E+00 -0.00000000000E+00 -0.61007148290E+03  0.61007148290E+03  0.00000000000E+00 0. -1.
      99926    2    1    2    0    0 -0.88817841970E-15  0.00000000000E+00 -0.52456362045E+03  0.69557934535E+03  0.45679714731E+03 0.  0.
      99925    2    3    3    0    0  0.42822637751E+01  0.20175087866E+02 -0.15693402640E+03  0.30670353166E+03  0.26270400785E+03 0.  0.
         25    1    3    3    0    0 -0.42822637751E+01 -0.20175087866E+02 -0.36762959405E+03  0.38887581369E+03  0.12509000000E+03 0.  0.
         25    1    4    4    0    0 -0.27767639615E+02  0.19118946653E+02 -0.49380604352E+02  0.13864533211E+03  0.12509000000E+03 0.  0.
         25    1    4    4    0    0  0.32049903390E+02  0.10561412130E+01 -0.10755342205E+03  0.16805819955E+03  0.12509000000E+03 0.  0.
<mgrwt>
<rscale>  2 0.45679715E+03</rscale>
<asrwt>0</asrwt>
<pdfrwt beam="1">  1       21 0.12574686E-01 0.45679715E+03</pdfrwt>
<pdfrwt beam="2">  1       21 0.89716392E-01 0.45679715E+03</pdfrwt>
<totfact> 0.52398535E+04</totfact>
</mgrwt>
</event>
<event>
 7    0  0.4748297E-002  0.4528377E+03  0.7546771E-02  0.1026879E+00
         21   -1    0    0  502  501  0.00000000000E+00  0.00000000000E+00  0.81426177201E+03  0.81426177201E+03  0.00000000000E+00 0. -1.
         21   -1    0    0  501  502 -0.00000000000E+00 -0.00000000000E+00 -0.62959481087E+02  0.62959481087E+02  0.00000000000E+00 0. -1.
      99926    2    1    2    0    0  0.00000000000E+00  0.00000000000E+00  0.75130229092E+03  0.87722125310E+03  0.45283771325E+03 0.  0.
      99925    2    3    3    0    0  0.80414271736E+02 -0.71684287342E+02  0.52703800279E+03  0.59874850545E+03  0.26291752365E+03 0.  0.
         25    1    4    4    0    0  0.61601495748E+02 -0.52924580906E+01  0.29348033079E+03  0.32496302413E+03  0.12509000000E+03 0.  0.
         25    1    4    4    0    0  0.18812775988E+02 -0.66391829251E+02  0.23355767200E+03  0.27378548132E+03  0.12509000000E+03 0.  0.
         25    1    3    3    0    0 -0.80414271736E+02  0.71684287342E+02  0.22426428813E+03  0.27847274765E+03  0.12509000000E+03 0.  0.
<mgrwt>
<rscale>  2 0.45283771E+03</rscale>
<asrwt>0</asrwt>
<pdfrwt beam="1">  1       21 0.11974437E+00 0.45283771E+03</pdfrwt>
<pdfrwt beam="2">  1       21 0.92587477E-02 0.45283771E+03</pdfrwt>
<totfact> 0.44990363E+04</totfact>
</mgrwt>
</event>
<event>
 7    0  0.4748297E-002  0.4516919E+03  0.7546771E-02  0.1027219E+00
         21   -1    0    0  502  501  0.00000000000E+00  0.00000000000E+00  0.68798975649E+03  0.68798975649E+03  0.00000000000E+00 0. -1.
         21   -1    0    0  501  502 -0.00000000000E+00 -0.00000000000E+00 -0.74138291930E+02  0.74138291930E+02  0.00000000000E+00 0. -1.
      99926    2    1    2    0    0  0.00000000000E+00  0.00000000000E+00  0.61385146456E+03  0.76212804842E+03  0.45169186582E+03 0.  0.
      99925    2    3    3    0    0 -0.10442886601E+02  0.70143517265E+02  0.24539453928E+03  0.36660664472E+03  0.26296917149E+03 0.  0.
         25    1    4    4    0    0 -0.15799948110E+01  0.26921367740E+02  0.17394610975E+03  0.21594446884E+03  0.12509000000E+03 0.  0.
         25    1    3    3    0    0  0.10442886601E+02 -0.70143517265E+02  0.36845692528E+03  0.39552140369E+03  0.12509000000E+03 0.  0.
         25    1    4    4    0    0 -0.88628917897E+01  0.43222149525E+02  0.71448429532E+02  0.15066217589E+03  0.12509000000E+03 0.  0.
<mgrwt>
<rscale>  2 0.45169187E+03</rscale>
<asrwt>0</asrwt>
<pdfrwt beam="1">  1       21 0.10117496E+00 0.45169187E+03</pdfrwt>
<pdfrwt beam="2">  1       21 0.10902690E-01 0.45169187E+03</pdfrwt>
<totfact> 0.50961613E+04</totfact>
</mgrwt>
</event>
<event>
 7    0  0.4748297E-002  0.4551721E+03  0.7546771E-02  0.1026191E+00
         21   -1    0    0  502  501  0.00000000000E+00  0.00000000000E+00  0.31332073154E+03  0.31332073154E+03  0.00000000000E+00 0.  1.
         21   -1    0    0  501  502 -0.00000000000E+00 -0.00000000000E+00 -0.16531111573E+03  0.16531111573E+03  0.00000000000E+00 0.  1.
      99926    2    1    2    0    0 -0.14210854715E-13  0.00000000000E+00  0.14800961581E+03  0.47863184728E+03  0.45517205413E+03 0.  0.
      99925    2    3    3    0    0  0.79301147703E+02  0.70401885930E+01  0.84280316651E+01  0.27499304200E+03  0.26308155608E+03 0.  0.
         25    1    3    3    0    0 -0.79301147703E+02 -0.70401885930E+01  0.13958158415E+03  0.20363880528E+03  0.12509000000E+03 0.  0.
         25    1    4    4    0    0  0.79852448419E+01 -0.22587712756E+02 -0.42932516434E+01  0.12743590158E+03  0.12509000000E+03 0.  0.
         25    1    4    4    0    0  0.71315902861E+02  0.29627901349E+02  0.12721283309E+02  0.14755714042E+03  0.12509000000E+03 0.  0.
<mgrwt>
<rscale>  2 0.45517205E+03</rscale>
<asrwt>0</asrwt>
<pdfrwt beam="1">  1       21 0.46076578E-01 0.45517205E+03</pdfrwt>
<pdfrwt beam="2">  1       21 0.24310458E-01 0.45517205E+03</pdfrwt>
<totfact> 0.66708677E+04</totfact>
</mgrwt>
</event>
<event>
 7    0  0.4748297E-002  0.4519418E+03  0.7546771E-02  0.1027145E+00
         21   -1    0    0  502  501  0.00000000000E+00  0.00000000000E+00  0.10681746328E+04  0.10681746328E+04  0.00000000000E+00 0.  1.
         21   -1    0    0  501  502 -0.00000000000E+00 -0.00000000000E+00 -0.47803848009E+02  0.47803848009E+02  0.00000000000E+00 0.  1.
      99926    2    1    2    0    0  0.00000000000E+00  0.00000000000E+00  0.10203707848E+04  0.11159784808E+04  0.45194184490E+03 0.  0.
      99925    2    3    3    0    0  0.25607586568E+02 -0.54389459686E+02  0.87218397565E+03  0.91294941807E+03  0.26297868877E+03 0.  0.
         25    1    4    4    0    0  0.49651168247E+02 -0.33256078345E+02  0.39576879669E+03  0.41934669880E+03  0.12509000000E+03 0.  0.
         25    1    3    3    0    0 -0.25607586568E+02  0.54389459686E+02  0.14818680913E+03  0.20302906273E+03  0.12509000000E+03 0.  0.
         25    1    4    4    0    0 -0.24043581679E+02 -0.21133381341E+02  0.47641517896E+03  0.49360271927E+03  0.12509000000E+03 0.  0.
<mgrwt>
<rscale>  2 0.45194184E+03</rscale>
<asrwt>0</asrwt>
<pdfrwt beam="1">  1       21 0.15708449E+00 0.45194184E+03</pdfrwt>
<pdfrwt beam="2">  1       21 0.70299783E-02 0.45194184E+03</pdfrwt>
<totfact> 0.35784376E+04</totfact>
</mgrwt>
</event>
<event>
 7    0  0.4748297E-002  0.4575241E+03  0.7546771E-02  0.1025502E+00
         21   -1    0    0  502  501  0.00000000000E+00  0.00000000000E+00  0.17548485351E+03  0.17548485351E+03  0.00000000000E+00 0.  1.
         21   -1    0    0  501  502 -0.00000000000E+00 -0.00000000000E+00 -0.29821416801E+03  0.29821416801E+03  0.00000000000E+00 0.  1.
      99926    2    1    2    0    0  0.00000000000E+00  0.00000000000E+00 -0.12272931450E+03  0.47369902152E+03  0.45752407407E+03 0.  0.
      99925    2    3    3    0    0  0.74333886656E+02  0.14766198888E+02  0.13177942843E+02  0.27404467513E+03  0.26302710593E+03 0.  0.
         25    1    4    4    0    0  0.92462322880E+01  0.21540957511E+02 -0.20505744989E+02  0.12890887999E+03  0.12509000000E+03 0.  0.
         25    1    4    4    0    0  0.65087654368E+02 -0.67747586231E+01  0.33683687832E+02  0.14513579514E+03  0.12509000000E+03 0.  0.
         25    1    3    3    0    0 -0.74333886656E+02 -0.14766198888E+02 -0.13590725735E+03  0.19965434639E+03  0.12509000000E+03 0.  0.
<mgrwt>
<rscale>  2 0.45752407E+03</rscale>
<asrwt>0</asrwt>
<pdfrwt beam="1">  1       21 0.25806597E-01 0.45752407E+03</pdfrwt>
<pdfrwt beam="2">  1       21 0.43855024E-01 0.45752407E+03</pdfrwt>
<totfact> 0.65833384E+04</totfact>
</mgrwt>
</event>
<event>
 7    0  0.4748297E-002  0.4415361E+03  0.7546771E-02  0.1030277E+00
         21   -1    0    0  502  501  0.00000000000E+00  0.00000000000E+00  0.16600745643E+02  0.16600745643E+02  0.00000000000E+00 0. -1.
         21   -1    0    0  501  502 -0.00000000000E+00 -0.00000000000E+00 -0.29359239088E+04  0.29359239088E+04  0.00000000000E+00 0. -1.
      99926    2    1    2    0    0  0.00000000000E+00  0.35527136788E-14 -0.29193231631E+04  0.29525246544E+04  0.44153607344E+03 0.  0.
      99925    2    3    3    0    0  0.43887725317E+02 -0.25118236397E+02 -0.12805760213E+04  0.13082324781E+04  0.26275504204E+03 0.  0.
         25    1    4    4    0    0 -0.12902210013E+02 -0.23317211950E+02 -0.70311235147E+03  0.71465001664E+03  0.12509000000E+03 0.  0.
         25    1    4    4    0    0  0.56789935330E+02 -0.18010244462E+01 -0.57746366985E+03  0.59358246145E+03  0.12509000000E+03 0.  0.
         25    1    3    3    0    0 -0.43887725317E+02  0.25118236397E+02 -0.16387471418E+04  0.16442921763E+04  0.12509000000E+03 0.  0.
<mgrwt>
<rscale>  2 0.44153607E+03</rscale>
<asrwt>0</asrwt>
<pdfrwt beam="1">  1       21 0.24412875E-02 0.44153607E+03</pdfrwt>
<pdfrwt beam="2">  1       21 0.43175326E+00 0.44153607E+03</pdfrwt>
<totfact> 0.39145884E+03</totfact>
</mgrwt>
</event>
<event>
 7    0  0.4748297E-002  0.4468279E+03  0.7546771E-02  0.1028672E+00
         21   -1    0    0  502  501  0.00000000000E+00  0.00000000000E+00  0.41519109724E+02  0.41519109724E+02  0.00000000000E+00 0.  1.
         21   -1    0    0  501  502 -0.00000000000E+00 -0.00000000000E+00 -0.12021884505E+04  0.12021884505E+04  0.00000000000E+00 0.  1.
      99926    2    1    2    0    0  0.00000000000E+00 -0.14210854715E-13 -0.11606693408E+04  0.12437075602E+04  0.44682790506E+03 0.  0.
      99925    2    3    3    0    0  0.46115015860E+02  0.91094196763E+02 -0.66472431928E+03  0.72213904141E+03  0.26306202142E+03 0.  0.
         25    1    4    4    0    0  0.14129597161E+02  0.10852017401E+02 -0.24364202612E+03  0.27445647522E+03  0.12509000000E+03 0.  0.
         25    1    3    3    0    0 -0.46115015860E+02 -0.91094196763E+02 -0.49594502149E+03  0.52156851881E+03  0.12509000000E+03 0.  0.
         25    1    4    4    0    0  0.31985418699E+02  0.80242179362E+02 -0.42108229316E+03  0.44768256619E+03  0.12509000000E+03 0.  0.
<mgrwt>
<rscale>  2 0.44682791E+03</rscale>
<asrwt>0</asrwt>
<pdfrwt beam="1">  1       21 0.61057513E-02 0.44682791E+03</pdfrwt>
<pdfrwt beam="2">  1       21 0.17679242E+00 0.44682791E+03</pdfrwt>
<totfact> 0.32833840E+04</totfact>
</mgrwt>
</event>
<event>
 7    0  0.4748297E-002  0.4015685E+03  0.7546771E-02  0.1043238E+00
         21   -1    0    0  502  501  0.00000000000E+00  0.00000000000E+00  0.10739277474E+04  0.10739277474E+04  0.00000000000E+00 0. -1.
         21   -1    0    0  501  502 -0.00000000000E+00 -0.00000000000E+00 -0.37539138968E+02  0.37539138968E+02  0.00000000000E+00 0. -1.
      99926    2    1    2    0    0 -0.35527136788E-14  0.00000000000E+00  0.10363886084E+04  0.11114668864E+04  0.40156853937E+03 0.  0.
      99925    2    3    3    0    0 -0.28752089870E+02  0.37002419809E+02  0.65588825065E+03  0.70820035898E+03  0.26298762208E+03 0.  0.
         25    1    4    4    0    0 -0.35296953271E+02 -0.14941214960E+02  0.29657333934E+03  0.32414868274E+03  0.12509000000E+03 0.  0.
         25    1    4    4    0    0  0.65448634018E+01  0.51943634770E+02  0.35931491131E+03  0.38405167624E+03  0.12509000000E+03 0.  0.
         25    1    3    3    0    0  0.28752089870E+02 -0.37002419809E+02  0.38050035779E+03  0.40326652740E+03  0.12509000000E+03 0.  0.
<mgrwt>
<rscale>  2 0.40156854E+03</rscale>
<asrwt>0</asrwt>
<pdfrwt beam="1">  1       21 0.15793053E+00 0.40156854E+03</pdfrwt>
<pdfrwt beam="2">  1       21 0.55204623E-02 0.40156854E+03</pdfrwt>
<totfact> 0.54500535E+04</totfact>
</mgrwt>
</event>
<event>
 7    0  0.4748297E-002  0.4208887E+03  0.7546771E-02  0.1036777E+00
         21   -1    0    0  502  501  0.00000000000E+00  0.00000000000E+00  0.32751678807E+03  0.32751678807E+03  0.00000000000E+00 0.  1.
         21   -1    0    0  501  502 -0.00000000000E+00 -0.00000000000E+00 -0.13522000510E+03  0.13522000510E+03  0.00000000000E+00 0.  1.
      99926    2    1    2    0    0  0.35527136788E-14  0.00000000000E+00  0.19229678297E+03  0.46273679317E+03  0.42088868720E+03 0.  0.
      99925    2    3    3    0    0 -0.24946522003E+02  0.68738935009E+01  0.20508815688E+03  0.33435958835E+03  0.26280335397E+03 0.  0.
         25    1    4    4    0    0 -0.52518909415E+02 -0.83595449654E+00  0.10130010814E+03  0.16931672887E+03  0.12509000000E+03 0.  0.
         25    1    3    3    0    0  0.24946522003E+02 -0.68738935009E+01 -0.12791373904E+02  0.12837720482E+03  0.12509000000E+03 0.  0.
         25    1    4    4    0    0  0.27572387412E+02  0.77098479974E+01  0.10378804874E+03  0.16504285948E+03  0.12509000000E+03 0.  0.
<mgrwt>
<rscale>  2 0.42088869E+03</rscale>
<asrwt>0</asrwt>
<pdfrwt beam="1">  1       21 0.48164234E-01 0.42088869E+03</pdfrwt>
<pdfrwt beam="2">  1       21 0.19885295E-01 0.42088869E+03</pdfrwt>
<totfact> 0.89984119E+04</totfact>
</mgrwt>
</event>
<event>
 7    0  0.4748297E-002  0.4546266E+03  0.7546771E-02  0.1026351E+00
         21   -1    0    0  502  501  0.00000000000E+00  0.00000000000E+00  0.41333424701E+03  0.41333424701E+03  0.00000000000E+00 0. -1.
         21   -1    0    0  501  502 -0.00000000000E+00 -0.00000000000E+00 -0.12501102997E+03  0.12501102997E+03  0.00000000000E+00 0. -1.
      99926    2    1    2    0    0  0.00000000000E+00  0.00000000000E+00  0.28832321704E+03  0.53834527698E+03  0.45462661577E+03 0.  0.
      99925    2    3    3    0    0 -0.44985333241E+02  0.77227565026E+02  0.99783410321E+02  0.29507065064E+03  0.26291097902E+03 0.  0.
         25    1    4    4    0    0 -0.39272889304E+02  0.40897516995E+02  0.11946059670E+02  0.13785928758E+03  0.12509000000E+03 0.  0.
         25    1    4    4    0    0 -0.57124439369E+01  0.36330048031E+02  0.87837350651E+02  0.15721136306E+03  0.12509000000E+03 0.  0.
         25    1    3    3    0    0  0.44985333241E+02 -0.77227565026E+02  0.18853980672E+03  0.24327462634E+03  0.12509000000E+03 0.  0.
<mgrwt>
<rscale>  2 0.45462662E+03</rscale>
<asrwt>0</asrwt>
<pdfrwt beam="1">  1       21 0.60784448E-01 0.45462662E+03</pdfrwt>
<pdfrwt beam="2">  1       21 0.18383975E-01 0.45462662E+03</pdfrwt>
<totfact> 0.62828755E+04</totfact>
</mgrwt>
</event>
<event>
 7    0  0.4748297E-002  0.4715523E+03  0.7546771E-02  0.1021483E+00
         21   -1    0    0  502  501  0.00000000000E+00  0.00000000000E+00  0.92109739338E+03  0.92109739338E+03  0.00000000000E+00 0. -1.
         21   -1    0    0  501  502 -0.00000000000E+00 -0.00000000000E+00 -0.60352342436E+02  0.60352342436E+02  0.00000000000E+00 0. -1.
      99926    2    1    2    0    0  0.00000000000E+00  0.00000000000E+00  0.86074505094E+03  0.98144973581E+03  0.47155226774E+03 0.  0.
      99925    2    3    3    0    0 -0.85131896965E+02  0.94776077411E+02  0.56094121645E+03  0.63250877804E+03  0.26302540042E+03 0.  0.
         25    1    3    3    0    0  0.85131896965E+02 -0.94776077411E+02  0.29980383450E+03  0.34894095777E+03  0.12509000000E+03 0.  0.
         25    1    4    4    0    0 -0.75393786325E+02  0.43264706144E+02  0.24232236657E+03  0.28622315639E+03  0.12509000000E+03 0.  0.
         25    1    4    4    0    0 -0.97381106404E+01  0.51511371266E+02  0.31861884987E+03  0.34628562165E+03  0.12509000000E+03 0.  0.
<mgrwt>
<rscale>  2 0.47155227E+03</rscale>
<asrwt>0</asrwt>
<pdfrwt beam="1">  1       21 0.13545549E+00 0.47155227E+03</pdfrwt>
<pdfrwt beam="2">  1       21 0.88753450E-02 0.47155227E+03</pdfrwt>
<totfact> 0.35123017E+04</totfact>
</mgrwt>
</event>
<event>
 7    0  0.4748297E-002  0.4545315E+03  0.7546771E-02  0.1026379E+00
         21   -1    0    0  502  501  0.00000000000E+00  0.00000000000E+00  0.27777196785E+03  0.27777196785E+03  0.00000000000E+00 0.  1.
         21   -1    0    0  501  502 -0.00000000000E+00 -0.00000000000E+00 -0.18594284956E+03  0.18594284956E+03  0.00000000000E+00 0.  1.
      99926    2    1    2    0    0  0.00000000000E+00  0.14210854715E-13  0.91829118285E+02  0.46371481741E+03  0.45453145647E+03 0.  0.
      99925    2    3    3    0    0 -0.49687531460E+02 -0.80733027903E+02  0.12012367584E+03  0.30423202002E+03  0.26294629096E+03 0.  0.
         25    1    4    4    0    0 -0.28839962305E+02 -0.81768828712E+02  0.74485663981E+02  0.16945060346E+03  0.12509000000E+03 0.  0.
         25    1    4    4    0    0 -0.20847569155E+02  0.10358008089E+01  0.45638011860E+02  0.13478141656E+03  0.12509000000E+03 0.  0.
         25    1    3    3    0    0  0.49687531460E+02  0.80733027903E+02 -0.28294557557E+02  0.15948279739E+03  0.12509000000E+03 0.  0.
<mgrwt>
<rscale>  2 0.45453146E+03</rscale>
<asrwt>0</asrwt>
<pdfrwt beam="1">  1       21 0.40848819E-01 0.45453146E+03</pdfrwt>
<pdfrwt beam="2">  1       21 0.27344537E-01 0.45453146E+03</pdfrwt>
<totfact> 0.68159265E+04</totfact>
</mgrwt>
</event>
<event>
 7    0  0.4748297E-002  0.4435359E+03  0.7546771E-02  0.1029667E+00
         21   -1    0    0  502  501  0.00000000000E+00  0.00000000000E+00  0.25890956743E+04  0.25890956743E+04  0.00000000000E+00 0.  1.
         21   -1    0    0  501  502 -0.00000000000E+00 -0.00000000000E+00 -0.18995444407E+02  0.18995444407E+02  0.00000000000E+00 0.  1.
      99926    2    1    2    0    0  0.00000000000E+00  0.35527136788E-14  0.25701002299E+04  0.26080911187E+04  0.44353589684E+03 0.  0.
      99925    2    3    3    0    0  0.95203434937E+02 -0.29118469297E+02  0.15045500694E+04  0.15306143292E+04  0.26305462203E+03 0.  0.
         25    1    3    3    0    0 -0.95203434937E+02  0.29118469297E+02  0.10655501605E+04  0.10774767895E+04  0.12509000000E+03 0.  0.
         25    1    4    4    0    0  0.57806297622E+02 -0.48973338688E+02  0.90036254837E+03  0.91216236633E+03  0.12509000000E+03 0.  0.
         25    1    4    4    0    0  0.37397137314E+02  0.19854869391E+02  0.60418752101E+03  0.61845196286E+03  0.12509000000E+03 0.  0.
<mgrwt>
<rscale>  2 0.44353590E+03</rscale>
<asrwt>0</asrwt>
<pdfrwt beam="1">  1       21 0.38074912E+00 0.44353590E+03</pdfrwt>
<pdfrwt beam="2">  1       21 0.27934495E-02 0.44353590E+03</pdfrwt>
<totfact> 0.66622188E+03</totfact>
</mgrwt>
</event>
<event>
 7    0  0.4748297E-002  0.4548273E+03  0.7546771E-02  0.1026292E+00
         21   -1    0    0  502  501  0.00000000000E+00  0.00000000000E+00  0.18382915874E+03  0.18382915874E+03  0.00000000000E+00 0. -1.
         21   -1    0    0  501  502 -0.00000000000E+00 -0.00000000000E+00 -0.28133173862E+03  0.28133173862E+03  0.00000000000E+00 0. -1.
      99926    2    1    2    0    0  0.00000000000E+00 -0.14210854715E-13 -0.97502579879E+02  0.46516089736E+03  0.45482733795E+03 0.  0.
      99925    2    3    3    0    0  0.26785058648E+02  0.10672610239E+03 -0.35105751157E+02  0.28725987816E+03  0.26301696435E+03 0.  0.
         25    1    4    4    0    0  0.66841405069E+01  0.25873071713E+02  0.15099540215E+02  0.12880061253E+03  0.12509000000E+03 0.  0.
         25    1    3    3    0    0 -0.26785058648E+02 -0.10672610239E+03 -0.62396828722E+02  0.17790101920E+03  0.12509000000E+03 0.  0.
         25    1    4    4    0    0  0.20100918141E+02  0.80853030680E+02 -0.50205291372E+02  0.15845926562E+03  0.12509000000E+03 0.  0.
<mgrwt>
<rscale>  2 0.45482734E+03</rscale>
<asrwt>0</asrwt>
<pdfrwt beam="1">  1       21 0.27033700E-01 0.45482734E+03</pdfrwt>
<pdfrwt beam="2">  1       21 0.41372314E-01 0.45482734E+03</pdfrwt>
<totfact> 0.67890863E+04</totfact>
</mgrwt>
</event>
<event>
 7    0  0.4748297E-002  0.4543860E+03  0.7546771E-02  0.1026422E+00
         21   -1    0    0  502  501  0.00000000000E+00  0.00000000000E+00  0.96720167228E+02  0.96720167228E+02  0.00000000000E+00 0.  1.
         21   -1    0    0  501  502 -0.00000000000E+00 -0.00000000000E+00 -0.53367003281E+03  0.53367003281E+03  0.00000000000E+00 0.  1.
      99926    2    1    2    0    0  0.71054273576E-14  0.00000000000E+00 -0.43694986558E+03  0.63039020003E+03  0.45438598049E+03 0.  0.
      99925    2    3    3    0    0  0.54846672665E+02  0.90684416727E+02 -0.32771220653E+03  0.43338209057E+03  0.26304548120E+03 0.  0.
         25    1    4    4    0    0  0.10738364975E+02  0.38416780028E+02 -0.21380003112E+03  0.25089663784E+03  0.12509000000E+03 0.  0.
         25    1    4    4    0    0  0.44108307690E+02  0.52267636699E+02 -0.11391217540E+03  0.18248545273E+03  0.12509000000E+03 0.  0.
         25    1    3    3    0    0 -0.54846672665E+02 -0.90684416727E+02 -0.10923765905E+03  0.19700810946E+03  0.12509000000E+03 0.  0.
<mgrwt>
<rscale>  2 0.45438598E+03</rscale>
<asrwt>0</asrwt>
<pdfrwt beam="1">  1       21 0.14223554E-01 0.45438598E+03</pdfrwt>
<pdfrwt beam="2">  1       21 0.78480889E-01 0.45438598E+03</pdfrwt>
<totfact> 0.57121967E+04</totfact>
</mgrwt>
</event>
<event>
 7    0  0.4748297E-002  0.4569983E+03  0.7546771E-02  0.1025655E+00
         21   -1    0    0  502  501  0.00000000000E+00  0.00000000000E+00  0.11496935999E+03  0.11496935999E+03  0.00000000000E+00 0. -1.
         21   -1    0    0  501  502 -0.00000000000E+00 -0.00000000000E+00 -0.45413713800E+03  0.45413713800E+03  0.00000000000E+00 0. -1.
      99926    2    1    2    0    0  0.00000000000E+00  0.00000000000E+00 -0.33916777801E+03  0.56910649799E+03  0.45699827615E+03 0.  0.
      99925    2    3    3    0    0 -0.34121910442E+02  0.93150881629E+02 -0.14046199218E+03  0.31420869700E+03  0.26297555496E+03 0.  0.
         25    1    4    4    0    0  0.19668029833E+01  0.23741495036E+02 -0.32593735319E+02  0.13144347296E+03  0.12509000000E+03 0.  0.
         25    1    3    3    0    0  0.34121910442E+02 -0.93150881629E+02 -0.19870578584E+03  0.25489780098E+03  0.12509000000E+03 0.  0.
         25    1    4    4    0    0 -0.36088713425E+02  0.69409386593E+02 -0.10786825686E+03  0.18276522405E+03  0.12509000000E+03 0.  0.
<mgrwt>
<rscale>  2 0.45699828E+03</rscale>
<asrwt>0</asrwt>
<pdfrwt beam="1">  1       21 0.16907259E-01 0.45699828E+03</pdfrwt>
<pdfrwt beam="2">  1       21 0.66784872E-01 0.45699828E+03</pdfrwt>
<totfact> 0.59672734E+04</totfact>
</mgrwt>
</event>
<event>
 6    0  0.4748297E-002  0.4548043E+03  0.7546771E-02  0.1026299E+00
         21   -1    0    0  502  501  0.00000000000E+00  0.00000000000E+00  0.22181817958E+03  0.22181817958E+03  0.00000000000E+00 0. -1.
         21   -1    0    0  501  502 -0.00000000000E+00 -0.00000000000E+00 -0.23312669072E+03  0.23312669072E+03  0.00000000000E+00 0. -1.
      99926    2    1    2    0    0  0.00000000000E+00  0.00000000000E+00 -0.11308511144E+02  0.45494487030E+03  0.45480430142E+03 0.  0.
         25    1    3    3    0    0  0.80481178948E+02 -0.38137183767E+02  0.62641308865E+02  0.16584060609E+03  0.12509000000E+03 0.  0.
         25    1    3    3    0    0 -0.12736630199E+02  0.51998514845E+02 -0.27497924814E+02  0.13881538554E+03  0.12509000000E+03 0.  0.
         25    1    3    3    0    0 -0.67744548749E+02 -0.13861331077E+02 -0.46451895195E+02  0.15028887867E+03  0.12509000000E+03 0.  0.
<mgrwt>
<rscale>  2 0.45480430E+03</rscale>
<asrwt>0</asrwt>
<pdfrwt beam="1">  1       21 0.32620320E-01 0.45480430E+03</pdfrwt>
<pdfrwt beam="2">  1       21 0.34283337E-01 0.45480430E+03</pdfrwt>
<totfact> 0.68656981E+04</totfact>
</mgrwt>
</event>
<event>
 7    0  0.4748297E-002  0.4176665E+03  0.7546771E-02  0.1037828E+00
         21   -1    0    0  502  501  0.00000000000E+00  0.00000000000E+00  0.66229253174E+02  0.66229253174E+02  0.00000000000E+00 0.  1.
         21   -1    0    0  501  502 -0.00000000000E+00 -0.00000000000E+00 -0.65849030611E+03  0.65849030611E+03  0.00000000000E+00 0.  1.
      99926    2    1    2    0    0  0.71054273576E-14  0.00000000000E+00 -0.59226105294E+03  0.72471955929E+03  0.41766647554E+03 0.  0.
      99925    2    3    3    0    0  0.40843770804E+02 -0.52196996290E+02 -0.33372195736E+03  0.42996082391E+03  0.26287492319E+03 0.  0.
         25    1    4    4    0    0  0.28884976286E+02 -0.66316086731E+02 -0.17077267430E+03  0.22370288242E+03  0.12509000000E+03 0.  0.
         25    1    3    3    0    0 -0.40843770804E+02  0.52196996290E+02 -0.25853909558E+03  0.29475873537E+03  0.12509000000E+03 0.  0.
         25    1    4    4    0    0  0.11958794518E+02  0.14119090442E+02 -0.16294928305E+03  0.20625794149E+03  0.12509000000E+03 0.  0.
<mgrwt>
<rscale>  2 0.41766648E+03</rscale>
<asrwt>0</asrwt>
<pdfrwt beam="1">  1       21 0.97395964E-02 0.41766648E+03</pdfrwt>
<pdfrwt beam="2">  1       21 0.96836806E-01 0.41766648E+03</pdfrwt>
<totfact> 0.69972541E+04</totfact>
</mgrwt>
</event>
<event>
 7    0  0.4748297E-002  0.4562629E+03  0.7546771E-02  0.1025871E+00
         21   -1    0    0  502  501  0.00000000000E+00  0.00000000000E+00  0.11048582782E+03  0.11048582782E+03  0.00000000000E+00 0.  1.
         21   -1    0    0  501  502 -0.00000000000E+00 -0.00000000000E+00 -0.47104649395E+03  0.47104649395E+03  0.00000000000E+00 0.  1.
      99926    2    1    2    0    0  0.00000000000E+00  0.00000000000E+00 -0.36056066613E+03  0.58153232178E+03  0.45626291468E+03 0.  0.
      99925    2    3    3    0    0  0.18111896294E+02  0.81276354636E+02 -0.32656563506E+03  0.42746397056E+03  0.26295711725E+03 0.  0.
         25    1    4    4    0    0  0.39673016407E+02  0.29003735752E+02 -0.12465791630E+03  0.18330921721E+03  0.12509000000E+03 0.  0.
         25    1    3    3    0    0 -0.18111896294E+02 -0.81276354636E+02 -0.33995031069E+02  0.15406835122E+03  0.12509000000E+03 0.  0.
         25    1    4    4    0    0 -0.21561120113E+02  0.52272618885E+02 -0.20190771876E+03  0.24415475335E+03  0.12509000000E+03 0.  0.
<mgrwt>
<rscale>  2 0.45626291E+03</rscale>
<asrwt>0</asrwt>
<pdfrwt beam="1">  1       21 0.16247916E-01 0.45626291E+03</pdfrwt>
<pdfrwt beam="2">  1       21 0.69271542E-01 0.45626291E+03</pdfrwt>
<totfact> 0.59236024E+04</totfact>
</mgrwt>
</event>
<event>
 7    0  0.4748297E-002  0.4570675E+03  0.7546771E-02  0.1025635E+00
         21   -1    0    0  502  501  0.00000000000E+00  0.00000000000E+00  0.15359491625E+03  0.15359491625E+03  0.00000000000E+00 0. -1.
         21   -1    0    0  501  502 -0.00000000000E+00 -0.00000000000E+00 -0.34003512239E+03  0.34003512239E+03  0.00000000000E+00 0. -1.
      99926    2    1    2    0    0  0.00000000000E+00  0.00000000000E+00 -0.18644020614E+03  0.49363003864E+03  0.45706746175E+03 0.  0.
      99925    2    3    3    0    0 -0.11140280180E+03  0.18275633457E+02 -0.14215325965E+03  0.31940769577E+03  0.26281009086E+03 0.  0.
         25    1    4    4    0    0 -0.31668221881E+02 -0.16935830319E+02 -0.90162064482E+02  0.15832373353E+03  0.12509000000E+03 0.  0.
         25    1    4    4    0    0 -0.79734579923E+02  0.35211463776E+02 -0.51991195169E+02  0.16108396224E+03  0.12509000000E+03 0.  0.
         25    1    3    3    0    0  0.11140280180E+03 -0.18275633457E+02 -0.44286946488E+02  0.17422234288E+03  0.12509000000E+03 0.  0.
<mgrwt>
<rscale>  2 0.45706746E+03</rscale>
<asrwt>0</asrwt>
<pdfrwt beam="1">  1       21 0.22587488E-01 0.45706746E+03</pdfrwt>
<pdfrwt beam="2">  1       21 0.50005164E-01 0.45706746E+03</pdfrwt>
<totfact> 0.64652850E+04</totfact>
</mgrwt>
</event>
<event>
 7    0  0.4748297E-002  0.4553967E+03  0.7546771E-02  0.1026125E+00
         21   -1    0    0  502  501  0.00000000000E+00  0.00000000000E+00  0.41655181250E+03  0.41655181250E+03  0.00000000000E+00 0.  1.
         21   -1    0    0  501  502 -0.00000000000E+00 -0.00000000000E+00 -0.12446601830E+03  0.12446601830E+03  0.00000000000E+00 0.  1.
      99926    2    1    2    0    0  0.00000000000E+00  0.00000000000E+00  0.29208579420E+03  0.54101783080E+03  0.45539673041E+03 0.  0.
      99925    2    3    3    0    0  0.35725911344E+02  0.72325404562E+02  0.27848793782E+03  0.39155307012E+03  0.26315579098E+03 0.  0.
         25    1    4    4    0    0  0.39050910618E+02  0.30280044936E+02  0.18939482408E+03  0.23229240674E+03  0.12509000000E+03 0.  0.
         25    1    4    4    0    0 -0.33249992747E+01  0.42045359626E+02  0.89093113741E+02  0.15926066339E+03  0.12509000000E+03 0.  0.
         25    1    3    3    0    0 -0.35725911344E+02 -0.72325404562E+02  0.13597856385E+02  0.14946476068E+03  0.12509000000E+03 0.  0.
<mgrwt>
<rscale>  2 0.45539673E+03</rscale>
<asrwt>0</asrwt>
<pdfrwt beam="1">  1       21 0.61257619E-01 0.45539673E+03</pdfrwt>
<pdfrwt beam="2">  1       21 0.18303826E-01 0.45539673E+03</pdfrwt>
<totfact> 0.62268264E+04</totfact>
</mgrwt>
</event>
<event>
 7    0  0.4748297E-002  0.4570301E+03  0.7546771E-02  0.1025646E+00
         21   -1    0    0  502  501  0.00000000000E+00  0.00000000000E+00  0.84006260945E+03  0.84006260945E+03  0.00000000000E+00 0.  1.
         21   -1    0    0  501  502 -0.00000000000E+00 -0.00000000000E+00 -0.62160998619E+02  0.62160998619E+02  0.00000000000E+00 0.  1.
      99926    2    1    2    0    0  0.35527136788E-14  0.35527136788E-14  0.77790161083E+03  0.90222360807E+03  0.45703011151E+03 0.  0.
      99925    2    3    3    0    0 -0.15690378088E+02 -0.29079924430E+02  0.70617206705E+03  0.75428961765E+03  0.26302473087E+03 0.  0.
         25    1    4    4    0    0  0.22136907688E+02 -0.35824061485E+02  0.30559399843E+03  0.33287926646E+03  0.12509000000E+03 0.  0.
         25    1    4    4    0    0 -0.37827285776E+02  0.67441370546E+01  0.40057806862E+03  0.42141035119E+03  0.12509000000E+03 0.  0.
         25    1    3    3    0    0  0.15690378088E+02  0.29079924430E+02  0.71729543786E+02  0.14793399042E+03  0.12509000000E+03 0.  0.
<mgrwt>
<rscale>  2 0.45703011E+03</rscale>
<asrwt>0</asrwt>
<pdfrwt beam="1">  1       21 0.12353861E+00 0.45703011E+03</pdfrwt>
<pdfrwt beam="2">  1       21 0.91413239E-02 0.45703011E+03</pdfrwt>
<totfact> 0.42458809E+04</totfact>
</mgrwt>
</event>
<event>
 7    0  0.4748297E-002  0.5670983E+03  0.7546771E-02  0.9976120E-01
         21   -1    0    0  502  501  0.00000000000E+00  0.00000000000E+00  0.72326192096E+02  0.72326192096E+02  0.00000000000E+00 0.  1.
         21   -1    0    0  501  502 -0.00000000000E+00 -0.00000000000E+00 -0.11116322474E+04  0.11116322474E+04  0.00000000000E+00 0.  1.
      99926    2    1    2    0    0 -0.14210854715E-13  0.00000000000E+00 -0.10393060553E+04  0.11839584395E+04  0.56709832468E+03 0.  0.
      99925    2    3    3    0    0  0.84958893412E+02  0.10742330059E+03 -0.30028270618E+03  0.42201303611E+03  0.26299718619E+03 0.  0.
         25    1    4    4    0    0  0.83209791575E+02  0.46409261977E+02 -0.16451479346E+03  0.22757485445E+03  0.12509000000E+03 0.  0.
         25    1    3    3    0    0 -0.84958893412E+02 -0.10742330059E+03 -0.73902334909E+03  0.76194540334E+03  0.12509000000E+03 0.  0.
         25    1    4    4    0    0  0.17491018371E+01  0.61014038609E+02 -0.13576791271E+03  0.19443818166E+03  0.12509000000E+03 0.  0.
<mgrwt>
<rscale>  2 0.56709832E+03</rscale>
<asrwt>0</asrwt>
<pdfrwt beam="1">  1       21 0.10636205E-01 0.56709832E+03</pdfrwt>
<pdfrwt beam="2">  1       21 0.16347532E+00 0.56709832E+03</pdfrwt>
<totfact> 0.14831134E+04</totfact>
</mgrwt>
</event>
<event>
 7    0  0.4748297E-002  0.4575358E+03  0.7546771E-02  0.1025498E+00
         21   -1    0    0  502  501  0.00000000000E+00  0.00000000000E+00  0.27533785414E+04  0.27533785414E+04  0.00000000000E+00 0. -1.
         21   -1    0    0  501  502 -0.00000000000E+00 -0.00000000000E+00 -0.19007464394E+02  0.19007464394E+02  0.00000000000E+00 0. -1.
      99926    2    1    2    0    0  0.00000000000E+00  0.00000000000E+00  0.27343710770E+04  0.27723860058E+04  0.45753576730E+03 0.  0.
      99925    2    3    3    0    0 -0.30848141277E+02  0.47947461072E+02  0.23258874818E+04  0.23413907361E+04  0.26288292885E+03 0.  0.
         25    1    4    4    0    0  0.18920271951E+02  0.13425480583E+02  0.12806045598E+04  0.12869086086E+04  0.12509000000E+03 0.  0.
         25    1    3    3    0    0  0.30848141277E+02 -0.47947461072E+02  0.40848359524E+03  0.43099526972E+03  0.12509000000E+03 0.  0.
         25    1    4    4    0    0 -0.49768413228E+02  0.34521980489E+02  0.10452829220E+04  0.10544821275E+04  0.12509000000E+03 0.  0.
<mgrwt>
<rscale>  2 0.45753577E+03</rscale>
<asrwt>0</asrwt>
<pdfrwt beam="1">  1       21 0.40490833E+00 0.45753577E+03</pdfrwt>
<pdfrwt beam="2">  1       21 0.27952173E-02 0.45753577E+03</pdfrwt>
<totfact> 0.46351710E+03</totfact>
</mgrwt>
</event>
<event>
 7    0  0.4748297E-002  0.4550152E+03  0.7546771E-02  0.1026237E+00
         21   -1    0    0  502  501  0.00000000000E+00  0.00000000000E+00  0.80077222797E+02  0.80077222797E+02  0.00000000000E+00 0.  1.
         21   -1    0    0  501  502 -0.00000000000E+00 -0.00000000000E+00 -0.64637255448E+03  0.64637255448E+03  0.00000000000E+00 0.  1.
      99926    2    1    2    0    0 -0.28421709430E-13 -0.71054273576E-14 -0.56629533168E+03  0.72644977727E+03  0.45501524834E+03 0.  0.
      99925    2    3    3    0    0  0.86524746584E+02  0.57952075661E+02 -0.28537470312E+03  0.40178243599E+03  0.26295518600E+03 0.  0.
         25    1    4    4    0    0  0.72022530206E+02  0.19409096714E+02 -0.11024563866E+03  0.18266243959E+03  0.12509000000E+03 0.  0.
         25    1    4    4    0    0  0.14502216378E+02  0.38542978947E+02 -0.17512906446E+03  0.21911999640E+03  0.12509000000E+03 0.  0.
         25    1    3    3    0    0 -0.86524746584E+02 -0.57952075661E+02 -0.28092062856E+03  0.32466734128E+03  0.12509000000E+03 0.  0.
<mgrwt>
<rscale>  2 0.45501525E+03</rscale>
<asrwt>0</asrwt>
<pdfrwt beam="1">  1       21 0.11776063E-01 0.45501525E+03</pdfrwt>
<pdfrwt beam="2">  1       21 0.95054784E-01 0.45501525E+03</pdfrwt>
<totfact> 0.51484191E+04</totfact>
</mgrwt>
</event>
<event>
 7    0  0.4748297E-002  0.4560176E+03  0.7546771E-02  0.1025943E+00
         21   -1    0    0  502  501  0.00000000000E+00  0.00000000000E+00  0.10660322031E+03  0.10660322031E+03  0.00000000000E+00 0.  1.
         21   -1    0    0  501  502 -0.00000000000E+00 -0.00000000000E+00 -0.48767762197E+03  0.48767762197E+03  0.00000000000E+00 0.  1.
      99926    2    1    2    0    0  0.00000000000E+00  0.00000000000E+00 -0.38107440166E+03  0.59428084228E+03  0.45601756534E+03 0.  0.
      99925    2    3    3    0    0  0.99700736256E+02 -0.38114205967E+02 -0.29212817775E+03  0.40732665443E+03  0.26302699798E+03 0.  0.
         25    1    4    4    0    0  0.67167716265E+02 -0.41174521525E+02 -0.19940217294E+03  0.24822485372E+03  0.12509000000E+03 0.  0.
         25    1    4    4    0    0  0.32533019991E+02  0.30603155576E+01 -0.92726004812E+02  0.15910180071E+03  0.12509000000E+03 0.  0.
         25    1    3    3    0    0 -0.99700736256E+02  0.38114205967E+02 -0.88946223910E+02  0.18695418785E+03  0.12509000000E+03 0.  0.
<mgrwt>
<rscale>  2 0.45601757E+03</rscale>
<asrwt>0</asrwt>
<pdfrwt beam="1">  1       21 0.15676944E-01 0.45601757E+03</pdfrwt>
<pdfrwt beam="2">  1       21 0.71717297E-01 0.45601757E+03</pdfrwt>
<totfact> 0.58559361E+04</totfact>
</mgrwt>
</event>
<event>
 7    0  0.4748297E-002  0.4461360E+03  0.7546771E-02  0.1028881E+00
         21   -1    0    0  502  501  0.00000000000E+00  0.00000000000E+00  0.38748880724E+02  0.38748880724E+02  0.00000000000E+00 0. -1.
         21   -1    0    0  501  502 -0.00000000000E+00 -0.00000000000E+00 -0.12841488879E+04  0.12841488879E+04  0.00000000000E+00 0. -1.
      99926    2    1    2    0    0  0.00000000000E+00  0.00000000000E+00 -0.12454000072E+04  0.13228977686E+04  0.44613599761E+03 0.  0.
      99925    2    3    3    0    0 -0.18830585737E+02  0.67399462312E+02 -0.10215512548E+04  0.10570913531E+04  0.26263641066E+03 0.  0.
         25    1    3    3    0    0  0.18830585737E+02 -0.67399462312E+02 -0.22384875242E+03  0.26580641553E+03  0.12509000000E+03 0.  0.
         25    1    4    4    0    0 -0.39900954716E+02  0.93191379086E+01 -0.45937272653E+03  0.47785954264E+03  0.12509000000E+03 0.  0.
         25    1    4    4    0    0  0.21070368979E+02  0.58080324404E+02 -0.56217852825E+03  0.57923181047E+03  0.12509000000E+03 0.  0.
<mgrwt>
<rscale>  2 0.44613600E+03</rscale>
<asrwt>0</asrwt>
<pdfrwt beam="1">  1       21 0.56983645E-02 0.44613600E+03</pdfrwt>
<pdfrwt beam="2">  1       21 0.18884543E+00 0.44613600E+03</pdfrwt>
<totfact> 0.30505976E+04</totfact>
</mgrwt>
</event>
<event>
 7    0  0.4748297E-002  0.4314051E+03  0.7546771E-02  0.1033417E+00
         21   -1    0    0  502  501  0.00000000000E+00  0.00000000000E+00  0.90149439963E+02  0.90149439963E+02  0.00000000000E+00 0. -1.
         21   -1    0    0  501  502 -0.00000000000E+00 -0.00000000000E+00 -0.51611632539E+03  0.51611632539E+03  0.00000000000E+00 0. -1.
      99926    2    1    2    0    0  0.00000000000E+00 -0.88817841970E-15 -0.42596688542E+03  0.60626576535E+03  0.43140513529E+03 0.  0.
      99925    2    3    3    0    0  0.31858569664E+02  0.61391829717E+01 -0.39107762531E+03  0.47240977333E+03  0.26301449940E+03 0.  0.
         25    1    4    4    0    0  0.21887872503E+02 -0.24061165268E+02 -0.14293545437E+03  0.19270721536E+03  0.12509000000E+03 0.  0.
         25    1    4    4    0    0  0.99706971610E+01  0.30200348240E+02 -0.24814217094E+03  0.27970255797E+03  0.12509000000E+03 0.  0.
         25    1    3    3    0    0 -0.31858569664E+02 -0.61391829717E+01 -0.34889260117E+02  0.13385599202E+03  0.12509000000E+03 0.  0.
<mgrwt>
<rscale>  2 0.43140514E+03</rscale>
<asrwt>0</asrwt>
<pdfrwt beam="1">  1       21 0.13257271E-01 0.43140514E+03</pdfrwt>
<pdfrwt beam="2">  1       21 0.75899457E-01 0.43140514E+03</pdfrwt>
<totfact> 0.70552067E+04</totfact>
</mgrwt>
</event>
<event>
 7    0  0.4748297E-002  0.4508471E+03  0.7546771E-02  0.1027470E+00
         21   -1    0    0  502  501  0.00000000000E+00  0.00000000000E+00  0.95257591495E+02  0.95257591495E+02  0.00000000000E+00 0.  1.
         21   -1    0    0  501  502 -0.00000000000E+00 -0.00000000000E+00 -0.53345656648E+03  0.53345656648E+03  0.00000000000E+00 0.  1.
      99926    2    1    2    0    0  0.00000000000E+00  0.00000000000E+00 -0.43819897498E+03  0.62871415797E+03  0.45084714789E+03 0.  0.
      99925    2    3    3    0    0 -0.39307678539E+02 -0.24778808931E+02 -0.41458041335E+03  0.49319874365E+03  0.26307603206E+03 0.  0.
         25    1    4    4    0    0 -0.57458135349E+02  0.22390562596E+01 -0.22380523305E+03  0.26275985449E+03  0.12509000000E+03 0.  0.
         25    1    3    3    0    0  0.39307678539E+02  0.24778808931E+02 -0.23618561635E+02  0.13551541432E+03  0.12509000000E+03 0.  0.
         25    1    4    4    0    0  0.18150456810E+02 -0.27017865190E+02 -0.19077518030E+03  0.23043888917E+03  0.12509000000E+03 0.  0.
<mgrwt>
<rscale>  2 0.45084715E+03</rscale>
<asrwt>0</asrwt>
<pdfrwt beam="1">  1       21 0.14008469E-01 0.45084715E+03</pdfrwt>
<pdfrwt beam="2">  1       21 0.78449495E-01 0.45084715E+03</pdfrwt>
<totfact> 0.58850456E+04</totfact>
</mgrwt>
</event>
<event>
 7    0  0.4748297E-002  0.4493549E+03  0.7546771E-02  0.1027915E+00
         21   -1    0    0  502  501  0.00000000000E+00  0.00000000000E+00  0.29040872087E+03  0.29040872087E+03  0.00000000000E+00 0. -1.
         21   -1    0    0  501  502 -0.00000000000E+00 -0.00000000000E+00 -0.17382383291E+03  0.17382383291E+03  0.00000000000E+00 0. -1.
      99926    2    1    2    0    0  0.71054273576E-14  0.00000000000E+00  0.11658488796E+03  0.46423255379E+03  0.44935490194E+03 0.  0.
      99925    2    3    3    0    0  0.39057787325E+02 -0.81692664057E+01 -0.29784247530E+02  0.26760173324E+03  0.26292839057E+03 0.  0.
         25    1    3    3    0    0 -0.39057787325E+02  0.81692664057E+01  0.14636913549E+03  0.19663082055E+03  0.12509000000E+03 0.  0.
         25    1    4    4    0    0 -0.65394082839E-01  0.11976578781E+02  0.17382074886E+02  0.12685853280E+03  0.12509000000E+03 0.  0.
         25    1    4    4    0    0  0.39123181408E+02 -0.20145845186E+02 -0.47166322416E+02  0.14074320045E+03  0.12509000000E+03 0.  0.
<mgrwt>
<rscale>  2 0.44935490E+03</rscale>
<asrwt>0</asrwt>
<pdfrwt beam="1">  1       21 0.42707165E-01 0.44935490E+03</pdfrwt>
<pdfrwt beam="2">  1       21 0.25562329E-01 0.44935490E+03</pdfrwt>
<totfact> 0.70993361E+04</totfact>
</mgrwt>
</event>
<event>
 7    0  0.4748297E-002  0.4435525E+03  0.7546771E-02  0.1029662E+00
         21   -1    0    0  502  501  0.00000000000E+00  0.00000000000E+00  0.12851705238E+03  0.12851705238E+03  0.00000000000E+00 0. -1.
         21   -1    0    0  501  502 -0.00000000000E+00 -0.00000000000E+00 -0.38270959741E+03  0.38270959741E+03  0.00000000000E+00 0. -1.
      99926    2    1    2    0    0  0.00000000000E+00  0.71054273576E-14 -0.25419254503E+03  0.51122664979E+03  0.44355251945E+03 0.  0.
      99925    2    3    3    0    0 -0.78574183784E+02 -0.57680869855E+02 -0.19664769724E+03  0.34252601935E+03  0.26296914648E+03 0.  0.
         25    1    4    4    0    0 -0.86819171103E+01 -0.95224950404E-01 -0.99596133076E+02  0.16013207854E+03  0.12509000000E+03 0.  0.
         25    1    3    3    0    0  0.78574183784E+02  0.57680869855E+02 -0.57544847791E+02  0.16870063044E+03  0.12509000000E+03 0.  0.
         25    1    4    4    0    0 -0.69892266674E+02 -0.57585644905E+02 -0.97051564160E+02  0.18239394081E+03  0.12509000000E+03 0.  0.
<mgrwt>
<rscale>  2 0.44355252E+03</rscale>
<asrwt>0</asrwt>
<pdfrwt beam="1">  1       21 0.18899567E-01 0.44355252E+03</pdfrwt>
<pdfrwt beam="2">  1       21 0.56280823E-01 0.44355252E+03</pdfrwt>
<totfact> 0.70695060E+04</totfact>
</mgrwt>
</event>
<event>
 7    0  0.4748297E-002  0.4566423E+03  0.7546771E-02  0.1025760E+00
         21   -1    0    0  502  501  0.00000000000E+00  0.00000000000E+00  0.11236307438E+03  0.11236307438E+03  0.00000000000E+00 0. -1.
         21   -1    0    0  501  502 -0.00000000000E+00 -0.00000000000E+00 -0.46394741051E+03  0.46394741051E+03  0.00000000000E+00 0. -1.
      99926    2    1    2    0    0  0.00000000000E+00  0.00000000000E+00 -0.35158433613E+03  0.57631048488E+03  0.45664234317E+03 0.  0.
      99925    2    3    3    0    0  0.26701596572E+02  0.11114398852E+03 -0.23284317016E+03  0.36939761907E+03  0.26300702964E+03 0.  0.
         25    1    4    4    0    0  0.10735512106E+02  0.13660968310E+02 -0.11902601729E+03  0.17354127511E+03  0.12509000000E+03 0.  0.
         25    1    3    3    0    0 -0.26701596572E+02 -0.11114398852E+03 -0.11874116597E+03  0.20691286581E+03  0.12509000000E+03 0.  0.
         25    1    4    4    0    0  0.15966084466E+02  0.97483020209E+02 -0.11381715287E+03  0.19585634396E+03  0.12509000000E+03 0.  0.
<mgrwt>
<rscale>  2 0.45664234E+03</rscale>
<asrwt>0</asrwt>
<pdfrwt beam="1">  1       21 0.16523982E-01 0.45664234E+03</pdfrwt>
<pdfrwt beam="2">  1       21 0.68227560E-01 0.45664234E+03</pdfrwt>
<totfact> 0.59385735E+04</totfact>
</mgrwt>
</event>
<event>
 7    0  0.4748297E-002  0.4605207E+03  0.7546771E-02  0.1024630E+00
         21   -1    0    0  502  501  0.00000000000E+00  0.00000000000E+00  0.81285256083E+03  0.81285256083E+03  0.00000000000E+00 0.  1.
         21   -1    0    0  501  502 -0.00000000000E+00 -0.00000000000E+00 -0.65226861542E+02  0.65226861542E+02  0.00000000000E+00 0.  1.
      99926    2    1    2    0    0  0.00000000000E+00  0.00000000000E+00  0.74762569929E+03  0.87807942237E+03  0.46052066811E+03 0.  0.
      99925    2    3    3    0    0 -0.33740038542E+02  0.84844156617E+02  0.32488131290E+03  0.42786031412E+03  0.26302026502E+03 0.  0.
         25    1    4    4    0    0  0.96159583164E+01  0.62101675134E+02  0.12912029042E+03  0.19044327819E+03  0.12509000000E+03 0.  0.
         25    1    3    3    0    0  0.33740038542E+02 -0.84844156617E+02  0.42274438639E+03  0.45021910825E+03  0.12509000000E+03 0.  0.
         25    1    4    4    0    0 -0.43355996859E+02  0.22742481482E+02  0.19576102248E+03  0.23741703593E+03  0.12509000000E+03 0.  0.
<mgrwt>
<rscale>  2 0.46052067E+03</rscale>
<asrwt>0</asrwt>
<pdfrwt beam="1">  1       21 0.11953713E+00 0.46052067E+03</pdfrwt>
<pdfrwt beam="2">  1       21 0.95921860E-02 0.46052067E+03</pdfrwt>
<totfact> 0.42334657E+04</totfact>
</mgrwt>
</event>
<event>
 7    0  0.4748297E-002  0.4521807E+03  0.7546771E-02  0.1027074E+00
         21   -1    0    0  502  501  0.00000000000E+00  0.00000000000E+00  0.78150308166E+03  0.78150308166E+03  0.00000000000E+00 0. -1.
         21   -1    0    0  501  502 -0.00000000000E+00 -0.00000000000E+00 -0.65408380349E+02  0.65408380349E+02  0.00000000000E+00 0. -1.
      99926    2    1    2    0    0  0.00000000000E+00  0.00000000000E+00  0.71609470131E+03  0.84691146201E+03  0.45218071967E+03 0.  0.
      99925    2    3    3    0    0 -0.10692281052E+03  0.18976000972E+02  0.41432928770E+03  0.50266961537E+03  0.26308821249E+03 0.  0.
         25    1    4    4    0    0 -0.87284920669E+02  0.66810092897E+01  0.17997702689E+03  0.23601383766E+03  0.12509000000E+03 0.  0.
         25    1    3    3    0    0  0.10692281052E+03 -0.18976000972E+02  0.30176541361E+03  0.34424184663E+03  0.12509000000E+03 0.  0.
         25    1    4    4    0    0 -0.19637889855E+02  0.12294991682E+02  0.23435226081E+03  0.26665577771E+03  0.12509000000E+03 0.  0.
<mgrwt>
<rscale>  2 0.45218072E+03</rscale>
<asrwt>0</asrwt>
<pdfrwt beam="1">  1       21 0.11492692E+00 0.45218072E+03</pdfrwt>
<pdfrwt beam="2">  1       21 0.96188799E-02 0.45218072E+03</pdfrwt>
<totfact> 0.46599972E+04</totfact>
</mgrwt>
</event>
<event>
 7    0  0.4748297E-002  0.4619047E+03  0.7546771E-02  0.1024230E+00
         21   -1    0    0  502  501  0.00000000000E+00  0.00000000000E+00  0.17539862773E+03  0.17539862773E+03  0.00000000000E+00 0. -1.
         21   -1    0    0  501  502 -0.00000000000E+00 -0.00000000000E+00 -0.30410146927E+03  0.30410146927E+03  0.00000000000E+00 0. -1.
      99926    2    1    2    0    0  0.35527136788E-14  0.00000000000E+00 -0.12870284154E+03  0.47950009699E+03  0.46190466722E+03 0.  0.
      99925    2    3    3    0    0 -0.20975456572E+02 -0.37192714892E+02 -0.19649655655E+03  0.33095123731E+03  0.26285843514E+03 0.  0.
         25    1    4    4    0    0  0.28278381563E+02 -0.66833094211E+01 -0.97142321675E+02  0.16102320407E+03  0.12509000000E+03 0.  0.
         25    1    3    3    0    0  0.20975456572E+02  0.37192714892E+02  0.67793715006E+02  0.14854885969E+03  0.12509000000E+03 0.  0.
         25    1    4    4    0    0 -0.49253838135E+02 -0.30509405471E+02 -0.99354234871E+02  0.16992803324E+03  0.12509000000E+03 0.  0.
<mgrwt>
<rscale>  2 0.46190467E+03</rscale>
<asrwt>0</asrwt>
<pdfrwt beam="1">  1       21 0.25793916E-01 0.46190467E+03</pdfrwt>
<pdfrwt beam="2">  1       21 0.44720804E-01 0.46190467E+03</pdfrwt>
<totfact> 0.63201719E+04</totfact>
</mgrwt>
</event>
<event>
 7    0  0.4748297E-002  0.4524325E+03  0.7546771E-02  0.1026999E+00
         21   -1    0    0  502  501  0.00000000000E+00  0.00000000000E+00  0.12993126997E+03  0.12993126997E+03  0.00000000000E+00 0. -1.
         21   -1    0    0  501  502 -0.00000000000E+00 -0.00000000000E+00 -0.39385272970E+03  0.39385272970E+03  0.00000000000E+00 0. -1.
      99926    2    1    2    0    0 -0.71054273576E-14  0.00000000000E+00 -0.26392145973E+03  0.52378399967E+03  0.45243247165E+03 0.  0.
      99925    2    3    3    0    0  0.59361205219E+02 -0.71581932398E+02 -0.23615007865E+03  0.36546001716E+03  0.26295710442E+03 0.  0.
         25    1    4    4    0    0 -0.41553439508E+01 -0.57362044230E+02 -0.10928887755E+03  0.17578179046E+03  0.12509000000E+03 0.  0.
         25    1    3    3    0    0 -0.59361205219E+02  0.71581932398E+02 -0.27771381077E+02  0.15832398251E+03  0.12509000000E+03 0.  0.
         25    1    4    4    0    0  0.63516549170E+02 -0.14219888167E+02 -0.12686120110E+03  0.18967822669E+03  0.12509000000E+03 0.  0.
<mgrwt>
<rscale>  2 0.45243247E+03</rscale>
<asrwt>0</asrwt>
<pdfrwt beam="1">  1       21 0.19107540E-01 0.45243247E+03</pdfrwt>
<pdfrwt beam="2">  1       21 0.57919519E-01 0.45243247E+03</pdfrwt>
<totfact> 0.64940994E+04</totfact>
</mgrwt>
</event>
<event>
 7    0  0.4748297E-002  0.4565866E+03  0.7546771E-02  0.1025776E+00
         21   -1    0    0  502  501  0.00000000000E+00  0.00000000000E+00  0.59408634315E+02  0.59408634315E+02  0.00000000000E+00 0.  1.
         21   -1    0    0  501  502 -0.00000000000E+00 -0.00000000000E+00 -0.87727691914E+03  0.87727691914E+03  0.00000000000E+00 0.  1.
      99926    2    1    2    0    0  0.00000000000E+00  0.14210854715E-13 -0.81786828483E+03  0.93668555346E+03  0.45658656871E+03 0.  0.
      99925    2    3    3    0    0  0.53187816966E+01  0.75070181835E+02 -0.69162552775E+03  0.74368668441E+03  0.26279305982E+03 0.  0.
         25    1    3    3    0    0 -0.53187816966E+01 -0.75070181835E+02 -0.12624275707E+03  0.19299886905E+03  0.12509000000E+03 0.  0.
         25    1    4    4    0    0 -0.35846072935E+01  0.56033439079E+02 -0.45496567481E+03  0.47517772366E+03  0.12509000000E+03 0.  0.
         25    1    4    4    0    0  0.89033889900E+01  0.19036742756E+02 -0.23665985294E+03  0.26850896075E+03  0.12509000000E+03 0.  0.
<mgrwt>
<rscale>  2 0.45658657E+03</rscale>
<asrwt>0</asrwt>
<pdfrwt beam="1">  1       21 0.87365650E-02 0.45658657E+03</pdfrwt>
<pdfrwt beam="2">  1       21 0.12901130E+00 0.45658657E+03</pdfrwt>
<totfact> 0.41171452E+04</totfact>
</mgrwt>
</event>
<event>
 7    0  0.4748297E-002  0.4609934E+03  0.7546771E-02  0.1024494E+00
         21   -1    0    0  502  501  0.00000000000E+00  0.00000000000E+00  0.44670797570E+03  0.44670797570E+03  0.00000000000E+00 0.  1.
         21   -1    0    0  501  502 -0.00000000000E+00 -0.00000000000E+00 -0.11893391308E+03  0.11893391308E+03  0.00000000000E+00 0.  1.
      99926    2    1    2    0    0  0.14210854715E-13  0.00000000000E+00  0.32777406262E+03  0.56564188878E+03  0.46099339498E+03 0.  0.
      99925    2    3    3    0    0  0.10302525781E+03 -0.57756338320E+02  0.21902994539E+03  0.36211599486E+03  0.26306630037E+03 0.  0.
         25    1    4    4    0    0  0.67373179884E+02 -0.19374702637E+02  0.15809656128E+03  0.21343981648E+03  0.12509000000E+03 0.  0.
         25    1    4    4    0    0  0.35652077929E+02 -0.38381635683E+02  0.60933384109E+02  0.14867617838E+03  0.12509000000E+03 0.  0.
         25    1    3    3    0    0 -0.10302525781E+03  0.57756338320E+02  0.10874411723E+03  0.20352589392E+03  0.12509000000E+03 0.  0.
<mgrwt>
<rscale>  2 0.46099339E+03</rscale>
<asrwt>0</asrwt>
<pdfrwt beam="1">  1       21 0.65692349E-01 0.46099339E+03</pdfrwt>
<pdfrwt beam="2">  1       21 0.17490282E-01 0.46099339E+03</pdfrwt>
<totfact> 0.58043912E+04</totfact>
</mgrwt>
</event>
<event>
 7    0  0.4748297E-002  0.4627095E+03  0.7546771E-02  0.1023998E+00
         21   -1    0    0  502  501  0.00000000000E+00  0.00000000000E+00  0.59787831955E+03  0.59787831955E+03  0.00000000000E+00 0.  1.
         21   -1    0    0  501  502 -0.00000000000E+00 -0.00000000000E+00 -0.89524933047E+02  0.89524933047E+02  0.00000000000E+00 0.  1.
      99926    2    1    2    0    0  0.00000000000E+00  0.00000000000E+00  0.50835338651E+03  0.68740325260E+03  0.46270948349E+03 0.  0.
      99925    2    3    3    0    0 -0.68267450269E+02 -0.51513796504E+02  0.44314775779E+03  0.52243841358E+03  0.26314985228E+03 0.  0.
         25    1    3    3    0    0  0.68267450269E+02  0.51513796504E+02  0.65205628716E+02  0.16496483902E+03  0.12509000000E+03 0.  0.
         25    1    4    4    0    0 -0.67915784702E+02 -0.68273815481E+01  0.20338697226E+03  0.24834036227E+03  0.12509000000E+03 0.  0.
         25    1    4    4    0    0 -0.35166556671E+00 -0.44686414955E+02  0.23976078553E+03  0.27409805130E+03  0.12509000000E+03 0.  0.
<mgrwt>
<rscale>  2 0.46270948E+03</rscale>
<asrwt>0</asrwt>
<pdfrwt beam="1">  1       21 0.87923280E-01 0.46270948E+03</pdfrwt>
<pdfrwt beam="2">  1       21 0.13165432E-01 0.46270948E+03</pdfrwt>
<totfact> 0.50458080E+04</totfact>
</mgrwt>
</event>
<event>
 7    0  0.4748297E-002  0.4528856E+03  0.7546771E-02  0.1026865E+00
         21   -1    0    0  502  501  0.00000000000E+00  0.00000000000E+00  0.17447779542E+03  0.17447779542E+03  0.00000000000E+00 0. -1.
         21   -1    0    0  501  502 -0.00000000000E+00 -0.00000000000E+00 -0.29388458730E+03  0.29388458730E+03  0.00000000000E+00 0. -1.
      99926    2    1    2    0    0  0.00000000000E+00  0.00000000000E+00 -0.11940679188E+03  0.46836238272E+03  0.45288557010E+03 0.  0.
      99925    2    3    3    0    0  0.57467215822E+02  0.48810525417E+02 -0.15971857445E+03  0.31684506952E+03  0.26305099652E+03 0.  0.
         25    1    3    3    0    0 -0.57467215822E+02 -0.48810525417E+02  0.40311782573E+02  0.15151731320E+03  0.12509000000E+03 0.  0.
         25    1    4    4    0    0  0.27099871819E+02  0.75086594442E+01 -0.12082809639E+03  0.17617525364E+03  0.12509000000E+03 0.  0.
         25    1    4    4    0    0  0.30367344003E+02  0.41301865972E+02 -0.38890478064E+02  0.14066981588E+03  0.12509000000E+03 0.  0.
<mgrwt>
<rscale>  2 0.45288557E+03</rscale>
<asrwt>0</asrwt>
<pdfrwt beam="1">  1       21 0.25658499E-01 0.45288557E+03</pdfrwt>
<pdfrwt beam="2">  1       21 0.43218322E-01 0.45288557E+03</pdfrwt>
<totfact> 0.68702901E+04</totfact>
</mgrwt>
</event>
<event>
 7    0  0.4748297E-002  0.4435752E+03  0.7546771E-02  0.1029655E+00
         21   -1    0    0  502  501  0.00000000000E+00  0.00000000000E+00  0.57632804717E+03  0.57632804717E+03  0.00000000000E+00 0.  1.
         21   -1    0    0  501  502 -0.00000000000E+00 -0.00000000000E+00 -0.85350261076E+02  0.85350261076E+02  0.00000000000E+00 0.  1.
      99926    2    1    2    0    0  0.00000000000E+00  0.00000000000E+00  0.49097778610E+03  0.66167830825E+03  0.44357524409E+03 0.  0.
      99925    2    3    3    0    0  0.75471081558E+02  0.68956012361E+02  0.31535851720E+03  0.42305632372E+03  0.26282093311E+03 0.  0.
         25    1    4    4    0    0  0.46520729328E+02  0.12965691041E+02  0.20394818898E+03  0.24407920700E+03  0.12509000000E+03 0.  0.
         25    1    4    4    0    0  0.28950352230E+02  0.55990321320E+02  0.11141032821E+03  0.17897711672E+03  0.12509000000E+03 0.  0.
         25    1    3    3    0    0 -0.75471081558E+02 -0.68956012361E+02  0.17561926890E+03  0.23862198453E+03  0.12509000000E+03 0.  0.
<mgrwt>
<rscale>  2 0.44357524E+03</rscale>
<asrwt>0</asrwt>
<pdfrwt beam="1">  1       21 0.84754123E-01 0.44357524E+03</pdfrwt>
<pdfrwt beam="2">  1       21 0.12551509E-01 0.44357524E+03</pdfrwt>
<totfact> 0.60280279E+04</totfact>
</mgrwt>
</event>
<event>
 7    0  0.4748297E-002  0.4415995E+03  0.7546771E-02  0.1030257E+00
         21   -1    0    0  502  501  0.00000000000E+00  0.00000000000E+00  0.12360972802E+03  0.12360972802E+03  0.00000000000E+00 0. -1.
         21   -1    0    0  501  502 -0.00000000000E+00 -0.00000000000E+00 -0.39440686653E+03  0.39440686653E+03  0.00000000000E+00 0. -1.
      99926    2    1    2    0    0  0.71054273576E-14  0.71054273576E-14 -0.27079713851E+03  0.51801659455E+03  0.44159948143E+03 0.  0.
      99925    2    3    3    0    0 -0.56597021210E+02  0.33410460136E+02 -0.84123725232E+02  0.28389279614E+03  0.26305671802E+03 0.  0.
         25    1    4    4    0    0 -0.67319228757E+02  0.17334648664E+02 -0.59301143093E+02  0.15490804458E+03  0.12509000000E+03 0.  0.
         25    1    4    4    0    0  0.10722207547E+02  0.16075811472E+02 -0.24822582139E+02  0.12898475155E+03  0.12509000000E+03 0.  0.
         25    1    3    3    0    0  0.56597021210E+02 -0.33410460136E+02 -0.18667341328E+03  0.23412379841E+03  0.12509000000E+03 0.  0.
<mgrwt>
<rscale>  2 0.44159948E+03</rscale>
<asrwt>0</asrwt>
<pdfrwt beam="1">  1       21 0.18177901E-01 0.44159948E+03</pdfrwt>
<pdfrwt beam="2">  1       21 0.58001009E-01 0.44159948E+03</pdfrwt>
<totfact> 0.71300468E+04</totfact>
</mgrwt>
</event>
<event>
 7    0  0.4748297E-002  0.4539867E+03  0.7546771E-02  0.1026540E+00
         21   -1    0    0  502  501  0.00000000000E+00  0.00000000000E+00  0.95763475056E+02  0.95763475056E+02  0.00000000000E+00 0. -1.
         21   -1    0    0  501  502 -0.00000000000E+00 -0.00000000000E+00 -0.53805451436E+03  0.53805451436E+03  0.00000000000E+00 0. -1.
      99926    2    1    2    0    0 -0.71054273576E-14 -0.35527136788E-14 -0.44229103931E+03  0.63381798942E+03  0.45398665207E+03 0.  0.
      99925    2    3    3    0    0  0.44212945072E+02  0.24331452180E+02 -0.41854680842E+03  0.49685777375E+03  0.26294374382E+03 0.  0.
         25    1    4    4    0    0  0.60785241881E+02  0.21984911671E+02 -0.20229419691E+03  0.24647237609E+03  0.12509000000E+03 0.  0.
         25    1    4    4    0    0 -0.16572296809E+02  0.23465405088E+01 -0.21625261151E+03  0.25038539765E+03  0.12509000000E+03 0.  0.
         25    1    3    3    0    0 -0.44212945072E+02 -0.24331452180E+02 -0.23744230887E+02  0.13696021567E+03  0.12509000000E+03 0.  0.
<mgrwt>
<rscale>  2 0.45398665E+03</rscale>
<asrwt>0</asrwt>
<pdfrwt beam="1">  1       21 0.14082864E-01 0.45398665E+03</pdfrwt>
<pdfrwt beam="2">  1       21 0.79125666E-01 0.45398665E+03</pdfrwt>
<totfact> 0.57098830E+04</totfact>
</mgrwt>
</event>
<event>
 7    0  0.4748297E-002  0.4475731E+03  0.7546771E-02  0.1028448E+00
         21   -1    0    0  502  501  0.00000000000E+00  0.00000000000E+00  0.13532332245E+04  0.13532332245E+04  0.00000000000E+00 0. -1.
         21   -1    0    0  501  502 -0.00000000000E+00 -0.00000000000E+00 -0.37007968403E+02  0.37007968403E+02  0.00000000000E+00 0. -1.
      99926    2    1    2    0    0  0.14210854715E-13  0.00000000000E+00  0.13162252561E+04  0.13902411929E+04  0.44757306628E+03 0.  0.
      99925    2    3    3    0    0 -0.10154169598E+03  0.16741280682E+02  0.91348299945E+03  0.95614463695E+03  0.26300264255E+03 0.  0.
         25    1    4    4    0    0 -0.84732047213E+02  0.28952843365E+02  0.55354893470E+03  0.57452738679E+03  0.12509000000E+03 0.  0.
         25    1    3    3    0    0  0.10154169598E+03 -0.16741280682E+02  0.40274225667E+03  0.43409655597E+03  0.12509000000E+03 0.  0.
         25    1    4    4    0    0 -0.16809648764E+02 -0.12211562684E+02  0.35993406475E+03  0.38161725016E+03  0.12509000000E+03 0.  0.
<mgrwt>
<rscale>  2 0.44757307E+03</rscale>
<asrwt>0</asrwt>
<pdfrwt beam="1">  1       21 0.19900485E+00 0.44757307E+03</pdfrwt>
<pdfrwt beam="2">  1       21 0.54423492E-02 0.44757307E+03</pdfrwt>
<totfact> 0.28185297E+04</totfact>
</mgrwt>
</event>
<event>
 7    0  0.4748297E-002  0.4468202E+03  0.7546771E-02  0.1028675E+00
         21   -1    0    0  502  501  0.00000000000E+00  0.00000000000E+00  0.42876458262E+03  0.42876458262E+03  0.00000000000E+00 0.  1.
         21   -1    0    0  501  502 -0.00000000000E+00 -0.00000000000E+00 -0.11640903683E+03  0.11640903683E+03  0.00000000000E+00 0.  1.
      99926    2    1    2    0    0  0.88817841970E-15 -0.14210854715E-13  0.31235554578E+03  0.54517361945E+03  0.44682019691E+03 0.  0.
      99925    2    3    3    0    0  0.57085517828E+01 -0.83256195593E+02  0.11995053336E+03  0.30097824977E+03  0.26312657546E+03 0.  0.
         25    1    4    4    0    0  0.19641610101E+01 -0.31482451456E+02  0.10180065766E+03  0.16433467278E+03  0.12509000000E+03 0.  0.
         25    1    3    3    0    0 -0.57085517828E+01  0.83256195593E+02  0.19240501243E+03  0.24419536968E+03  0.12509000000E+03 0.  0.
         25    1    4    4    0    0  0.37443907727E+01 -0.51773744137E+02  0.18149875698E+02  0.13664357699E+03  0.12509000000E+03 0.  0.
<mgrwt>
<rscale>  2 0.44682020E+03</rscale>
<asrwt>0</asrwt>
<pdfrwt beam="1">  1       21 0.63053614E-01 0.44682020E+03</pdfrwt>
<pdfrwt beam="2">  1       21 0.17118976E-01 0.44682020E+03</pdfrwt>
<totfact> 0.66379798E+04</totfact>
</mgrwt>
</event>
<event>
 6    0  0.4748297E-002  0.4531289E+03  0.7546771E-02  0.1026793E+00
         21   -1    0    0  502  501  0.00000000000E+00  0.00000000000E+00  0.17783614374E+03  0.17783614374E+03  0.00000000000E+00 0. -1.
         21   -1    0    0  501  502 -0.00000000000E+00 -0.00000000000E+00 -0.28864459870E+03  0.28864459870E+03  0.00000000000E+00 0. -1.
      99926    2    1    2    0    0  0.00000000000E+00  0.00000000000E+00 -0.11080845497E+03  0.46648074244E+03  0.45312886619E+03 0.  0.
         25    1    3    3    0    0  0.79565858720E+02 -0.95334764978E+01  0.24958799738E+01  0.14857775932E+03  0.12509000000E+03 0.  0.
         25    1    3    3    0    0 -0.10265956467E+03  0.33914092106E+02 -0.44401085937E+02  0.17119613428E+03  0.12509000000E+03 0.  0.
         25    1    3    3    0    0  0.23093705946E+02 -0.24380615608E+02 -0.68903249002E+02  0.14670684883E+03  0.12509000000E+03 0.  0.
<mgrwt>
<rscale>  2 0.45312887E+03</rscale>
<asrwt>0</asrwt>
<pdfrwt beam="1">  1       21 0.26152374E-01 0.45312887E+03</pdfrwt>
<pdfrwt beam="2">  1       21 0.42447735E-01 0.45312887E+03</pdfrwt>
<totfact> 0.68712694E+04</totfact>
</mgrwt>
</event>
<event>
 7    0  0.4748297E-002  0.4811056E+03  0.7546771E-02  0.1018832E+00
         21   -1    0    0  502  501  0.00000000000E+00  0.00000000000E+00  0.10268342287E+03  0.10268342287E+03  0.00000000000E+00 0.  1.
         21   -1    0    0  501  502 -0.00000000000E+00 -0.00000000000E+00 -0.56353445989E+03  0.56353445989E+03  0.00000000000E+00 0.  1.
      99926    2    1    2    0    0  0.00000000000E+00  0.00000000000E+00 -0.46085103702E+03  0.66621788276E+03  0.48110559026E+03 0.  0.
      99925    2    3    3    0    0 -0.70770143258E+02  0.75202390541E+02 -0.40664965514E+03  0.49519416915E+03  0.26303899028E+03 0.  0.
         25    1    4    4    0    0 -0.74216617831E+01  0.63278079139E+02 -0.17776802725E+03  0.22651308125E+03  0.12509000000E+03 0.  0.
         25    1    4    4    0    0 -0.63348481475E+02  0.11924311403E+02 -0.22888162789E+03  0.26868108790E+03  0.12509000000E+03 0.  0.
         25    1    3    3    0    0  0.70770143258E+02 -0.75202390541E+02 -0.54201381875E+02  0.17102371361E+03  0.12509000000E+03 0.  0.
<mgrwt>
<rscale>  2 0.48110559E+03</rscale>
<asrwt>0</asrwt>
<pdfrwt beam="1">  1       21 0.15100503E-01 0.48110559E+03</pdfrwt>
<pdfrwt beam="2">  1       21 0.82872715E-01 0.48110559E+03</pdfrwt>
<totfact> 0.44812814E+04</totfact>
</mgrwt>
</event>
<event>
 7    0  0.4748297E-002  0.4416903E+03  0.7546771E-02  0.1030229E+00
         21   -1    0    0  502  501  0.00000000000E+00  0.00000000000E+00  0.88237059074E+03  0.88237059074E+03  0.00000000000E+00 0.  1.
         21   -1    0    0  501  502 -0.00000000000E+00 -0.00000000000E+00 -0.55274486663E+02  0.55274486663E+02  0.00000000000E+00 0.  1.
      99926    2    1    2    0    0 -0.14210854715E-13  0.00000000000E+00  0.82709610408E+03  0.93764507741E+03  0.44169030531E+03 0.  0.
      99925    2    3    3    0    0 -0.93814660237E+02  0.21104922012E+02  0.58778814367E+03  0.65100520540E+03  0.26280461832E+03 0.  0.
         25    1    4    4    0    0 -0.43215562338E+02  0.36480350791E+02  0.22431814139E+03  0.26299151598E+03  0.12509000000E+03 0.  0.
         25    1    4    4    0    0 -0.50599097899E+02 -0.15375428779E+02  0.36347000228E+03  0.38801368941E+03  0.12509000000E+03 0.  0.
         25    1    3    3    0    0  0.93814660237E+02 -0.21104922012E+02  0.23930796041E+03  0.28663987201E+03  0.12509000000E+03 0.  0.
<mgrwt>
<rscale>  2 0.44169031E+03</rscale>
<asrwt>0</asrwt>
<pdfrwt beam="1">  1       21 0.12976037E+00 0.44169031E+03</pdfrwt>
<pdfrwt beam="2">  1       21 0.81286015E-02 0.44169031E+03</pdfrwt>
<totfact> 0.46277761E+04</totfact>
</mgrwt>
</event>
<event>
 7    0  0.4748297E-002  0.4248041E+03  0.7546771E-02  0.1035514E+00
         21   -1    0    0  502  501  0.00000000000E+00  0.00000000000E+00  0.58263483978E+03  0.58263483978E+03  0.00000000000E+00 0.  1.
         21   -1    0    0  501  502 -0.00000000000E+00 -0.00000000000E+00 -0.77432072846E+02  0.77432072846E+02  0.00000000000E+00 0.  1.
      99926    2    1    2    0    0  0.00000000000E+00 -0.33306690739E-15  0.50520276693E+03  0.66006691262E+03  0.42480406475E+03 0.  0.
      99925    2    3    3    0    0 -0.76868060651E+02 -0.95792107772E+00  0.37099414116E+03  0.46114713057E+03  0.26288858266E+03 0.  0.
         25    1    4    4    0    0 -0.31701137812E+02 -0.76888978091E+01  0.11698116906E+03  0.17434501227E+03  0.12509000000E+03 0.  0.
         25    1    4    4    0    0 -0.45166922839E+02  0.67309767314E+01  0.25401297210E+03  0.28680211830E+03  0.12509000000E+03 0.  0.
         25    1    3    3    0    0  0.76868060651E+02  0.95792107772E+00  0.13420862577E+03  0.19891978205E+03  0.12509000000E+03 0.  0.
<mgrwt>
<rscale>  2 0.42480406E+03</rscale>
<asrwt>0</asrwt>
<pdfrwt beam="1">  1       21 0.85681592E-01 0.42480406E+03</pdfrwt>
<pdfrwt beam="2">  1       21 0.11387070E-01 0.42480406E+03</pdfrwt>
<totfact> 0.70449382E+04</totfact>
</mgrwt>
</event>
<event>
 7    0  0.4748297E-002  0.4675482E+03  0.7546771E-02  0.1022614E+00
         21   -1    0    0  502  501  0.00000000000E+00  0.00000000000E+00  0.11287916959E+03  0.11287916959E+03  0.00000000000E+00 0.  1.
         21   -1    0    0  501  502 -0.00000000000E+00 -0.00000000000E+00 -0.48414901014E+03  0.48414901014E+03  0.00000000000E+00 0.  1.
      99926    2    1    2    0    0  0.00000000000E+00  0.00000000000E+00 -0.37126984055E+03  0.59702817973E+03  0.46754823589E+03 0.  0.
      99925    2    3    3    0    0  0.11682271825E+03  0.41358368332E+02 -0.21308234888E+03  0.36032403369E+03  0.26281411628E+03 0.  0.
         25    1    4    4    0    0  0.10223463014E+03  0.19599040696E+02 -0.11696312031E+03  0.20040938503E+03  0.12509000000E+03 0.  0.
         25    1    3    3    0    0 -0.11682271825E+03 -0.41358368332E+02 -0.15818749167E+03  0.23670414604E+03  0.12509000000E+03 0.  0.
         25    1    4    4    0    0  0.14588088114E+02  0.21759327635E+02 -0.96119228574E+02  0.15991464866E+03  0.12509000000E+03 0.  0.
<mgrwt>
<rscale>  2 0.46754824E+03</rscale>
<asrwt>0</asrwt>
<pdfrwt beam="1">  1       21 0.16599878E-01 0.46754824E+03</pdfrwt>
<pdfrwt beam="2">  1       21 0.71198383E-01 0.46754824E+03</pdfrwt>
<totfact> 0.53369224E+04</totfact>
</mgrwt>
</event>
<event>
 7    0  0.4748297E-002  0.4114317E+03  0.7546771E-02  0.1039892E+00
         21   -1    0    0  502  501  0.00000000000E+00  0.00000000000E+00  0.11435122578E+03  0.11435122578E+03  0.00000000000E+00 0. -1.
         21   -1    0    0  501  502 -0.00000000000E+00 -0.00000000000E+00 -0.37007927050E+03  0.37007927050E+03  0.00000000000E+00 0. -1.
      99926    2    1    2    0    0  0.48849813084E-14  0.00000000000E+00 -0.25572804472E+03  0.48443049628E+03  0.41143173536E+03 0.  0.
      99925    2    3    3    0    0  0.27066783253E+01 -0.62223989384E+02 -0.14980671893E+03  0.30908516181E+03  0.26308255976E+03 0.  0.
         25    1    4    4    0    0  0.35226403084E+02 -0.11878610586E+02 -0.86871883452E+02  0.15676808699E+03  0.12509000000E+03 0.  0.
         25    1    4    4    0    0 -0.32519724759E+02 -0.50345378798E+02 -0.62934835479E+02  0.15231707482E+03  0.12509000000E+03 0.  0.
         25    1    3    3    0    0 -0.27066783253E+01  0.62223989384E+02 -0.10592132579E+03  0.17534533447E+03  0.12509000000E+03 0.  0.
<mgrwt>
<rscale>  2 0.41143174E+03</rscale>
<asrwt>0</asrwt>
<pdfrwt beam="1">  1       21 0.16816357E-01 0.41143174E+03</pdfrwt>
<pdfrwt beam="2">  1       21 0.54423422E-01 0.41143174E+03</pdfrwt>
<totfact> 0.95296136E+04</totfact>
</mgrwt>
</event>
<event>
 7    0  0.4748297E-002  0.4178341E+03  0.7546771E-02  0.1037774E+00
         21   -1    0    0  502  501  0.00000000000E+00  0.00000000000E+00  0.27438777111E+03  0.27438777111E+03  0.00000000000E+00 0. -1.
         21   -1    0    0  501  502 -0.00000000000E+00 -0.00000000000E+00 -0.15906808186E+03  0.15906808186E+03  0.00000000000E+00 0. -1.
      99926    2    1    2    0    0  0.00000000000E+00  0.17763568394E-14  0.11531968926E+03  0.43345585297E+03  0.41783411271E+03 0.  0.
      99925    2    3    3    0    0  0.52853368404E+02 -0.13688095214E+02  0.12579612972E+03  0.29656864974E+03  0.26295903722E+03 0.  0.
         25    1    3    3    0    0 -0.52853368404E+02  0.13688095214E+02 -0.10476440466E+02  0.13688720323E+03  0.12509000000E+03 0.  0.
         25    1    4    4    0    0  0.44767751864E+02 -0.43065695699E+02  0.70479560729E+02  0.15644066713E+03  0.12509000000E+03 0.  0.
         25    1    4    4    0    0  0.80856165395E+01  0.29377600486E+02  0.55316568993E+02  0.14012798261E+03  0.12509000000E+03 0.  0.
<mgrwt>
<rscale>  2 0.41783411E+03</rscale>
<asrwt>0</asrwt>
<pdfrwt beam="1">  1       21 0.40351143E-01 0.41783411E+03</pdfrwt>
<pdfrwt beam="2">  1       21 0.23392365E-01 0.41783411E+03</pdfrwt>
<totfact> 0.95433430E+04</totfact>
</mgrwt>
</event>
<event>
 7    0  0.4748297E-002  0.4674785E+03  0.7546771E-02  0.1022634E+00
         21   -1    0    0  502  501  0.00000000000E+00  0.00000000000E+00  0.88373248596E+02  0.88373248596E+02  0.00000000000E+00 0. -1.
         21   -1    0    0  501  502 -0.00000000000E+00 -0.00000000000E+00 -0.61821916422E+03  0.61821916422E+03  0.00000000000E+00 0. -1.
      99926    2    1    2    0    0  0.00000000000E+00  0.00000000000E+00 -0.52984591562E+03  0.70659241281E+03  0.46747849527E+03 0.  0.
      99925    2    3    3    0    0 -0.99215267278E+02  0.74919930905E+02 -0.32164897333E+03  0.43373688293E+03  0.26308355377E+03 0.  0.
         25    1    4    4    0    0 -0.87895993958E+02  0.46361272113E+02 -0.20551704235E+03  0.26030719564E+03  0.12509000000E+03 0.  0.
         25    1    3    3    0    0  0.99215267278E+02 -0.74919930905E+02 -0.20819694229E+03  0.27285552988E+03  0.12509000000E+03 0.  0.
         25    1    4    4    0    0 -0.11319273320E+02  0.28558658792E+02 -0.11613193098E+03  0.17342968729E+03  0.12509000000E+03 0.  0.
<mgrwt>
<rscale>  2 0.46747850E+03</rscale>
<asrwt>0</asrwt>
<pdfrwt beam="1">  1       21 0.12996066E-01 0.46747850E+03</pdfrwt>
<pdfrwt beam="2">  1       21 0.90914585E-01 0.46747850E+03</pdfrwt>
<totfact> 0.47688202E+04</totfact>
</mgrwt>
</event>
<event>
 7    0  0.4748297E-002  0.4482946E+03  0.7546771E-02  0.1028232E+00
         21   -1    0    0  502  501  0.00000000000E+00  0.00000000000E+00  0.32026182390E+03  0.32026182390E+03  0.00000000000E+00 0. -1.
         21   -1    0    0  501  502 -0.00000000000E+00 -0.00000000000E+00 -0.15687789819E+03  0.15687789819E+03  0.00000000000E+00 0. -1.
      99926    2    1    2    0    0  0.71054273576E-14  0.14210854715E-13  0.16338392571E+03  0.47713972209E+03  0.44829455407E+03 0.  0.
      99925    2    3    3    0    0 -0.41296171305E+02 -0.84898189819E+02  0.15652763989E+03  0.32027164645E+03  0.26298279234E+03 0.  0.
         25    1    3    3    0    0  0.41296171305E+02  0.84898189819E+02  0.68562858115E+01  0.15686807564E+03  0.12509000000E+03 0.  0.
         25    1    4    4    0    0  0.21996233378E+01 -0.34290000268E+02  0.37172349057E+02  0.13494418882E+03  0.12509000000E+03 0.  0.
         25    1    4    4    0    0 -0.43495794643E+02 -0.50608189551E+02  0.11935529084E+03  0.18532745763E+03  0.12509000000E+03 0.  0.
<mgrwt>
<rscale>  2 0.44829455E+03</rscale>
<asrwt>0</asrwt>
<pdfrwt beam="1">  1       21 0.47097327E-01 0.44829455E+03</pdfrwt>
<pdfrwt beam="2">  1       21 0.23070279E-01 0.44829455E+03</pdfrwt>
<totfact> 0.70592035E+04</totfact>
</mgrwt>
</event>
<event>
 7    0  0.4748297E-002  0.4567663E+03  0.7546771E-02  0.1025723E+00
         21   -1    0    0  502  501  0.00000000000E+00  0.00000000000E+00  0.48128192698E+03  0.48128192698E+03  0.00000000000E+00 0. -1.
         21   -1    0    0  501  502 -0.00000000000E+00 -0.00000000000E+00 -0.10837486015E+03  0.10837486015E+03  0.00000000000E+00 0. -1.
      99926    2    1    2    0    0  0.00000000000E+00  0.00000000000E+00  0.37290706684E+03  0.58965678713E+03  0.45676629266E+03 0.  0.
      99925    2    3    3    0    0 -0.35021170174E+02 -0.71389416632E+02  0.12423729946E+03  0.30016224059E+03  0.26141831025E+03 0.  0.
         25    1    4    4    0    0 -0.12663948713E+02 -0.14029617346E+02  0.24804195707E+02  0.12891843152E+03  0.12509000000E+03 0.  0.
         25    1    3    3    0    0  0.35021170174E+02  0.71389416632E+02  0.24866976737E+03  0.28949454654E+03  0.12509000000E+03 0.  0.
         25    1    4    4    0    0 -0.22357221461E+02 -0.57359799285E+02  0.99433103754E+02  0.17124380908E+03  0.12509000000E+03 0.  0.
<mgrwt>
<rscale>  2 0.45676629E+03</rscale>
<asrwt>0</asrwt>
<pdfrwt beam="1">  1       21 0.70776753E-01 0.45676629E+03</pdfrwt>
<pdfrwt beam="2">  1       21 0.15937480E-01 0.45676629E+03</pdfrwt>
<totfact> 0.58498541E+04</totfact>
</mgrwt>
</event>
<event>
 7    0  0.4748297E-002  0.4358146E+03  0.7546771E-02  0.1032039E+00
         21   -1    0    0  502  501  0.00000000000E+00  0.00000000000E+00  0.98403667632E+02  0.98403667632E+02  0.00000000000E+00 0.  1.
         21   -1    0    0  501  502 -0.00000000000E+00 -0.00000000000E+00 -0.48253894119E+03  0.48253894119E+03  0.00000000000E+00 0.  1.
      99926    2    1    2    0    0  0.00000000000E+00  0.00000000000E+00 -0.38413527355E+03  0.58094260882E+03  0.43581464678E+03 0.  0.
      99925    2    3    3    0    0 -0.35410229153E+02 -0.55793912263E+02 -0.33494046106E+03  0.43116115920E+03  0.26334006108E+03 0.  0.
         25    1    4    4    0    0 -0.45164233920E+02 -0.53464801307E+02 -0.14824590133E+03  0.20621020432E+03  0.12509000000E+03 0.  0.
         25    1    3    3    0    0  0.35410229153E+02  0.55793912263E+02 -0.49194812490E+02  0.14978144962E+03  0.12509000000E+03 0.  0.
         25    1    4    4    0    0  0.97540047673E+01 -0.23291109560E+01 -0.18669455973E+03  0.22495095487E+03  0.12509000000E+03 0.  0.
<mgrwt>
<rscale>  2 0.43581465E+03</rscale>
<asrwt>0</asrwt>
<pdfrwt beam="1">  1       21 0.14471128E-01 0.43581465E+03</pdfrwt>
<pdfrwt beam="2">  1       21 0.70961608E-01 0.43581465E+03</pdfrwt>
<totfact> 0.69876614E+04</totfact>
</mgrwt>
</event>
<event>
 7    0  0.4748297E-002  0.4596833E+03  0.7546771E-02  0.1024873E+00
         21   -1    0    0  502  501  0.00000000000E+00  0.00000000000E+00  0.54595553870E+03  0.54595553870E+03  0.00000000000E+00 0. -1.
         21   -1    0    0  501  502 -0.00000000000E+00 -0.00000000000E+00 -0.96760977079E+02  0.96760977079E+02  0.00000000000E+00 0. -1.
      99926    2    1    2    0    0 -0.53290705182E-14  0.00000000000E+00  0.44919456162E+03  0.64271651578E+03  0.45968333172E+03 0.  0.
      99925    2    3    3    0    0  0.13277464195E+02 -0.11389657926E+03  0.31760050535E+03  0.42797661364E+03  0.26295470904E+03 0.  0.
         25    1    4    4    0    0 -0.26459675246E+02 -0.80033309413E+02  0.15489181506E+03  0.21620459640E+03  0.12509000000E+03 0.  0.
         25    1    3    3    0    0 -0.13277464195E+02  0.11389657926E+03  0.13159405627E+03  0.21473990213E+03  0.12509000000E+03 0.  0.
         25    1    4    4    0    0  0.39737139441E+02 -0.33863269843E+02  0.16270869028E+03  0.21177201725E+03  0.12509000000E+03 0.  0.
<mgrwt>
<rscale>  2 0.45968333E+03</rscale>
<asrwt>0</asrwt>
<pdfrwt beam="1">  1       21 0.80287578E-01 0.45968333E+03</pdfrwt>
<pdfrwt beam="2">  1       21 0.14229556E-01 0.45968333E+03</pdfrwt>
<totfact> 0.54095944E+04</totfact>
</mgrwt>
</event>
<event>
 6    0  0.4748297E-002  0.4523420E+03  0.7546771E-02  0.1027026E+00
         21   -1    0    0  502  501  0.00000000000E+00  0.00000000000E+00  0.39394002394E+02  0.39394002394E+02  0.00000000000E+00 0. -1.
         21   -1    0    0  501  502 -0.00000000000E+00 -0.00000000000E+00 -0.12985053484E+04  0.12985053484E+04  0.00000000000E+00 0. -1.
      99926    2    1    2    0    0  0.00000000000E+00  0.00000000000E+00 -0.12591113460E+04  0.13378993508E+04  0.45234200691E+03 0.  0.
         25    1    3    3    0    0 -0.52662294768E+02 -0.10620050968E+02 -0.48380725920E+03  0.50259633398E+03  0.12509000000E+03 0.  0.
         25    1    3    3    0    0 -0.26257561967E+02 -0.64392239013E+02 -0.31348824832E+03  0.34461313083E+03  0.12509000000E+03 0.  0.
         25    1    3    3    0    0  0.78919856735E+02  0.75012289981E+02 -0.46181583850E+03  0.49068988600E+03  0.12509000000E+03 0.  0.
<mgrwt>
<rscale>  2 0.45234201E+03</rscale>
<asrwt>0</asrwt>
<pdfrwt beam="1">  1       21 0.57932351E-02 0.45234201E+03</pdfrwt>
<pdfrwt beam="2">  1       21 0.19095669E+00 0.45234201E+03</pdfrwt>
<totfact> 0.28620551E+04</totfact>
</mgrwt>
</event>
<event>
 7    0  0.4748297E-002  0.4666104E+03  0.7546771E-02  0.1022881E+00
         21   -1    0    0  502  501  0.00000000000E+00  0.00000000000E+00  0.13059613998E+03  0.13059613998E+03  0.00000000000E+00 0.  1.
         21   -1    0    0  501  502 -0.00000000000E+00 -0.00000000000E+00 -0.41679120077E+03  0.41679120077E+03  0.00000000000E+00 0.  1.
      99926    2    1    2    0    0 -0.14210854715E-13  0.00000000000E+00 -0.28619506079E+03  0.54738734074E+03  0.46661042421E+03 0.  0.
      99925    2    3    3    0    0 -0.97107754792E+02  0.67022244909E+01 -0.26788987593E+03  0.38783351363E+03  0.26301143096E+03 0.  0.
         25    1    4    4    0    0 -0.11722750819E+02 -0.52212378687E+01 -0.94462510370E+02  0.15727478557E+03  0.12509000000E+03 0.  0.
         25    1    4    4    0    0 -0.85385003973E+02  0.11923462360E+02 -0.17342736556E+03  0.23055872806E+03  0.12509000000E+03 0.  0.
         25    1    3    3    0    0  0.97107754792E+02 -0.67022244909E+01 -0.18305184862E+02  0.15955382711E+03  0.12509000000E+03 0.  0.
<mgrwt>
<rscale>  2 0.46661042E+03</rscale>
<asrwt>0</asrwt>
<pdfrwt beam="1">  1       21 0.19205314E-01 0.46661042E+03</pdfrwt>
<pdfrwt beam="2">  1       21 0.61292825E-01 0.46661042E+03</pdfrwt>
<totfact> 0.56650487E+04</totfact>
</mgrwt>
</event>
<event>
 7    0  0.4748297E-002  0.4510355E+03  0.7546771E-02  0.1027414E+00
         21   -1    0    0  502  501  0.00000000000E+00  0.00000000000E+00  0.18956977448E+03  0.18956977448E+03  0.00000000000E+00 0.  1.
         21   -1    0    0  501  502 -0.00000000000E+00 -0.00000000000E+00 -0.26828248624E+03  0.26828248624E+03  0.00000000000E+00 0.  1.
      99926    2    1    2    0    0 -0.35527136788E-14  0.00000000000E+00 -0.78712711763E+02  0.45785226073E+03  0.45103547716E+03 0.  0.
      99925    2    3    3    0    0  0.22645008333E+02  0.50884948182E+02  0.45955224146E+02  0.27267214112E+03  0.26293752026E+03 0.  0.
         25    1    4    4    0    0  0.26954267871E+02  0.13889354699E+02  0.58832671915E+02  0.14152115784E+03  0.12509000000E+03 0.  0.
         25    1    3    3    0    0 -0.22645008333E+02 -0.50884948182E+02 -0.12466793591E+03  0.18518011961E+03  0.12509000000E+03 0.  0.
         25    1    4    4    0    0 -0.43092595377E+01  0.36995593483E+02 -0.12877447768E+02  0.13115098328E+03  0.12509000000E+03 0.  0.
<mgrwt>
<rscale>  2 0.45103548E+03</rscale>
<asrwt>0</asrwt>
<pdfrwt beam="1">  1       21 0.27877908E-01 0.45103548E+03</pdfrwt>
<pdfrwt beam="2">  1       21 0.39453307E-01 0.45103548E+03</pdfrwt>
<totfact> 0.70541059E+04</totfact>
</mgrwt>
</event>
<event>
 7    0  0.4748297E-002  0.4162175E+03  0.7546771E-02  0.1038304E+00
         21   -1    0    0  502  501  0.00000000000E+00  0.00000000000E+00  0.78396253786E+02  0.78396253786E+02  0.00000000000E+00 0.  1.
         21   -1    0    0  501  502 -0.00000000000E+00 -0.00000000000E+00 -0.55244028321E+03  0.55244028321E+03  0.00000000000E+00 0.  1.
      99926    2    1    2    0    0  0.00000000000E+00 -0.71054273576E-14 -0.47404402943E+03  0.63083653700E+03  0.41621748471E+03 0.  0.
      99925    2    3    3    0    0 -0.47553416407E+02  0.50600628800E+02 -0.28763499351E+03  0.39585230813E+03  0.26295134400E+03 0.  0.
         25    1    3    3    0    0  0.47553416407E+02 -0.50600628800E+02 -0.18640903591E+03  0.23498422887E+03  0.12509000000E+03 0.  0.
         25    1    4    4    0    0  0.99246090369E+01  0.67844461853E+01 -0.15681349031E+03  0.20095398831E+03  0.12509000000E+03 0.  0.
         25    1    4    4    0    0 -0.57478025444E+02  0.43816182614E+02 -0.13082150320E+03  0.19489831982E+03  0.12509000000E+03 0.  0.
<mgrwt>
<rscale>  2 0.41621748E+03</rscale>
<asrwt>0</asrwt>
<pdfrwt beam="1">  1       21 0.11528860E-01 0.41621748E+03</pdfrwt>
<pdfrwt beam="2">  1       21 0.81241221E-01 0.41621748E+03</pdfrwt>
<totfact> 0.78112187E+04</totfact>
</mgrwt>
</event>
<event>
 7    0  0.4748297E-002  0.4621991E+03  0.7546771E-02  0.1024145E+00
         21   -1    0    0  502  501  0.00000000000E+00  0.00000000000E+00  0.22049931534E+03  0.22049931534E+03  0.00000000000E+00 0. -1.
         21   -1    0    0  501  502 -0.00000000000E+00 -0.00000000000E+00 -0.24220942165E+03  0.24220942165E+03  0.00000000000E+00 0. -1.
      99926    2    1    2    0    0  0.00000000000E+00 -0.71054273576E-14 -0.21710106310E+02  0.46270873699E+03  0.46219914168E+03 0.  0.
      99925    2    3    3    0    0 -0.86218712468E+02 -0.62505262252E+02 -0.68509054934E+02  0.29189239152E+03  0.26299639433E+03 0.  0.
         25    1    3    3    0    0  0.86218712468E+02  0.62505262252E+02  0.46798948624E+02  0.17081634547E+03  0.12509000000E+03 0.  0.
         25    1    4    4    0    0 -0.17082425811E+02 -0.37569956402E+02 -0.65057446489E+00  0.13172411413E+03  0.12509000000E+03 0.  0.
         25    1    4    4    0    0 -0.69136286656E+02 -0.24935305850E+02 -0.67858480469E+02  0.16016827739E+03  0.12509000000E+03 0.  0.
<mgrwt>
<rscale>  2 0.46219914E+03</rscale>
<asrwt>0</asrwt>
<pdfrwt beam="1">  1       21 0.32426370E-01 0.46219914E+03</pdfrwt>
<pdfrwt beam="2">  1       21 0.35619032E-01 0.46219914E+03</pdfrwt>
<totfact> 0.64216062E+04</totfact>
</mgrwt>
</event>
<event>
 7    0  0.4748297E-002  0.4555421E+03  0.7546771E-02  0.1026082E+00
         21   -1    0    0  502  501  0.00000000000E+00  0.00000000000E+00  0.71827604723E+02  0.71827604723E+02  0.00000000000E+00 0. -1.
         21   -1    0    0  501  502 -0.00000000000E+00 -0.00000000000E+00 -0.72228018206E+03  0.72228018206E+03  0.00000000000E+00 0. -1.
      99926    2    1    2    0    0 -0.17763568394E-14  0.00000000000E+00 -0.65045257734E+03  0.79410778678E+03  0.45554211843E+03 0.  0.
      99925    2    3    3    0    0  0.14667251050E+02 -0.71855147306E+02 -0.25776801677E+03  0.37550658915E+03  0.26302577360E+03 0.  0.
         25    1    3    3    0    0 -0.14667251050E+02  0.71855147306E+02 -0.39268456057E+03  0.41860119763E+03  0.12509000000E+03 0.  0.
         25    1    4    4    0    0  0.34243511227E+02 -0.43844994388E+02 -0.91565608680E+02  0.16470206552E+03  0.12509000000E+03 0.  0.
         25    1    4    4    0    0 -0.19576260177E+02 -0.28010152918E+02 -0.16620240809E+03  0.21080452363E+03  0.12509000000E+03 0.  0.
<mgrwt>
<rscale>  2 0.45554212E+03</rscale>
<asrwt>0</asrwt>
<pdfrwt beam="1">  1       21 0.10562884E-01 0.45554212E+03</pdfrwt>
<pdfrwt beam="2">  1       21 0.10621766E+00 0.45554212E+03</pdfrwt>
<totfact> 0.47847243E+04</totfact>
</mgrwt>
</event>
<event>
 7    0  0.4748297E-002  0.4557368E+03  0.7546771E-02  0.1026025E+00
         21   -1    0    0  502  501  0.00000000000E+00  0.00000000000E+00  0.54059741565E+02  0.54059741565E+02  0.00000000000E+00 0.  1.
         21   -1    0    0  501  502 -0.00000000000E+00 -0.00000000000E+00 -0.96049306842E+03  0.96049306842E+03  0.00000000000E+00 0.  1.
      99926    2    1    2    0    0 -0.24980018054E-15  0.00000000000E+00 -0.90643332685E+03  0.10145528100E+04  0.45573679708E+03 0.  0.
      99925    2    3    3    0    0  0.10688224661E+00  0.10111644054E+03 -0.45197810785E+03  0.53247231862E+03  0.26271279784E+03 0.  0.
         25    1    4    4    0    0  0.52170380914E+01  0.86266539461E+02 -0.28758665537E+03  0.32530405125E+03  0.12509000000E+03 0.  0.
         25    1    4    4    0    0 -0.51101558448E+01  0.14849901084E+02 -0.16439145248E+03  0.20716826737E+03  0.12509000000E+03 0.  0.
         25    1    3    3    0    0 -0.10688224661E+00 -0.10111644054E+03 -0.45445521900E+03  0.48208049136E+03  0.12509000000E+03 0.  0.
<mgrwt>
<rscale>  2 0.45573680E+03</rscale>
<asrwt>0</asrwt>
<pdfrwt beam="1">  1       21 0.79499628E-02 0.45573680E+03</pdfrwt>
<pdfrwt beam="2">  1       21 0.14124897E+00 0.45573680E+03</pdfrwt>
<totfact> 0.38384164E+04</totfact>
</mgrwt>
</event>
<event>
 7    0  0.4748297E-002  0.4237109E+03  0.7546771E-02  0.1035865E+00
         21   -1    0    0  502  501  0.00000000000E+00  0.00000000000E+00  0.30775006986E+03  0.30775006986E+03  0.00000000000E+00 0.  1.
         21   -1    0    0  501  502 -0.00000000000E+00 -0.00000000000E+00 -0.14584152175E+03  0.14584152175E+03  0.00000000000E+00 0.  1.
      99926    2    1    2    0    0  0.71054273576E-14  0.00000000000E+00  0.16190854811E+03  0.45359159162E+03  0.42371093216E+03 0.  0.
      99925    2    3    3    0    0  0.41799840637E+02 -0.59904830413E+02  0.68803183500E+02  0.28139422694E+03  0.26289354787E+03 0.  0.
         25    1    4    4    0    0  0.25119538998E+02 -0.40281376950E+02 -0.50016082241E+01  0.13388840410E+03  0.12509000000E+03 0.  0.
         25    1    3    3    0    0 -0.41799840637E+02  0.59904830413E+02  0.93105364609E+02  0.17219736468E+03  0.12509000000E+03 0.  0.
         25    1    4    4    0    0  0.16680301639E+02 -0.19623453463E+02  0.73804791724E+02  0.14750582283E+03  0.12509000000E+03 0.  0.
<mgrwt>
<rscale>  2 0.42371093E+03</rscale>
<asrwt>0</asrwt>
<pdfrwt beam="1">  1       21 0.45257363E-01 0.42371093E+03</pdfrwt>
<pdfrwt beam="2">  1       21 0.21447283E-01 0.42371093E+03</pdfrwt>
<totfact> 0.88746712E+04</totfact>
</mgrwt>
</event>
<event>
 7    0  0.4748297E-002  0.4505125E+03  0.7546771E-02  0.1027569E+00
         21   -1    0    0  502  501  0.00000000000E+00  0.00000000000E+00  0.19583348649E+03  0.19583348649E+03  0.00000000000E+00 0. -1.
         21   -1    0    0  501  502 -0.00000000000E+00 -0.00000000000E+00 -0.25909956724E+03  0.25909956724E+03  0.00000000000E+00 0. -1.
      99926    2    1    2    0    0  0.00000000000E+00  0.00000000000E+00 -0.63266080751E+02  0.45493305372E+03  0.45051247086E+03 0.  0.
      99925    2    3    3    0    0  0.87585996239E+02  0.38441768599E+02  0.13186748194E+02  0.27988557598E+03  0.26270319565E+03 0.  0.
         25    1    4    4    0    0  0.10409520803E+02  0.31699312581E+01 -0.13877015333E+02  0.12632690229E+03  0.12509000000E+03 0.  0.
         25    1    4    4    0    0  0.77176475436E+02  0.35271837340E+02  0.27063763527E+02  0.15355867369E+03  0.12509000000E+03 0.  0.
         25    1    3    3    0    0 -0.87585996239E+02 -0.38441768599E+02 -0.76452828945E+02  0.17504747774E+03  0.12509000000E+03 0.  0.
<mgrwt>
<rscale>  2 0.45051247E+03</rscale>
<asrwt>0</asrwt>
<pdfrwt beam="1">  1       21 0.28799042E-01 0.45051247E+03</pdfrwt>
<pdfrwt beam="2">  1       21 0.38102877E-01 0.45051247E+03</pdfrwt>
<totfact> 0.71060618E+04</totfact>
</mgrwt>
</event>
<event>
 7    0  0.4748297E-002  0.4611203E+03  0.7546771E-02  0.1024457E+00
         21   -1    0    0  502  501  0.00000000000E+00  0.00000000000E+00  0.18784106343E+03  0.18784106343E+03  0.00000000000E+00 0. -1.
         21   -1    0    0  501  502 -0.00000000000E+00 -0.00000000000E+00 -0.28299441229E+03  0.28299441229E+03  0.00000000000E+00 0. -1.
      99926    2    1    2    0    0  0.00000000000E+00  0.00000000000E+00 -0.95153348852E+02  0.47083547572E+03  0.46112025048E+03 0.  0.
      99925    2    3    3    0    0 -0.66526200662E+02 -0.57553253257E+02 -0.14107948766E+03  0.31116446814E+03  0.26302431838E+03 0.  0.
         25    1    4    4    0    0  0.33740827962E+01 -0.44954933812E+02 -0.58164193266E+02  0.14513067211E+03  0.12509000000E+03 0.  0.
         25    1    4    4    0    0 -0.69900283458E+02 -0.12598319445E+02 -0.82915294397E+02  0.16603379603E+03  0.12509000000E+03 0.  0.
         25    1    3    3    0    0  0.66526200662E+02  0.57553253257E+02  0.45926138811E+02  0.15967100758E+03  0.12509000000E+03 0.  0.
<mgrwt>
<rscale>  2 0.46112025E+03</rscale>
<asrwt>0</asrwt>
<pdfrwt beam="1">  1       21 0.27623686E-01 0.46112025E+03</pdfrwt>
<pdfrwt beam="2">  1       21 0.41616825E-01 0.46112025E+03</pdfrwt>
<totfact> 0.64198671E+04</totfact>
</mgrwt>
</event>
<event>
 7    0  0.4748297E-002  0.4696767E+03  0.7546771E-02  0.1022011E+00
         21   -1    0    0  502  501  0.00000000000E+00  0.00000000000E+00  0.46435518740E+03  0.46435518740E+03  0.00000000000E+00 0. -1.
         21   -1    0    0  501  502 -0.00000000000E+00 -0.00000000000E+00 -0.11876481485E+03  0.11876481485E+03  0.00000000000E+00 0. -1.
      99926    2    1    2    0    0  0.14210854715E-13  0.00000000000E+00  0.34559037255E+03  0.58312000225E+03  0.46967673077E+03 0.  0.
      99925    2    3    3    0    0  0.10206241664E+03  0.56983809704E+02  0.15523869605E+03  0.32710211166E+03  0.26312135459E+03 0.  0.
         25    1    4    4    0    0  0.14449068556E+02  0.47264881938E+02  0.81104440675E+02  0.15706108062E+03  0.12509000000E+03 0.  0.
         25    1    3    3    0    0 -0.10206241664E+03 -0.56983809704E+02  0.19035167650E+03  0.25601789059E+03  0.12509000000E+03 0.  0.
         25    1    4    4    0    0  0.87613348080E+02  0.97189277653E+01  0.74134255376E+02  0.17004103104E+03  0.12509000000E+03 0.  0.
<mgrwt>
<rscale>  2 0.46967673E+03</rscale>
<asrwt>0</asrwt>
<pdfrwt beam="1">  1       21 0.68287527E-01 0.46967673E+03</pdfrwt>
<pdfrwt beam="2">  1       21 0.17465414E-01 0.46967673E+03</pdfrwt>
<totfact> 0.53273948E+04</totfact>
</mgrwt>
</event>
<event>
 7    0  0.4748297E-002  0.4551428E+03  0.7546771E-02  0.1026199E+00
         21   -1    0    0  502  501  0.00000000000E+00  0.00000000000E+00  0.47651581196E+03  0.47651581196E+03  0.00000000000E+00 0.  1.
         21   -1    0    0  501  502 -0.00000000000E+00 -0.00000000000E+00 -0.10868209410E+03  0.10868209410E+03  0.00000000000E+00 0.  1.
      99926    2    1    2    0    0  0.00000000000E+00  0.00000000000E+00  0.36783371786E+03  0.58519790606E+03  0.45514277459E+03 0.  0.
      99925    2    3    3    0    0  0.12815353813E+02  0.79464218526E+02  0.33388418799E+03  0.43262374705E+03  0.26307006710E+03 0.  0.
         25    1    3    3    0    0 -0.12815353813E+02 -0.79464218526E+02  0.33949529872E+02  0.15257415901E+03  0.12509000000E+03 0.  0.
         25    1    4    4    0    0  0.11772182943E+02  0.81897458054E+02  0.18410587890E+03  0.23746212471E+03  0.12509000000E+03 0.  0.
         25    1    4    4    0    0  0.10431708695E+01 -0.24332395284E+01  0.14977830910E+03  0.19516162234E+03  0.12509000000E+03 0.  0.
<mgrwt>
<rscale>  2 0.45514277E+03</rscale>
<asrwt>0</asrwt>
<pdfrwt beam="1">  1       21 0.70075854E-01 0.45514277E+03</pdfrwt>
<pdfrwt beam="2">  1       21 0.15982661E-01 0.45514277E+03</pdfrwt>
<totfact> 0.59531536E+04</totfact>
</mgrwt>
</event>
<event>
 7    0  0.4748297E-002  0.4487502E+03  0.7546771E-02  0.1028095E+00
         21   -1    0    0  502  501  0.00000000000E+00  0.00000000000E+00  0.10033778232E+04  0.10033778232E+04  0.00000000000E+00 0. -1.
         21   -1    0    0  501  502 -0.00000000000E+00 -0.00000000000E+00 -0.50174702171E+02  0.50174702171E+02  0.00000000000E+00 0. -1.
      99926    2    1    2    0    0  0.00000000000E+00  0.00000000000E+00  0.95320312106E+03  0.10535525254E+04  0.44875019085E+03 0.  0.
      99925    2    3    3    0    0 -0.45165027368E+02 -0.11258536267E+02  0.82999001931E+03  0.87190558521E+03  0.26300053811E+03 0.  0.
         25    1    4    4    0    0  0.49257845442E+01  0.30256635301E+01  0.49392758468E+03  0.50955410410E+03  0.12509000000E+03 0.  0.
         25    1    4    4    0    0 -0.50090811912E+02 -0.14284199797E+02  0.33606243462E+03  0.36235148112E+03  0.12509000000E+03 0.  0.
         25    1    3    3    0    0  0.45165027368E+02  0.11258536267E+02  0.12321310175E+03  0.18164694019E+03  0.12509000000E+03 0.  0.
<mgrwt>
<rscale>  2 0.44875019E+03</rscale>
<asrwt>0</asrwt>
<pdfrwt beam="1">  1       21 0.14755555E+00 0.44875019E+03</pdfrwt>
<pdfrwt beam="2">  1       21 0.73786333E-02 0.44875019E+03</pdfrwt>
<totfact> 0.39016010E+04</totfact>
</mgrwt>
</event>
<event>
 6    0  0.4748297E-002  0.4575176E+03  0.7546771E-02  0.1025504E+00
         21   -1    0    0  502  501  0.00000000000E+00  0.00000000000E+00  0.24618109504E+04  0.24618109504E+04  0.00000000000E+00 0. -1.
         21   -1    0    0  501  502 -0.00000000000E+00 -0.00000000000E+00 -0.21256947302E+02  0.21256947302E+02  0.00000000000E+00 0. -1.
      99926    2    1    2    0    0  0.00000000000E+00  0.00000000000E+00  0.24405540031E+04  0.24830678977E+04  0.45751758716E+03 0.  0.
         25    1    3    3    0    0 -0.27638723695E+02 -0.86062023824E+02  0.52711719647E+03  0.54924549876E+03  0.12509000000E+03 0.  0.
         25    1    3    3    0    0  0.41633002284E+02  0.33356093145E+02  0.11789001586E+04  0.11867177541E+04  0.12509000000E+03 0.  0.
         25    1    3    3    0    0 -0.13994278589E+02  0.52705930679E+02  0.73453664805E+03  0.74710464487E+03  0.12509000000E+03 0.  0.
<mgrwt>
<rscale>  2 0.45751759E+03</rscale>
<asrwt>0</asrwt>
<pdfrwt beam="1">  1       21 0.36203083E+00 0.45751759E+03</pdfrwt>
<pdfrwt beam="2">  1       21 0.31260233E-02 0.45751759E+03</pdfrwt>
<totfact> 0.71653422E+03</totfact>
</mgrwt>
</event>
<event>
 7    0  0.4748297E-002  0.4485242E+03  0.7546771E-02  0.1028163E+00
         21   -1    0    0  502  501  0.00000000000E+00  0.00000000000E+00  0.47148444052E+03  0.47148444052E+03  0.00000000000E+00 0.  1.
         21   -1    0    0  501  502 -0.00000000000E+00 -0.00000000000E+00 -0.10667049744E+03  0.10667049744E+03  0.00000000000E+00 0.  1.
      99926    2    1    2    0    0  0.00000000000E+00  0.00000000000E+00  0.36481394308E+03  0.57815493795E+03  0.44852415678E+03 0.  0.
      99925    2    3    3    0    0  0.56500701332E+02 -0.45346453331E+02  0.12967820558E+03  0.30213871881E+03  0.26310214428E+03 0.  0.
         25    1    3    3    0    0 -0.56500701332E+02  0.45346453331E+02  0.23513573750E+03  0.27601621914E+03  0.12509000000E+03 0.  0.
         25    1    4    4    0    0  0.68053478129E+02 -0.33487746991E+02  0.78018762301E+02  0.16579246200E+03  0.12509000000E+03 0.  0.
         25    1    4    4    0    0 -0.11552776797E+02 -0.11858706339E+02  0.51659443277E+02  0.13634625682E+03  0.12509000000E+03 0.  0.
<mgrwt>
<rscale>  2 0.44852416E+03</rscale>
<asrwt>0</asrwt>
<pdfrwt beam="1">  1       21 0.69335946E-01 0.44852416E+03</pdfrwt>
<pdfrwt beam="2">  1       21 0.15686838E-01 0.44852416E+03</pdfrwt>
<totfact> 0.63218445E+04</totfact>
</mgrwt>
</event>
<event>
 7    0  0.4748297E-002  0.4496118E+03  0.7546771E-02  0.1027838E+00
         21   -1    0    0  502  501  0.00000000000E+00  0.00000000000E+00  0.65931149887E+02  0.65931149887E+02  0.00000000000E+00 0. -1.
         21   -1    0    0  501  502 -0.00000000000E+00 -0.00000000000E+00 -0.76652222635E+03  0.76652222635E+03  0.00000000000E+00 0. -1.
      99926    2    1    2    0    0  0.00000000000E+00  0.00000000000E+00 -0.70059107646E+03  0.83245337623E+03  0.44961179609E+03 0.  0.
      99925    2    3    3    0    0  0.55900926197E+02  0.88103036548E+02 -0.39124556711E+03  0.48284043189E+03  0.26301089385E+03 0.  0.
         25    1    4    4    0    0  0.35853080685E+02  0.57247092316E+02 -0.13866868865E+03  0.19859301671E+03  0.12509000000E+03 0.  0.
         25    1    4    4    0    0  0.20047845511E+02  0.30855944232E+02 -0.25257687846E+03  0.28424741518E+03  0.12509000000E+03 0.  0.
         25    1    3    3    0    0 -0.55900926197E+02 -0.88103036548E+02 -0.30934550935E+03  0.34961294435E+03  0.12509000000E+03 0.  0.
<mgrwt>
<rscale>  2 0.44961180E+03</rscale>
<asrwt>0</asrwt>
<pdfrwt beam="1">  1       21 0.96957579E-02 0.44961180E+03</pdfrwt>
<pdfrwt beam="2">  1       21 0.11272385E+00 0.44961180E+03</pdfrwt>
<totfact> 0.48242124E+04</totfact>
</mgrwt>
</event>
<event>
 7    0  0.4748297E-002  0.4555971E+03  0.7546771E-02  0.1026066E+00
         21   -1    0    0  502  501  0.00000000000E+00  0.00000000000E+00  0.26431427555E+03  0.26431427555E+03  0.00000000000E+00 0.  1.
         21   -1    0    0  501  502 -0.00000000000E+00 -0.00000000000E+00 -0.19632755497E+03  0.19632755497E+03  0.00000000000E+00 0.  1.
      99926    2    1    2    0    0  0.00000000000E+00 -0.14210854715E-13  0.67986720587E+02  0.46064183052E+03  0.45559708279E+03 0.  0.
      99925    2    3    3    0    0 -0.41708534325E+02  0.10174924869E+03  0.13590565875E+02  0.28543064026E+03  0.26304645117E+03 0.  0.
         25    1    4    4    0    0 -0.27970445197E+02  0.13750599014E+02 -0.13071138294E+02  0.12957541254E+03  0.12509000000E+03 0.  0.
         25    1    3    3    0    0  0.41708534325E+02 -0.10174924869E+03  0.54396154712E+02  0.17521119026E+03  0.12509000000E+03 0.  0.
         25    1    4    4    0    0 -0.13738089128E+02  0.87998649681E+02  0.26661704169E+02  0.15585522772E+03  0.12509000000E+03 0.  0.
<mgrwt>
<rscale>  2 0.45559708E+03</rscale>
<asrwt>0</asrwt>
<pdfrwt beam="1">  1       21 0.38869746E-01 0.45559708E+03</pdfrwt>
<pdfrwt beam="2">  1       21 0.28871699E-01 0.45559708E+03</pdfrwt>
<totfact> 0.67810363E+04</totfact>
</mgrwt>
</event>
<event>
 6    0  0.4748297E-002  0.4483033E+03  0.7546771E-02  0.1028229E+00
         21   -1    0    0  502  501  0.00000000000E+00  0.00000000000E+00  0.11828691311E+03  0.11828691311E+03  0.00000000000E+00 0. -1.
         21   -1    0    0  501  502 -0.00000000000E+00 -0.00000000000E+00 -0.42476352523E+03  0.42476352523E+03  0.00000000000E+00 0. -1.
      99926    2    1    2    0    0  0.00000000000E+00 -0.14210854715E-13 -0.30647661211E+03  0.54305043834E+03  0.44830331786E+03 0.  0.
         25    1    3    3    0    0 -0.37462702801E+02  0.46465260654E+01 -0.82464073777E+02  0.15450849773E+03  0.12509000000E+03 0.  0.
         25    1    3    3    0    0 -0.14899074826E+02 -0.86234033759E+02 -0.70840592875E+02  0.16829791653E+03  0.12509000000E+03 0.  0.
         25    1    3    3    0    0  0.52361777628E+02  0.81587507694E+02 -0.15317194546E+03  0.22024402408E+03  0.12509000000E+03 0.  0.
<mgrwt>
<rscale>  2 0.44830332E+03</rscale>
<asrwt>0</asrwt>
<pdfrwt beam="1">  1       21 0.17395135E-01 0.44830332E+03</pdfrwt>
<pdfrwt beam="2">  1       21 0.62465223E-01 0.44830332E+03</pdfrwt>
<totfact> 0.65743331E+04</totfact>
</mgrwt>
</event>
<event>
 7    0  0.4748297E-002  0.4567774E+03  0.7546771E-02  0.1025720E+00
         21   -1    0    0  502  501  0.00000000000E+00  0.00000000000E+00  0.10516732903E+04  0.10516732903E+04  0.00000000000E+00 0.  1.
         21   -1    0    0  501  502 -0.00000000000E+00 -0.00000000000E+00 -0.49598479099E+02  0.49598479099E+02  0.00000000000E+00 0.  1.
      99926    2    1    2    0    0 -0.88817841970E-15  0.00000000000E+00  0.10020748112E+04  0.11012717694E+04  0.45677738870E+03 0.  0.
      99925    2    3    3    0    0 -0.30899955232E+01  0.11088015267E+03  0.55801374409E+03  0.62678078344E+03  0.26300352767E+03 0.  0.
         25    1    4    4    0    0 -0.24112373830E+02  0.79041439399E+02  0.24067583817E+03  0.28355127030E+03  0.12509000000E+03 0.  0.
         25    1    3    3    0    0  0.30899955232E+01 -0.11088015267E+03  0.44406106709E+03  0.47449098594E+03  0.12509000000E+03 0.  0.
         25    1    4    4    0    0  0.21022378306E+02  0.31838713275E+02  0.31733790593E+03  0.34322951314E+03  0.12509000000E+03 0.  0.
<mgrwt>
<rscale>  2 0.45677739E+03</rscale>
<asrwt>0</asrwt>
<pdfrwt beam="1">  1       21 0.15465782E+00 0.45677739E+03</pdfrwt>
<pdfrwt beam="2">  1       21 0.72938947E-02 0.45677739E+03</pdfrwt>
<totfact> 0.34962866E+04</totfact>
</mgrwt>
</event>
<event>
 7    0  0.4748297E-002  0.4525841E+03  0.7546771E-02  0.1026954E+00
         21   -1    0    0  502  501  0.00000000000E+00  0.00000000000E+00  0.51286035608E+02  0.51286035608E+02  0.00000000000E+00 0. -1.
         21   -1    0    0  501  502 -0.00000000000E+00 -0.00000000000E+00 -0.99848004981E+03  0.99848004981E+03  0.00000000000E+00 0. -1.
      99926    2    1    2    0    0  0.00000000000E+00  0.00000000000E+00 -0.94719401420E+03  0.10497660854E+04  0.45258406242E+03 0.  0.
      99925    2    3    3    0    0  0.66609540815E+02 -0.22289420286E+02 -0.79667494223E+03  0.84183064276E+03  0.26278169331E+03 0.  0.
         25    1    4    4    0    0  0.59592244256E+02 -0.18214685200E+02 -0.32479860317E+03  0.35358825072E+03  0.12509000000E+03 0.  0.
         25    1    3    3    0    0 -0.66609540815E+02  0.22289420286E+02 -0.15051907198E+03  0.20793544266E+03  0.12509000000E+03 0.  0.
         25    1    4    4    0    0  0.70172965592E+01 -0.40747350862E+01 -0.47187633906E+03  0.48824239204E+03  0.12509000000E+03 0.  0.
<mgrwt>
<rscale>  2 0.45258406E+03</rscale>
<asrwt>0</asrwt>
<pdfrwt beam="1">  1       21 0.75420640E-02 0.45258406E+03</pdfrwt>
<pdfrwt beam="2">  1       21 0.14683530E+00 0.45258406E+03</pdfrwt>
<totfact> 0.37997445E+04</totfact>
</mgrwt>
</event>
<event>
 7    0  0.4748297E-002  0.4553349E+03  0.7546771E-02  0.1026143E+00
         21   -1    0    0  502  501  0.00000000000E+00  0.00000000000E+00  0.83704160377E+03  0.83704160377E+03  0.00000000000E+00 0. -1.
         21   -1    0    0  501  502 -0.00000000000E+00 -0.00000000000E+00 -0.61923398017E+02  0.61923398017E+02  0.00000000000E+00 0. -1.
      99926    2    1    2    0    0  0.00000000000E+00  0.71054273576E-14  0.77511820575E+03  0.89896500178E+03  0.45533486748E+03 0.  0.
      99925    2    3    3    0    0  0.99975929142E+02  0.53232410599E+02  0.47291967189E+03  0.55284314764E+03  0.26297082327E+03 0.  0.
         25    1    4    4    0    0  0.63007520950E+02 -0.73935137826E+01  0.26795055071E+03  0.30243944430E+03  0.12509000000E+03 0.  0.
         25    1    3    3    0    0 -0.99975929142E+02 -0.53232410599E+02  0.30219853386E+03  0.34612185414E+03  0.12509000000E+03 0.  0.
         25    1    4    4    0    0  0.36968408192E+02  0.60625924382E+02  0.20496912118E+03  0.25040370335E+03  0.12509000000E+03 0.  0.
<mgrwt>
<rscale>  2 0.45533487E+03</rscale>
<asrwt>0</asrwt>
<pdfrwt beam="1">  1       21 0.12309435E+00 0.45533487E+03</pdfrwt>
<pdfrwt beam="2">  1       21 0.91063826E-02 0.45533487E+03</pdfrwt>
<totfact> 0.43165182E+04</totfact>
</mgrwt>
</event>
<event>
 7    0  0.4748297E-002  0.4501636E+03  0.7546771E-02  0.1027673E+00
         21   -1    0    0  502  501  0.00000000000E+00  0.00000000000E+00  0.79405025253E+02  0.79405025253E+02  0.00000000000E+00 0.  1.
         21   -1    0    0  501  502 -0.00000000000E+00 -0.00000000000E+00 -0.63801788165E+03  0.63801788165E+03  0.00000000000E+00 0.  1.
      99926    2    1    2    0    0 -0.88817841970E-15  0.00000000000E+00 -0.55861285640E+03  0.71742290690E+03  0.45016364137E+03 0.  0.
      99925    2    3    3    0    0  0.51561524297E+01 -0.81267944553E+02 -0.46750438696E+03  0.54255345267E+03  0.26300728594E+03 0.  0.
         25    1    4    4    0    0 -0.26263325815E+02 -0.14915594172E+02 -0.19081220882E+03  0.23015004750E+03  0.12509000000E+03 0.  0.
         25    1    4    4    0    0  0.31419478245E+02 -0.66352350381E+02 -0.27669217815E+03  0.31240340517E+03  0.12509000000E+03 0.  0.
         25    1    3    3    0    0 -0.51561524297E+01  0.81267944553E+02 -0.91108469435E+02  0.17486945423E+03  0.12509000000E+03 0.  0.
<mgrwt>
<rscale>  2 0.45016364E+03</rscale>
<asrwt>0</asrwt>
<pdfrwt beam="1">  1       21 0.11677209E-01 0.45016364E+03</pdfrwt>
<pdfrwt beam="2">  1       21 0.93826161E-01 0.45016364E+03</pdfrwt>
<totfact> 0.53992120E+04</totfact>
</mgrwt>
</event>
<event>
 7    0  0.4748297E-002  0.4479890E+03  0.7546771E-02  0.1028323E+00
         21   -1    0    0  502  501  0.00000000000E+00  0.00000000000E+00  0.18617526836E+04  0.18617526836E+04  0.00000000000E+00 0.  1.
         21   -1    0    0  501  502 -0.00000000000E+00 -0.00000000000E+00 -0.26949624044E+02  0.26949624044E+02  0.00000000000E+00 0.  1.
      99926    2    1    2    0    0  0.00000000000E+00  0.00000000000E+00  0.18348030596E+04  0.18887023077E+04  0.44798899489E+03 0.  0.
      99925    2    3    3    0    0  0.10200341962E+03 -0.28693051117E+02  0.11180497046E+04  0.11534398587E+04  0.26298360600E+03 0.  0.
         25    1    3    3    0    0 -0.10200341962E+03  0.28693051117E+02  0.71675335504E+03  0.73526244897E+03  0.12509000000E+03 0.  0.
         25    1    4    4    0    0  0.93777224141E+02 -0.90529184506E+01  0.62708758006E+03  0.64634546821E+03  0.12509000000E+03 0.  0.
         25    1    4    4    0    0  0.82261954810E+01 -0.19640132666E+02  0.49096212449E+03  0.50709439051E+03  0.12509000000E+03 0.  0.
<mgrwt>
<rscale>  2 0.44798899E+03</rscale>
<asrwt>0</asrwt>
<pdfrwt beam="1">  1       21 0.27378707E+00 0.44798899E+03</pdfrwt>
<pdfrwt beam="2">  1       21 0.39631813E-02 0.44798899E+03</pdfrwt>
<totfact> 0.16492454E+04</totfact>
</mgrwt>
</event>
<event>
 7    0  0.4748297E-002  0.4577195E+03  0.7546771E-02  0.1025445E+00
         21   -1    0    0  502  501  0.00000000000E+00  0.00000000000E+00  0.19812745242E+03  0.19812745242E+03  0.00000000000E+00 0.  1.
         21   -1    0    0  501  502 -0.00000000000E+00 -0.00000000000E+00 -0.26435906666E+03  0.26435906666E+03  0.00000000000E+00 0.  1.
      99926    2    1    2    0    0  0.00000000000E+00  0.14210854715E-13 -0.66231614247E+02  0.46248651908E+03  0.45771951412E+03 0.  0.
      99925    2    3    3    0    0  0.66036548355E+02  0.93699379463E+02 -0.25314500993E+02  0.28795251756E+03  0.26293616902E+03 0.  0.
         25    1    4    4    0    0  0.30821686127E+02  0.27901240641E+02  0.24369482892E+02  0.13405161454E+03  0.12509000000E+03 0.  0.
         25    1    4    4    0    0  0.35214862227E+02  0.65798138822E+02 -0.49683983885E+02  0.15390090301E+03  0.12509000000E+03 0.  0.
         25    1    3    3    0    0 -0.66036548355E+02 -0.93699379463E+02 -0.40917113254E+02  0.17453400152E+03  0.12509000000E+03 0.  0.
<mgrwt>
<rscale>  2 0.45771951E+03</rscale>
<asrwt>0</asrwt>
<pdfrwt beam="1">  1       21 0.29136390E-01 0.45771951E+03</pdfrwt>
<pdfrwt beam="2">  1       21 0.38876333E-01 0.45771951E+03</pdfrwt>
<totfact> 0.66544810E+04</totfact>
</mgrwt>
</event>
<event>
 6    0  0.4748297E-002  0.4607744E+03  0.7546771E-02  0.1024557E+00
         21   -1    0    0  502  501  0.00000000000E+00  0.00000000000E+00  0.11253771553E+03  0.11253771553E+03  0.00000000000E+00 0.  1.
         21   -1    0    0  501  502 -0.00000000000E+00 -0.00000000000E+00 -0.47164872295E+03  0.47164872295E+03  0.00000000000E+00 0.  1.
      99926    2    1    2    0    0  0.00000000000E+00  0.26645352591E-14 -0.35911100742E+03  0.58418643847E+03  0.46077443423E+03 0.  0.
         25    1    3    3    0    0  0.20375418659E+02  0.27296056431E+02 -0.10169672237E+03  0.16477246075E+03  0.12509000000E+03 0.  0.
         25    1    3    3    0    0 -0.77065810081E+02  0.78958744713E+01 -0.28073532672E+02  0.14979023751E+03  0.12509000000E+03 0.  0.
         25    1    3    3    0    0  0.56690391422E+02 -0.35191930902E+02 -0.22934075239E+03  0.26962374021E+03  0.12509000000E+03 0.  0.
<mgrwt>
<rscale>  2 0.46077443E+03</rscale>
<asrwt>0</asrwt>
<pdfrwt beam="1">  1       21 0.16549664E-01 0.46077443E+03</pdfrwt>
<pdfrwt beam="2">  1       21 0.69360106E-01 0.46077443E+03</pdfrwt>
<totfact> 0.57014889E+04</totfact>
</mgrwt>
</event>
<event>
 7    0  0.4748297E-002  0.4529196E+03  0.7546771E-02  0.1026855E+00
         21   -1    0    0  502  501  0.00000000000E+00  0.00000000000E+00  0.32415840721E+03  0.32415840721E+03  0.00000000000E+00 0.  1.
         21   -1    0    0  501  502 -0.00000000000E+00 -0.00000000000E+00 -0.15820674389E+03  0.15820674389E+03  0.00000000000E+00 0.  1.
      99926    2    1    2    0    0  0.00000000000E+00  0.88817841970E-15  0.16595166332E+03  0.48236515110E+03  0.45291962249E+03 0.  0.
      99925    2    3    3    0    0  0.10525460965E+03 -0.79569636127E+01  0.67263803034E+02  0.29124045884E+03  0.26297288746E+03 0.  0.
         25    1    4    4    0    0  0.39461715203E+02 -0.12695426211E+02  0.71169597423E+02  0.14976989187E+03  0.12509000000E+03 0.  0.
         25    1    4    4    0    0  0.65792894452E+02  0.47384625981E+01 -0.39057943890E+01  0.14147056697E+03  0.12509000000E+03 0.  0.
         25    1    3    3    0    0 -0.10525460965E+03  0.79569636127E+01  0.98687860287E+02  0.19112469226E+03  0.12509000000E+03 0.  0.
<mgrwt>
<rscale>  2 0.45291962E+03</rscale>
<asrwt>0</asrwt>
<pdfrwt beam="1">  1       21 0.47670354E-01 0.45291962E+03</pdfrwt>
<pdfrwt beam="2">  1       21 0.23265698E-01 0.45291962E+03</pdfrwt>
<totfact> 0.67638460E+04</totfact>
</mgrwt>
</event>
<event>
 7    0  0.4748297E-002  0.4535274E+03  0.7546771E-02  0.1026675E+00
         21   -1    0    0  502  501  0.00000000000E+00  0.00000000000E+00  0.39773994315E+03  0.39773994315E+03  0.00000000000E+00 0. -1.
         21   -1    0    0  501  502 -0.00000000000E+00 -0.00000000000E+00 -0.12928491252E+03  0.12928491252E+03  0.00000000000E+00 0. -1.
      99926    2    1    2    0    0 -0.14210854715E-13  0.35527136788E-14  0.26845503063E+03  0.52702485567E+03  0.45352739170E+03 0.  0.
      99925    2    3    3    0    0 -0.77392985806E+02  0.28612471639E+02  0.25677336100E+03  0.37671744637E+03  0.26301164935E+03 0.  0.
         25    1    4    4    0    0  0.68409063960E+00  0.51022662195E+00  0.10607234469E+03  0.16401091037E+03  0.12509000000E+03 0.  0.
         25    1    4    4    0    0 -0.78077076446E+02  0.28102245017E+02  0.15070101631E+03  0.21270653600E+03  0.12509000000E+03 0.  0.
         25    1    3    3    0    0  0.77392985806E+02 -0.28612471639E+02  0.11681669634E+02  0.15030740930E+03  0.12509000000E+03 0.  0.
<mgrwt>
<rscale>  2 0.45352739E+03</rscale>
<asrwt>0</asrwt>
<pdfrwt beam="1">  1       21 0.58491168E-01 0.45352739E+03</pdfrwt>
<pdfrwt beam="2">  1       21 0.19012487E-01 0.45352739E+03</pdfrwt>
<totfact> 0.64153971E+04</totfact>
</mgrwt>
</event>
<event>
 7    0  0.4748297E-002  0.4429547E+03  0.7546771E-02  0.1029844E+00
         21   -1    0    0  502  501  0.00000000000E+00  0.00000000000E+00  0.48685905319E+02  0.48685905319E+02  0.00000000000E+00 0.  1.
         21   -1    0    0  501  502 -0.00000000000E+00 -0.00000000000E+00 -0.10075238910E+04  0.10075238910E+04  0.00000000000E+00 0.  1.
      99926    2    1    2    0    0  0.00000000000E+00  0.00000000000E+00 -0.95883798570E+03  0.10562097963E+04  0.44295468285E+03 0.  0.
      99925    2    3    3    0    0  0.12333152430E+02  0.84072585243E+02 -0.48075779132E+03  0.55478334450E+03  0.26350749361E+03 0.  0.
         25    1    3    3    0    0 -0.12333152430E+02 -0.84072585243E+02 -0.47808019438E+03  0.50142645184E+03  0.12509000000E+03 0.  0.
         25    1    4    4    0    0  0.30103941303E+02  0.99417545542E+01 -0.25247492458E+03  0.28354220393E+03  0.12509000000E+03 0.  0.
         25    1    4    4    0    0 -0.17770788874E+02  0.74130830689E+02 -0.22828286674E+03  0.27124114058E+03  0.12509000000E+03 0.  0.
<mgrwt>
<rscale>  2 0.44295468E+03</rscale>
<asrwt>0</asrwt>
<pdfrwt beam="1">  1       21 0.71596934E-02 0.44295468E+03</pdfrwt>
<pdfrwt beam="2">  1       21 0.14816525E+00 0.44295468E+03</pdfrwt>
<totfact> 0.40748424E+04</totfact>
</mgrwt>
</event>
<event>
 7    0  0.4748297E-002  0.4533034E+03  0.7546771E-02  0.1026741E+00
         21   -1    0    0  502  501  0.00000000000E+00  0.00000000000E+00  0.42044952403E+03  0.42044952403E+03  0.00000000000E+00 0. -1.
         21   -1    0    0  501  502 -0.00000000000E+00 -0.00000000000E+00 -0.12218113421E+03  0.12218113421E+03  0.00000000000E+00 0. -1.
      99926    2    1    2    0    0  0.00000000000E+00  0.00000000000E+00  0.29826838983E+03  0.54263065824E+03  0.45330342916E+03 0.  0.
      99925    2    3    3    0    0  0.33486125830E+02 -0.66909988191E+02  0.28700934316E+03  0.39643715163E+03  0.26303951222E+03 0.  0.
         25    1    3    3    0    0 -0.33486125830E+02  0.66909988191E+02  0.11259046671E+02  0.14619350661E+03  0.12509000000E+03 0.  0.
         25    1    4    4    0    0  0.27920117551E+02 -0.33545956653E+00  0.10489380861E+03  0.16561963858E+03  0.12509000000E+03 0.  0.
         25    1    4    4    0    0  0.55660082786E+01 -0.66574528624E+02  0.18211553454E+03  0.23081751305E+03  0.12509000000E+03 0.  0.
<mgrwt>
<rscale>  2 0.45330343E+03</rscale>
<asrwt>0</asrwt>
<pdfrwt beam="1">  1       21 0.61830812E-01 0.45330343E+03</pdfrwt>
<pdfrwt beam="2">  1       21 0.17967814E-01 0.45330343E+03</pdfrwt>
<totfact> 0.63200364E+04</totfact>
</mgrwt>
</event>
<event>
 7    0  0.4748297E-002  0.4469845E+03  0.7546771E-02  0.1028625E+00
         21   -1    0    0  502  501  0.00000000000E+00  0.00000000000E+00  0.22261235770E+03  0.22261235770E+03  0.00000000000E+00 0. -1.
         21   -1    0    0  501  502 -0.00000000000E+00 -0.00000000000E+00 -0.22437564098E+03  0.22437564098E+03  0.00000000000E+00 0. -1.
      99926    2    1    2    0    0  0.00000000000E+00  0.71054273576E-14 -0.17632832813E+01  0.44698799869E+03  0.44698452076E+03 0.  0.
      99925    2    3    3    0    0  0.83066062851E+02  0.38234577938E+02  0.51654006230E+02  0.28308934504E+03  0.26288702358E+03 0.  0.
         25    1    3    3    0    0 -0.83066062851E+02 -0.38234577938E+02 -0.53417289511E+02  0.16389865364E+03  0.12509000000E+03 0.  0.
         25    1    4    4    0    0  0.83274731540E+01  0.29223575190E+02  0.46937014189E+02  0.13701808478E+03  0.12509000000E+03 0.  0.
         25    1    4    4    0    0  0.74738589697E+02  0.90110027478E+01  0.47169920414E+01  0.14607126026E+03  0.12509000000E+03 0.  0.
<mgrwt>
<rscale>  2 0.44698452E+03</rscale>
<asrwt>0</asrwt>
<pdfrwt beam="1">  1       21 0.32737112E-01 0.44698452E+03</pdfrwt>
<pdfrwt beam="2">  1       21 0.32996417E-01 0.44698452E+03</pdfrwt>
<totfact> 0.73741264E+04</totfact>
</mgrwt>
</event>
<event>
 7    0  0.4748297E-002  0.4592084E+03  0.7546771E-02  0.1025011E+00
         21   -1    0    0  502  501  0.00000000000E+00  0.00000000000E+00  0.12178747436E+03  0.12178747436E+03  0.00000000000E+00 0.  1.
         21   -1    0    0  501  502 -0.00000000000E+00 -0.00000000000E+00 -0.43286961117E+03  0.43286961117E+03  0.00000000000E+00 0.  1.
      99926    2    1    2    0    0  0.00000000000E+00  0.17763568394E-14 -0.31108213681E+03  0.55465708553E+03  0.45920843491E+03 0.  0.
      99925    2    3    3    0    0 -0.10097104306E+03 -0.98775202336E+01 -0.26559156767E+03  0.38729634664E+03  0.26299593601E+03 0.  0.
         25    1    4    4    0    0 -0.77941281189E+02  0.21416203955E+02 -0.16398494412E+03  0.22152215939E+03  0.12509000000E+03 0.  0.
         25    1    4    4    0    0 -0.23029761875E+02 -0.31293724188E+02 -0.10160662356E+03  0.16577418724E+03  0.12509000000E+03 0.  0.
         25    1    3    3    0    0  0.10097104306E+03  0.98775202336E+01 -0.45490569136E+02  0.16736073890E+03  0.12509000000E+03 0.  0.
<mgrwt>
<rscale>  2 0.45920843E+03</rscale>
<asrwt>0</asrwt>
<pdfrwt beam="1">  1       21 0.17909923E-01 0.45920843E+03</pdfrwt>
<pdfrwt beam="2">  1       21 0.63657296E-01 0.45920843E+03</pdfrwt>
<totfact> 0.59552230E+04</totfact>
</mgrwt>
</event>
<event>
 7    0  0.4748297E-002  0.4598550E+03  0.7546771E-02  0.1024823E+00
         21   -1    0    0  502  501  0.00000000000E+00  0.00000000000E+00  0.88432072830E+02  0.88432072830E+02  0.00000000000E+00 0.  1.
         21   -1    0    0  501  502 -0.00000000000E+00 -0.00000000000E+00 -0.59782224007E+03  0.59782224007E+03  0.00000000000E+00 0.  1.
      99926    2    1    2    0    0  0.00000000000E+00 -0.14210854715E-13 -0.50939016724E+03  0.68625431290E+03  0.45985502008E+03 0.  0.
      99925    2    3    3    0    0  0.40320543995E+02 -0.90190681340E+02 -0.22519928315E+03  0.36041375071E+03  0.26348292032E+03 0.  0.
         25    1    4    4    0    0  0.16477339329E+02 -0.85046314472E+02 -0.14265140042E+03  0.20856967291E+03  0.12509000000E+03 0.  0.
         25    1    3    3    0    0 -0.40320543995E+02  0.90190681340E+02 -0.28419088409E+03  0.32584056219E+03  0.12509000000E+03 0.  0.
         25    1    4    4    0    0  0.23843204666E+02 -0.51443668674E+01 -0.82547882729E+02  0.15184407780E+03  0.12509000000E+03 0.  0.
<mgrwt>
<rscale>  2 0.45985502E+03</rscale>
<asrwt>0</asrwt>
<pdfrwt beam="1">  1       21 0.13004717E-01 0.45985502E+03</pdfrwt>
<pdfrwt beam="2">  1       21 0.87915034E-01 0.45985502E+03</pdfrwt>
<totfact> 0.51652537E+04</totfact>
</mgrwt>
</event>
<event>
 7    0  0.4748297E-002  0.4469933E+03  0.7546771E-02  0.1028622E+00
         21   -1    0    0  502  501  0.00000000000E+00  0.00000000000E+00  0.15437858702E+03  0.15437858702E+03  0.00000000000E+00 0.  1.
         21   -1    0    0  501  502 -0.00000000000E+00 -0.00000000000E+00 -0.32356006664E+03  0.32356006664E+03  0.00000000000E+00 0.  1.
      99926    2    1    2    0    0  0.00000000000E+00  0.00000000000E+00 -0.16918147962E+03  0.47793865366E+03  0.44699327022E+03 0.  0.
      99925    2    3    3    0    0  0.19723948673E+02  0.10127262817E+03 -0.13388493207E+03  0.31199127123E+03  0.26223691372E+03 0.  0.
         25    1    4    4    0    0 -0.21883972655E+01  0.39455157012E+02 -0.10451904233E+03  0.16772965393E+03  0.12509000000E+03 0.  0.
         25    1    4    4    0    0  0.21912345939E+02  0.61817471161E+02 -0.29365889747E+02  0.14426161730E+03  0.12509000000E+03 0.  0.
         25    1    3    3    0    0 -0.19723948673E+02 -0.10127262817E+03 -0.35296547545E+02  0.16594738243E+03  0.12509000000E+03 0.  0.
<mgrwt>
<rscale>  2 0.44699327E+03</rscale>
<asrwt>0</asrwt>
<pdfrwt beam="1">  1       21 0.22702734E-01 0.44699327E+03</pdfrwt>
<pdfrwt beam="2">  1       21 0.47582362E-01 0.44699327E+03</pdfrwt>
<totfact> 0.71273826E+04</totfact>
</mgrwt>
</event>
<event>
 7    0  0.4748297E-002  0.4557807E+03  0.7546771E-02  0.1026012E+00
         21   -1    0    0  502  501  0.00000000000E+00  0.00000000000E+00  0.63842349483E+02  0.63842349483E+02  0.00000000000E+00 0.  1.
         21   -1    0    0  501  502 -0.00000000000E+00 -0.00000000000E+00 -0.81347270232E+03  0.81347270232E+03  0.00000000000E+00 0.  1.
      99926    2    1    2    0    0  0.00000000000E+00 -0.17763568394E-14 -0.74963035284E+03  0.87731505181E+03  0.45578068654E+03 0.  0.
      99925    2    3    3    0    0  0.22686974577E+02  0.15389578208E+02 -0.25880231093E+03  0.37005652525E+03  0.26308108599E+03 0.  0.
         25    1    3    3    0    0 -0.22686974577E+02 -0.15389578208E+02 -0.49082804191E+03  0.50725852655E+03  0.12509000000E+03 0.  0.
         25    1    4    4    0    0 -0.25974190114E+02 -0.85364743767E+01 -0.13103277207E+03  0.18320651026E+03  0.12509000000E+03 0.  0.
         25    1    4    4    0    0  0.48661164691E+02  0.23926052585E+02 -0.12776953886E+03  0.18685001499E+03  0.12509000000E+03 0.  0.
<mgrwt>
<rscale>  2 0.45578069E+03</rscale>
<asrwt>0</asrwt>
<pdfrwt beam="1">  1       21 0.93885813E-02 0.45578069E+03</pdfrwt>
<pdfrwt beam="2">  1       21 0.11962833E+00 0.45578069E+03</pdfrwt>
<totfact> 0.43959665E+04</totfact>
</mgrwt>
</event>
<event>
 7    0  0.4748297E-002  0.4396235E+03  0.7546771E-02  0.1030862E+00
         21   -1    0    0  502  501  0.00000000000E+00  0.00000000000E+00  0.13486490698E+03  0.13486490698E+03  0.00000000000E+00 0.  1.
         21   -1    0    0  501  502 -0.00000000000E+00 -0.00000000000E+00 -0.35826375558E+03  0.35826375558E+03  0.00000000000E+00 0.  1.
      99926    2    1    2    0    0  0.00000000000E+00  0.14210854715E-13 -0.22339884860E+03  0.49312866256E+03  0.43962351198E+03 0.  0.
      99925    2    3    3    0    0  0.36363638927E+02 -0.81586750565E+02 -0.95083314579E+02  0.29290105090E+03  0.26224316350E+03 0.  0.
         25    1    3    3    0    0 -0.36363638927E+02  0.81586750565E+02 -0.12831553402E+03  0.20022761167E+03  0.12509000000E+03 0.  0.
         25    1    4    4    0    0  0.24508830739E+02 -0.78163451644E+02 -0.34924161357E+02  0.15354938327E+03  0.12509000000E+03 0.  0.
         25    1    4    4    0    0  0.11854808188E+02 -0.34232989214E+01 -0.60159153223E+02  0.13935166762E+03  0.12509000000E+03 0.  0.
<mgrwt>
<rscale>  2 0.43962351E+03</rscale>
<asrwt>0</asrwt>
<pdfrwt beam="1">  1       21 0.19833075E-01 0.43962351E+03</pdfrwt>
<pdfrwt beam="2">  1       21 0.52685846E-01 0.43962351E+03</pdfrwt>
<totfact> 0.74434678E+04</totfact>
</mgrwt>
</event>
<event>
 7    0  0.4748297E-002  0.4320440E+03  0.7546771E-02  0.1033216E+00
         21   -1    0    0  502  501  0.00000000000E+00  0.00000000000E+00  0.37212641809E+03  0.37212641809E+03  0.00000000000E+00 0.  1.
         21   -1    0    0  501  502 -0.00000000000E+00 -0.00000000000E+00 -0.12540227879E+03  0.12540227879E+03  0.00000000000E+00 0.  1.
      99926    2    1    2    0    0  0.00000000000E+00  0.00000000000E+00  0.24672413930E+03  0.49752869688E+03  0.43204398307E+03 0.  0.
      99925    2    3    3    0    0  0.84608148949E+02  0.62658883784E+01  0.12407513803E+03  0.30288007542E+03  0.26295227701E+03 0.  0.
         25    1    3    3    0    0 -0.84608148949E+02 -0.62658883784E+01  0.12264900127E+03  0.19464862147E+03  0.12509000000E+03 0.  0.
         25    1    4    4    0    0  0.27445470952E+02  0.30553957466E+02  0.88884362776E+02  0.15885444985E+03  0.12509000000E+03 0.  0.
         25    1    4    4    0    0  0.57162677997E+02 -0.24288069088E+02  0.35190775250E+02  0.14402562556E+03  0.12509000000E+03 0.  0.
<mgrwt>
<rscale>  2 0.43204398E+03</rscale>
<asrwt>0</asrwt>
<pdfrwt beam="1">  1       21 0.54724473E-01 0.43204398E+03</pdfrwt>
<pdfrwt beam="2">  1       21 0.18441512E-01 0.43204398E+03</pdfrwt>
<totfact> 0.78859672E+04</totfact>
</mgrwt>
</event>
<event>
 7    0  0.4748297E-002  0.4657120E+03  0.7546771E-02  0.1023137E+00
         21   -1    0    0  502  501  0.00000000000E+00  0.00000000000E+00  0.60742053135E+03  0.60742053135E+03  0.00000000000E+00 0.  1.
         21   -1    0    0  501  502 -0.00000000000E+00 -0.00000000000E+00 -0.89265867497E+02  0.89265867497E+02  0.00000000000E+00 0.  1.
      99926    2    1    2    0    0  0.00000000000E+00  0.14210854715E-13  0.51815466386E+03  0.69668639885E+03  0.46571201688E+03 0.  0.
      99925    2    3    3    0    0  0.44264932285E+02 -0.11479188370E+03  0.32248963145E+03  0.43387682178E+03  0.26289346377E+03 0.  0.
         25    1    4    4    0    0  0.12257555640E+02 -0.24996166824E+02  0.10611207555E+03  0.16638009708E+03  0.12509000000E+03 0.  0.
         25    1    4    4    0    0  0.32007376646E+02 -0.89795716876E+02  0.21637755590E+03  0.26749672470E+03  0.12509000000E+03 0.  0.
         25    1    3    3    0    0 -0.44264932285E+02  0.11479188370E+03  0.19566503241E+03  0.26280957707E+03  0.12509000000E+03 0.  0.
<mgrwt>
<rscale>  2 0.46571202E+03</rscale>
<asrwt>0</asrwt>
<pdfrwt beam="1">  1       21 0.89326546E-01 0.46571202E+03</pdfrwt>
<pdfrwt beam="2">  1       21 0.13127334E-01 0.46571202E+03</pdfrwt>
<totfact> 0.48832838E+04</totfact>
</mgrwt>
</event>
<event>
 7    0  0.4748297E-002  0.4605364E+03  0.7546771E-02  0.1024626E+00
         21   -1    0    0  502  501  0.00000000000E+00  0.00000000000E+00  0.39332276640E+03  0.39332276640E+03  0.00000000000E+00 0. -1.
         21   -1    0    0  501  502 -0.00000000000E+00 -0.00000000000E+00 -0.13480899471E+03  0.13480899471E+03  0.00000000000E+00 0. -1.
      99926    2    1    2    0    0  0.00000000000E+00  0.00000000000E+00  0.25851377169E+03  0.52813176111E+03  0.46053641217E+03 0.  0.
      99925    2    3    3    0    0  0.80616646397E+02 -0.40956327694E+02  0.74580965086E+02  0.28801668474E+03  0.26308710702E+03 0.  0.
         25    1    3    3    0    0 -0.80616646397E+02  0.40956327694E+02  0.18393280660E+03  0.24011507637E+03  0.12509000000E+03 0.  0.
         25    1    4    4    0    0  0.78416076966E+02 -0.38874506258E+02  0.48632527550E+02  0.16022777287E+03  0.12509000000E+03 0.  0.
         25    1    4    4    0    0  0.22005694310E+01 -0.20818214363E+01  0.25948437536E+02  0.12778891187E+03  0.12509000000E+03 0.  0.
<mgrwt>
<rscale>  2 0.46053641E+03</rscale>
<asrwt>0</asrwt>
<pdfrwt beam="1">  1       21 0.57841583E-01 0.46053641E+03</pdfrwt>
<pdfrwt beam="2">  1       21 0.19824852E-01 0.46053641E+03</pdfrwt>
<totfact> 0.60628260E+04</totfact>
</mgrwt>
</event>
<event>
 7    0  0.4748297E-002  0.4508222E+03  0.7546771E-02  0.1027477E+00
         21   -1    0    0  502  501  0.00000000000E+00  0.00000000000E+00  0.16324825039E+03  0.16324825039E+03  0.00000000000E+00 0.  1.
         21   -1    0    0  501  502 -0.00000000000E+00 -0.00000000000E+00 -0.31124480338E+03  0.31124480338E+03  0.00000000000E+00 0.  1.
      99926    2    1    2    0    0 -0.26645352591E-14  0.00000000000E+00 -0.14799655299E+03  0.47449305376E+03  0.45082222480E+03 0.  0.
      99925    2    3    3    0    0  0.61863218781E+01 -0.74305649922E+02 -0.17761707614E+03  0.32588456249E+03  0.26285608637E+03 0.  0.
         25    1    4    4    0    0 -0.31649021594E+02 -0.51329095396E+02 -0.10878365762E+03  0.17640217932E+03  0.12509000000E+03 0.  0.
         25    1    4    4    0    0  0.37835343472E+02 -0.22976554526E+02 -0.68833418514E+02  0.14948238317E+03  0.12509000000E+03 0.  0.
         25    1    3    3    0    0 -0.61863218781E+01  0.74305649922E+02  0.29620523144E+02  0.14860849128E+03  0.12509000000E+03 0.  0.
<mgrwt>
<rscale>  2 0.45082222E+03</rscale>
<asrwt>0</asrwt>
<pdfrwt beam="1">  1       21 0.24007096E-01 0.45082222E+03</pdfrwt>
<pdfrwt beam="2">  1       21 0.45771293E-01 0.45082222E+03</pdfrwt>
<totfact> 0.69375092E+04</totfact>
</mgrwt>
</event>
<event>
 7    0  0.4748297E-002  0.4530084E+03  0.7546771E-02  0.1026829E+00
         21   -1    0    0  502  501  0.00000000000E+00  0.00000000000E+00  0.72216687928E+02  0.72216687928E+02  0.00000000000E+00 0. -1.
         21   -1    0    0  501  502 -0.00000000000E+00 -0.00000000000E+00 -0.71041960044E+03  0.71041960044E+03  0.00000000000E+00 0. -1.
      99926    2    1    2    0    0  0.00000000000E+00  0.00000000000E+00 -0.63820291251E+03  0.78263628837E+03  0.45300839102E+03 0.  0.
      99925    2    3    3    0    0  0.37063796129E+01 -0.10604240711E+03 -0.34424235036E+03  0.44600733900E+03  0.26298483093E+03 0.  0.
         25    1    4    4    0    0  0.54812064108E+01 -0.95792109618E+02 -0.17966230570E+03  0.23902348018E+03  0.12509000000E+03 0.  0.
         25    1    4    4    0    0 -0.17748267979E+01 -0.10250297491E+02 -0.16458004466E+03  0.20698385881E+03  0.12509000000E+03 0.  0.
         25    1    3    3    0    0 -0.37063796129E+01  0.10604240711E+03 -0.29396056215E+03  0.33662894937E+03  0.12509000000E+03 0.  0.
<mgrwt>
<rscale>  2 0.45300839E+03</rscale>
<asrwt>0</asrwt>
<pdfrwt beam="1">  1       21 0.10620101E-01 0.45300839E+03</pdfrwt>
<pdfrwt beam="2">  1       21 0.10447347E+00 0.45300839E+03</pdfrwt>
<totfact> 0.49383636E+04</totfact>
</mgrwt>
</event>
<event>
 7    0  0.4748297E-002  0.4576491E+03  0.7546771E-02  0.1025465E+00
         21   -1    0    0  502  501  0.00000000000E+00  0.00000000000E+00  0.46297714741E+03  0.46297714741E+03  0.00000000000E+00 0. -1.
         21   -1    0    0  501  502 -0.00000000000E+00 -0.00000000000E+00 -0.11309561587E+03  0.11309561587E+03  0.00000000000E+00 0. -1.
      99926    2    1    2    0    0  0.00000000000E+00  0.35527136788E-14  0.34988153154E+03  0.57607276328E+03  0.45764914780E+03 0.  0.
      99925    2    3    3    0    0  0.11079498971E+03 -0.11771851658E+02  0.25771804697E+03  0.38487725542E+03  0.26324476020E+03 0.  0.
         25    1    4    4    0    0  0.79039158104E+02 -0.39386578490E+02  0.12444498893E+03  0.19731334078E+03  0.12509000000E+03 0.  0.
         25    1    3    3    0    0 -0.11079498971E+03  0.11771851658E+02  0.92163484578E+02  0.19119550786E+03  0.12509000000E+03 0.  0.
         25    1    4    4    0    0  0.31755831604E+02  0.27614726832E+02  0.13327305804E+03  0.18756391465E+03  0.12509000000E+03 0.  0.
<mgrwt>
<rscale>  2 0.45764915E+03</rscale>
<asrwt>0</asrwt>
<pdfrwt beam="1">  1       21 0.68084874E-01 0.45764915E+03</pdfrwt>
<pdfrwt beam="2">  1       21 0.16631708E-01 0.45764915E+03</pdfrwt>
<totfact> 0.58931661E+04</totfact>
</mgrwt>
</event>
<event>
 7    0  0.4748297E-002  0.4456156E+03  0.7546771E-02  0.1029038E+00
         21   -1    0    0  502  501  0.00000000000E+00  0.00000000000E+00  0.16060859536E+03  0.16060859536E+03  0.00000000000E+00 0.  1.
         21   -1    0    0  501  502 -0.00000000000E+00 -0.00000000000E+00 -0.30909498290E+03  0.30909498290E+03  0.00000000000E+00 0.  1.
      99926    2    1    2    0    0  0.00000000000E+00  0.00000000000E+00 -0.14848638754E+03  0.46970357826E+03  0.44561557888E+03 0.  0.
      99925    2    3    3    0    0  0.88127888572E+02 -0.55364092036E+02 -0.97098096984E+02  0.29905782842E+03  0.26301299753E+03 0.  0.
         25    1    3    3    0    0 -0.88127888572E+02  0.55364092036E+02 -0.51388290554E+02  0.17064574984E+03  0.12509000000E+03 0.  0.
         25    1    4    4    0    0  0.34176396043E+02 -0.16266243074E+02 -0.65115141559E+01  0.13085306503E+03  0.12509000000E+03 0.  0.
         25    1    4    4    0    0  0.53951492529E+02 -0.39097848962E+02 -0.90586582828E+02  0.16820476339E+03  0.12509000000E+03 0.  0.
<mgrwt>
<rscale>  2 0.44561558E+03</rscale>
<asrwt>0</asrwt>
<pdfrwt beam="1">  1       21 0.23618911E-01 0.44561558E+03</pdfrwt>
<pdfrwt beam="2">  1       21 0.45455144E-01 0.44561558E+03</pdfrwt>
<totfact> 0.72724599E+04</totfact>
</mgrwt>
</event>
<event>
 7    0  0.4748297E-002  0.4829682E+03  0.7546771E-02  0.1018323E+00
         21   -1    0    0  502  501  0.00000000000E+00  0.00000000000E+00  0.32878331089E+03  0.32878331089E+03  0.00000000000E+00 0. -1.
         21   -1    0    0  501  502 -0.00000000000E+00 -0.00000000000E+00 -0.17736471793E+03  0.17736471793E+03  0.00000000000E+00 0. -1.
      99926    2    1    2    0    0  0.00000000000E+00  0.00000000000E+00  0.15141859296E+03  0.50614802882E+03  0.48296815297E+03 0.  0.
      99925    2    3    3    0    0  0.10389472894E+03 -0.38700418673E+02  0.17868943402E+03  0.33678733687E+03  0.26306645422E+03 0.  0.
         25    1    4    4    0    0  0.83486634134E+02 -0.48355125202E+02  0.10773589608E+03  0.19121393154E+03  0.12509000000E+03 0.  0.
         25    1    3    3    0    0 -0.10389472894E+03  0.38700418673E+02 -0.27270841056E+02  0.16936069195E+03  0.12509000000E+03 0.  0.
         25    1    4    4    0    0  0.20408094808E+02  0.96547065289E+01  0.70953537938E+02  0.14557340532E+03  0.12509000000E+03 0.  0.
<mgrwt>
<rscale>  2 0.48296815E+03</rscale>
<asrwt>0</asrwt>
<pdfrwt beam="1">  1       21 0.48350487E-01 0.48296815E+03</pdfrwt>
<pdfrwt beam="2">  1       21 0.26083047E-01 0.48296815E+03</pdfrwt>
<totfact> 0.52242533E+04</totfact>
</mgrwt>
</event>
<event>
 7    0  0.4748297E-002  0.4505539E+03  0.7546771E-02  0.1027557E+00
         21   -1    0    0  502  501  0.00000000000E+00  0.00000000000E+00  0.18790565851E+04  0.18790565851E+04  0.00000000000E+00 0. -1.
         21   -1    0    0  501  502 -0.00000000000E+00 -0.00000000000E+00 -0.27008073244E+02  0.27008073244E+02  0.00000000000E+00 0. -1.
      99926    2    1    2    0    0  0.00000000000E+00  0.00000000000E+00  0.18520485119E+04  0.19060646584E+04  0.45055387194E+03 0.  0.
      99925    2    3    3    0    0  0.25559862700E+02 -0.51470976946E+02  0.15614666525E+04  0.15845247804E+04  0.26313134484E+03 0.  0.
         25    1    4    4    0    0 -0.82610762028E+01  0.55391599852E+01  0.63180137379E+03  0.64414238464E+03  0.12509000000E+03 0.  0.
         25    1    3    3    0    0 -0.25559862700E+02  0.51470976946E+02  0.29058185933E+03  0.32153987796E+03  0.12509000000E+03 0.  0.
         25    1    4    4    0    0  0.33820938902E+02 -0.57010136931E+02  0.92966527876E+03  0.94038239576E+03  0.12509000000E+03 0.  0.
<mgrwt>
<rscale>  2 0.45055387E+03</rscale>
<asrwt>0</asrwt>
<pdfrwt beam="1">  1       21 0.27633176E+00 0.45055387E+03</pdfrwt>
<pdfrwt beam="2">  1       21 0.39717768E-02 0.45055387E+03</pdfrwt>
<totfact> 0.15844309E+04</totfact>
</mgrwt>
</event>
<event>
 7    0  0.4748297E-002  0.4589911E+03  0.7546771E-02  0.1025074E+00
         21   -1    0    0  502  501  0.00000000000E+00  0.00000000000E+00  0.40421314345E+03  0.40421314345E+03  0.00000000000E+00 0. -1.
         21   -1    0    0  501  502 -0.00000000000E+00 -0.00000000000E+00 -0.13029808945E+03  0.13029808945E+03  0.00000000000E+00 0. -1.
      99926    2    1    2    0    0  0.00000000000E+00  0.00000000000E+00  0.27391505400E+03  0.53451123290E+03  0.45899106885E+03 0.  0.
      99925    2    3    3    0    0 -0.10750696709E+03 -0.45779777077E+02  0.16377056879E+03  0.33096062080E+03  0.26279383052E+03 0.  0.
         25    1    4    4    0    0 -0.94615592454E+02 -0.15298292179E+02  0.10069950546E+03  0.18701349304E+03  0.12509000000E+03 0.  0.
         25    1    3    3    0    0  0.10750696709E+03  0.45779777077E+02  0.11014448522E+03  0.20355061210E+03  0.12509000000E+03 0.  0.
         25    1    4    4    0    0 -0.12891374631E+02 -0.30481484898E+02  0.63071063329E+02  0.14394712776E+03  0.12509000000E+03 0.  0.
<mgrwt>
<rscale>  2 0.45899107E+03</rscale>
<asrwt>0</asrwt>
<pdfrwt beam="1">  1       21 0.59443109E-01 0.45899107E+03</pdfrwt>
<pdfrwt beam="2">  1       21 0.19161484E-01 0.45899107E+03</pdfrwt>
<totfact> 0.60951241E+04</totfact>
</mgrwt>
</event>
<event>
 7    0  0.4748297E-002  0.4540599E+03  0.7546771E-02  0.1026518E+00
         21   -1    0    0  502  501  0.00000000000E+00  0.00000000000E+00  0.32107445967E+03  0.32107445967E+03  0.00000000000E+00 0.  1.
         21   -1    0    0  501  502 -0.00000000000E+00 -0.00000000000E+00 -0.16053162045E+03  0.16053162045E+03  0.00000000000E+00 0.  1.
      99926    2    1    2    0    0  0.71054273576E-14  0.00000000000E+00  0.16054283923E+03  0.48160608012E+03  0.45405992246E+03 0.  0.
      99925    2    3    3    0    0 -0.47179673879E+02  0.44745462624E+02  0.39013113708E+01  0.27086416592E+03  0.26291462130E+03 0.  0.
         25    1    4    4    0    0 -0.47063163217E+02  0.50277693953E+02  0.21559010695E+02  0.14441290414E+03  0.12509000000E+03 0.  0.
         25    1    4    4    0    0 -0.11651066197E+00 -0.55322313287E+01 -0.17657699324E+02  0.12645126177E+03  0.12509000000E+03 0.  0.
         25    1    3    3    0    0  0.47179673879E+02 -0.44745462624E+02  0.15664152786E+03  0.21074191420E+03  0.12509000000E+03 0.  0.
<mgrwt>
<rscale>  2 0.45405992E+03</rscale>
<asrwt>0</asrwt>
<pdfrwt beam="1">  1       21 0.47216832E-01 0.45405992E+03</pdfrwt>
<pdfrwt beam="2">  1       21 0.23607591E-01 0.45405992E+03</pdfrwt>
<totfact> 0.67082567E+04</totfact>
</mgrwt>
</event>
<event>
 7    0  0.4748297E-002  0.4227472E+03  0.7546771E-02  0.1036176E+00
         21   -1    0    0  502  501  0.00000000000E+00  0.00000000000E+00  0.53988608738E+03  0.53988608738E+03  0.00000000000E+00 0. -1.
         21   -1    0    0  501  502 -0.00000000000E+00 -0.00000000000E+00 -0.82755980798E+02  0.82755980798E+02  0.00000000000E+00 0. -1.
      99926    2    1    2    0    0  0.00000000000E+00  0.00000000000E+00  0.45713010658E+03  0.62264206817E+03  0.42274721847E+03 0.  0.
      99925    2    3    3    0    0  0.65462395142E+02 -0.43854373664E+02  0.30804298942E+03  0.41268252952E+03  0.26307385955E+03 0.  0.
         25    1    4    4    0    0  0.33728639592E+02 -0.58409687352E+02  0.18930614036E+03  0.23671424880E+03  0.12509000000E+03 0.  0.
         25    1    4    4    0    0  0.31733755550E+02  0.14555313688E+02  0.11873684906E+03  0.17596828073E+03  0.12509000000E+03 0.  0.
         25    1    3    3    0    0 -0.65462395142E+02  0.43854373664E+02  0.14908711716E+03  0.20995953865E+03  0.12509000000E+03 0.  0.
<mgrwt>
<rscale>  2 0.42274722E+03</rscale>
<asrwt>0</asrwt>
<pdfrwt beam="1">  1       21 0.79395011E-01 0.42274722E+03</pdfrwt>
<pdfrwt beam="2">  1       21 0.12169997E-01 0.42274722E+03</pdfrwt>
<totfact> 0.74544664E+04</totfact>
</mgrwt>
</event>
<event>
 7    0  0.4748297E-002  0.4575738E+03  0.7546771E-02  0.1025487E+00
         21   -1    0    0  502  501  0.00000000000E+00  0.00000000000E+00  0.24369758270E+02  0.24369758270E+02  0.00000000000E+00 0.  1.
         21   -1    0    0  501  502 -0.00000000000E+00 -0.00000000000E+00 -0.21478857050E+04  0.21478857050E+04  0.00000000000E+00 0.  1.
      99926    2    1    2    0    0 -0.71054273576E-14 -0.35527136788E-14 -0.21235159468E+04  0.21722554633E+04  0.45757384289E+03 0.  0.
      99925    2    3    3    0    0 -0.38916511833E+02 -0.27648109197E+02 -0.18328613329E+04  0.18522452674E+04  0.26296948883E+03 0.  0.
         25    1    4    4    0    0 -0.44297243529E+02 -0.42524647686E+02 -0.10697168484E+04  0.10787549468E+04  0.12509000000E+03 0.  0.
         25    1    4    4    0    0  0.53807316953E+01  0.14876538489E+02 -0.76314448453E+03  0.77349032058E+03  0.12509000000E+03 0.  0.
         25    1    3    3    0    0  0.38916511833E+02  0.27648109197E+02 -0.29065461386E+03  0.32001019592E+03  0.12509000000E+03 0.  0.
<mgrwt>
<rscale>  2 0.45757384E+03</rscale>
<asrwt>0</asrwt>
<pdfrwt beam="1">  1       21 0.35837877E-02 0.45757384E+03</pdfrwt>
<pdfrwt beam="2">  1       21 0.31586557E+00 0.45757384E+03</pdfrwt>
<totfact> 0.10876818E+04</totfact>
</mgrwt>
</event>
<event>
 7    0  0.4748297E-002  0.4549011E+03  0.7546771E-02  0.1026271E+00
         21   -1    0    0  502  501  0.00000000000E+00  0.00000000000E+00  0.50114333108E+02  0.50114333108E+02  0.00000000000E+00 0. -1.
         21   -1    0    0  501  502 -0.00000000000E+00 -0.00000000000E+00 -0.10323142753E+04  0.10323142753E+04  0.00000000000E+00 0. -1.
      99926    2    1    2    0    0 -0.71054273576E-14  0.14210854715E-13 -0.98219994222E+03  0.10824286084E+04  0.45490105063E+03 0.  0.
      99925    2    3    3    0    0 -0.61007423198E+02  0.94677572468E+02 -0.63871973039E+03  0.69992120663E+03  0.26313694742E+03 0.  0.
         25    1    4    4    0    0 -0.47916987020E+02  0.10097991752E+02 -0.28343681485E+03  0.31365896001E+03  0.12509000000E+03 0.  0.
         25    1    4    4    0    0 -0.13090436177E+02  0.84579580716E+02 -0.35528291554E+03  0.38626224663E+03  0.12509000000E+03 0.  0.
         25    1    3    3    0    0  0.61007423198E+02 -0.94677572468E+02 -0.34348021183E+03  0.38250740180E+03  0.12509000000E+03 0.  0.
<mgrwt>
<rscale>  2 0.45490105E+03</rscale>
<asrwt>0</asrwt>
<pdfrwt beam="1">  1       21 0.73697545E-02 0.45490105E+03</pdfrwt>
<pdfrwt beam="2">  1       21 0.15181093E+00 0.45490105E+03</pdfrwt>
<totfact> 0.36137395E+04</totfact>
</mgrwt>
</event>
<event>
 7    0  0.4748297E-002  0.4507390E+03  0.7546771E-02  0.1027502E+00
         21   -1    0    0  502  501  0.00000000000E+00  0.00000000000E+00  0.20126502689E+03  0.20126502689E+03  0.00000000000E+00 0.  1.
         21   -1    0    0  501  502 -0.00000000000E+00 -0.00000000000E+00 -0.25236080496E+03  0.25236080496E+03  0.00000000000E+00 0.  1.
      99926    2    1    2    0    0  0.00000000000E+00  0.00000000000E+00 -0.51095778071E+02  0.45362583185E+03  0.45073896745E+03 0.  0.
      99925    2    3    3    0    0  0.37497262470E+02  0.79473983640E+02  0.32862337232E+02  0.27921645138E+03  0.26298238486E+03 0.  0.
         25    1    4    4    0    0 -0.80097584359E+01  0.48015513222E+02  0.45804769340E+02  0.14182817327E+03  0.12509000000E+03 0.  0.
         25    1    4    4    0    0  0.45507020905E+02  0.31458470419E+02 -0.12942432108E+02  0.13738827811E+03  0.12509000000E+03 0.  0.
         25    1    3    3    0    0 -0.37497262470E+02 -0.79473983640E+02 -0.83958115303E+02  0.17440938046E+03  0.12509000000E+03 0.  0.
<mgrwt>
<rscale>  2 0.45073897E+03</rscale>
<asrwt>0</asrwt>
<pdfrwt beam="1">  1       21 0.29597798E-01 0.45073897E+03</pdfrwt>
<pdfrwt beam="2">  1       21 0.37111883E-01 0.45073897E+03</pdfrwt>
<totfact> 0.71030757E+04</totfact>
</mgrwt>
</event>
<event>
 7    0  0.4748297E-002  0.4393046E+03  0.7546771E-02  0.1030960E+00
         21   -1    0    0  502  501  0.00000000000E+00  0.00000000000E+00  0.29146298058E+02  0.29146298058E+02  0.00000000000E+00 0.  1.
         21   -1    0    0  501  502 -0.00000000000E+00 -0.00000000000E+00 -0.16553437376E+04  0.16553437376E+04  0.00000000000E+00 0.  1.
      99926    2    1    2    0    0  0.00000000000E+00  0.00000000000E+00 -0.16261974395E+04  0.16844900356E+04  0.43930464128E+03 0.  0.
      99925    2    3    3    0    0 -0.87505143458E+02  0.93702660719E+01 -0.87622926722E+03  0.91908509733E+03  0.26304892204E+03 0.  0.
         25    1    3    3    0    0  0.87505143458E+02 -0.93702660719E+01 -0.74996817227E+03  0.76540493828E+03  0.12509000000E+03 0.  0.
         25    1    4    4    0    0 -0.65741465346E+02  0.30122200141E+02 -0.54263692602E+03  0.56154396871E+03  0.12509000000E+03 0.  0.
         25    1    4    4    0    0 -0.21763678111E+02 -0.20751934069E+02 -0.33359234120E+03  0.35754112862E+03  0.12509000000E+03 0.  0.
<mgrwt>
<rscale>  2 0.43930464E+03</rscale>
<asrwt>0</asrwt>
<pdfrwt beam="1">  1       21 0.42862197E-02 0.43930464E+03</pdfrwt>
<pdfrwt beam="2">  1       21 0.24343294E+00 0.43930464E+03</pdfrwt>
<totfact> 0.22167046E+04</totfact>
</mgrwt>
</event>
<event>
 7    0  0.4748297E-002  0.4531570E+03  0.7546771E-02  0.1026785E+00
         21   -1    0    0  502  501  0.00000000000E+00  0.00000000000E+00  0.10354792392E+03  0.10354792392E+03  0.00000000000E+00 0. -1.
         21   -1    0    0  501  502 -0.00000000000E+00 -0.00000000000E+00 -0.49578806993E+03  0.49578806993E+03  0.00000000000E+00 0. -1.
      99926    2    1    2    0    0  0.00000000000E+00  0.00000000000E+00 -0.39224014601E+03  0.59933599385E+03  0.45315703832E+03 0.  0.
      99925    2    3    3    0    0 -0.78046700869E+02 -0.67960333711E+02 -0.19259425430E+03  0.34201152037E+03  0.26300083422E+03 0.  0.
         25    1    4    4    0    0 -0.57413388576E+02  0.23520527003E+01 -0.93688715180E+02  0.16651400179E+03  0.12509000000E+03 0.  0.
         25    1    3    3    0    0  0.78046700869E+02  0.67960333711E+02 -0.19964589171E+03  0.25732447348E+03  0.12509000000E+03 0.  0.
         25    1    4    4    0    0 -0.20633312293E+02 -0.70312386411E+02 -0.98905539122E+02  0.17549751858E+03  0.12509000000E+03 0.  0.
<mgrwt>
<rscale>  2 0.45315704E+03</rscale>
<asrwt>0</asrwt>
<pdfrwt beam="1">  1       21 0.15227636E-01 0.45315704E+03</pdfrwt>
<pdfrwt beam="2">  1       21 0.72910010E-01 0.45315704E+03</pdfrwt>
<totfact> 0.59582055E+04</totfact>
</mgrwt>
</event>
<event>
 7    0  0.4748297E-002  0.4619063E+03  0.7546771E-02  0.1024230E+00
         21   -1    0    0  502  501  0.00000000000E+00  0.00000000000E+00  0.78559354869E+03  0.78559354869E+03  0.00000000000E+00 0.  1.
         21   -1    0    0  501  502 -0.00000000000E+00 -0.00000000000E+00 -0.67896882418E+02  0.67896882418E+02  0.00000000000E+00 0.  1.
      99926    2    1    2    0    0  0.00000000000E+00  0.00000000000E+00  0.71769666627E+03  0.85349043111E+03  0.46190627969E+03 0.  0.
      99925    2    3    3    0    0 -0.53663580468E+02 -0.87430772587E+02  0.56225778811E+03  0.62914098758E+03  0.26298410999E+03 0.  0.
         25    1    4    4    0    0 -0.50317667479E+01 -0.58839256625E+02  0.35049912146E+03  0.37680833197E+03  0.12509000000E+03 0.  0.
         25    1    4    4    0    0 -0.48631813720E+02 -0.28591515962E+02  0.21175866665E+03  0.25233265562E+03  0.12509000000E+03 0.  0.
         25    1    3    3    0    0  0.53663580468E+02  0.87430772587E+02  0.15543887817E+03  0.22434944353E+03  0.12509000000E+03 0.  0.
<mgrwt>
<rscale>  2 0.46190628E+03</rscale>
<asrwt>0</asrwt>
<pdfrwt beam="1">  1       21 0.11552846E+00 0.46190628E+03</pdfrwt>
<pdfrwt beam="2">  1       21 0.99848361E-02 0.46190628E+03</pdfrwt>
<totfact> 0.42911233E+04</totfact>
</mgrwt>
</event>
<event>
 7    0  0.4748297E-002  0.4582158E+03  0.7546771E-02  0.1025300E+00
         21   -1    0    0  502  501  0.00000000000E+00  0.00000000000E+00  0.11180629564E+04  0.11180629564E+04  0.00000000000E+00 0.  1.
         21   -1    0    0  501  502 -0.00000000000E+00 -0.00000000000E+00 -0.46947648053E+02  0.46947648053E+02  0.00000000000E+00 0.  1.
      99926    2    1    2    0    0  0.14210854715E-13  0.71054273576E-14  0.10711153083E+04  0.11650106045E+04  0.45821578401E+03 0.  0.
      99925    2    3    3    0    0  0.10053771160E+03  0.55549742629E+02  0.71574315682E+03  0.77114453643E+03  0.26302475961E+03 0.  0.
         25    1    4    4    0    0  0.53549573119E+02  0.50622426677E+02  0.28079914973E+03  0.31611051462E+03  0.12509000000E+03 0.  0.
         25    1    3    3    0    0 -0.10053771160E+03 -0.55549742629E+02  0.35537215152E+03  0.39386606802E+03  0.12509000000E+03 0.  0.
         25    1    4    4    0    0  0.46988138480E+02  0.49273159514E+01  0.43494400709E+03  0.45503402181E+03  0.12509000000E+03 0.  0.
<mgrwt>
<rscale>  2 0.45821578E+03</rscale>
<asrwt>0</asrwt>
<pdfrwt beam="1">  1       21 0.16442101E+00 0.45821578E+03</pdfrwt>
<pdfrwt beam="2">  1       21 0.69040666E-02 0.45821578E+03</pdfrwt>
<totfact> 0.32463953E+04</totfact>
</mgrwt>
</event>
<event>
 7    0  0.4748297E-002  0.4553092E+03  0.7546771E-02  0.1026151E+00
         21   -1    0    0  502  501  0.00000000000E+00  0.00000000000E+00  0.17799446233E+03  0.17799446233E+03  0.00000000000E+00 0. -1.
         21   -1    0    0  501  502 -0.00000000000E+00 -0.00000000000E+00 -0.29116984756E+03  0.29116984756E+03  0.00000000000E+00 0. -1.
      99926    2    1    2    0    0  0.00000000000E+00  0.00000000000E+00 -0.11317538522E+03  0.46916430989E+03  0.45530921565E+03 0.  0.
      99925    2    3    3    0    0  0.49080765329E+02  0.72694510036E+02  0.30399554265E+01  0.27720877645E+03  0.26294876136E+03 0.  0.
         25    1    4    4    0    0 -0.43721235984E+01  0.13159895024E+02 -0.18349049516E+02  0.12718684688E+03  0.12509000000E+03 0.  0.
         25    1    4    4    0    0  0.53452888927E+02  0.59534615013E+02  0.21389004942E+02  0.15002192957E+03  0.12509000000E+03 0.  0.
         25    1    3    3    0    0 -0.49080765329E+02 -0.72694510036E+02 -0.11621534065E+03  0.19195553344E+03  0.12509000000E+03 0.  0.
<mgrwt>
<rscale>  2 0.45530922E+03</rscale>
<asrwt>0</asrwt>
<pdfrwt beam="1">  1       21 0.26175656E-01 0.45530922E+03</pdfrwt>
<pdfrwt beam="2">  1       21 0.42819095E-01 0.45530922E+03</pdfrwt>
<totfact> 0.67332652E+04</totfact>
</mgrwt>
</event>
<event>
 7    0  0.4748297E-002  0.4566422E+03  0.7546771E-02  0.1025760E+00
         21   -1    0    0  502  501  0.00000000000E+00  0.00000000000E+00  0.59522018934E+03  0.59522018934E+03  0.00000000000E+00 0.  1.
         21   -1    0    0  501  502 -0.00000000000E+00 -0.00000000000E+00 -0.87581930141E+02  0.87581930141E+02  0.00000000000E+00 0.  1.
      99926    2    1    2    0    0 -0.35527136788E-14  0.00000000000E+00  0.50763825920E+03  0.68280211948E+03  0.45664223651E+03 0.  0.
      99925    2    3    3    0    0  0.31968021148E+02  0.79691278998E+02  0.43268434478E+03  0.51357371846E+03  0.26300107937E+03 0.  0.
         25    1    4    4    0    0 -0.10679594233E+02  0.70197780372E+02  0.23761347506E+03  0.27775790490E+03  0.12509000000E+03 0.  0.
         25    1    4    4    0    0  0.42647615381E+02  0.94934986260E+01  0.19507086972E+03  0.23581581357E+03  0.12509000000E+03 0.  0.
         25    1    3    3    0    0 -0.31968021148E+02 -0.79691278998E+02  0.74953914416E+02  0.16922840102E+03  0.12509000000E+03 0.  0.
<mgrwt>
<rscale>  2 0.45664224E+03</rscale>
<asrwt>0</asrwt>
<pdfrwt beam="1">  1       21 0.87532378E-01 0.45664224E+03</pdfrwt>
<pdfrwt beam="2">  1       21 0.12879696E-01 0.45664224E+03</pdfrwt>
<totfact> 0.53156311E+04</totfact>
</mgrwt>
</event>
<event>
 7    0  0.4748297E-002  0.4446129E+03  0.7546771E-02  0.1029341E+00
         21   -1    0    0  502  501  0.00000000000E+00  0.00000000000E+00  0.34792314223E+02  0.34792314223E+02  0.00000000000E+00 0.  1.
         21   -1    0    0  501  502 -0.00000000000E+00 -0.00000000000E+00 -0.14204334514E+04  0.14204334514E+04  0.00000000000E+00 0.  1.
      99926    2    1    2    0    0  0.14210854715E-13  0.71054273576E-14 -0.13856411371E+04  0.14552257656E+04  0.44461294166E+03 0.  0.
      99925    2    3    3    0    0 -0.65950136206E+02 -0.36167450062E+02 -0.11110345870E+04  0.11442373890E+04  0.26310424531E+03 0.  0.
         25    1    3    3    0    0  0.65950136206E+02  0.36167450062E+02 -0.27460655014E+03  0.31098837661E+03  0.12509000000E+03 0.  0.
         25    1    4    4    0    0  0.44671128896E+01 -0.10975878552E+02 -0.58812502482E+03  0.60139752072E+03  0.12509000000E+03 0.  0.
         25    1    4    4    0    0 -0.70417249095E+02 -0.25191571510E+02 -0.52290956217E+03  0.54283986825E+03  0.12509000000E+03 0.  0.
<mgrwt>
<rscale>  2 0.44461294E+03</rscale>
<asrwt>0</asrwt>
<pdfrwt beam="1">  1       21 0.51165177E-02 0.44461294E+03</pdfrwt>
<pdfrwt beam="2">  1       21 0.20888724E+00 0.44461294E+03</pdfrwt>
<totfact> 0.27011761E+04</totfact>
</mgrwt>
</event>
<event>
 7    0  0.4748297E-002  0.5032284E+03  0.7546771E-02  0.1012940E+00
         21   -1    0    0  502  501  0.00000000000E+00  0.00000000000E+00  0.91851042916E+03  0.91851042916E+03  0.00000000000E+00 0.  1.
         21   -1    0    0  501  502 -0.00000000000E+00 -0.00000000000E+00 -0.68926495173E+02  0.68926495173E+02  0.00000000000E+00 0.  1.
      99926    2    1    2    0    0  0.17763568394E-14 -0.28421709430E-13  0.84958393399E+03  0.98743692434E+03  0.50322839611E+03 0.  0.
      99925    2    3    3    0    0 -0.10644894031E+02  0.13868874949E+03  0.38402766070E+03  0.48570189994E+03  0.26283304287E+03 0.  0.
         25    1    4    4    0    0 -0.12144899403E+02  0.93995533817E+02  0.26150559638E+03  0.30498417007E+03  0.12509000000E+03 0.  0.
         25    1    4    4    0    0  0.15000053718E+01  0.44693215670E+02  0.12252206432E+03  0.18071772987E+03  0.12509000000E+03 0.  0.
         25    1    3    3    0    0  0.10644894031E+02 -0.13868874949E+03  0.46555627329E+03  0.50173502440E+03  0.12509000000E+03 0.  0.
<mgrwt>
<rscale>  2 0.50322840E+03</rscale>
<asrwt>0</asrwt>
<pdfrwt beam="1">  1       21 0.13507506E+00 0.50322840E+03</pdfrwt>
<pdfrwt beam="2">  1       21 0.10136250E-01 0.50322840E+03</pdfrwt>
<totfact> 0.27659812E+04</totfact>
</mgrwt>
</event>
<event>
 7    0  0.4748297E-002  0.4595117E+03  0.7546771E-02  0.1024923E+00
         21   -1    0    0  502  501  0.00000000000E+00  0.00000000000E+00  0.13168203756E+04  0.13168203756E+04  0.00000000000E+00 0. -1.
         21   -1    0    0  501  502 -0.00000000000E+00 -0.00000000000E+00 -0.40087288332E+02  0.40087288332E+02  0.00000000000E+00 0. -1.
      99926    2    1    2    0    0  0.35527136788E-14  0.00000000000E+00  0.12767330873E+04  0.13569076640E+04  0.45951173251E+03 0.  0.
      99925    2    3    3    0    0 -0.97097879335E+01  0.32410666938E+02  0.11320849349E+04  0.11627033195E+04  0.26290298225E+03 0.  0.
         25    1    4    4    0    0  0.17995552689E+02  0.46665225626E+02  0.63889574059E+03  0.65294468268E+03  0.12509000000E+03 0.  0.
         25    1    3    3    0    0  0.97097879335E+01 -0.32410666938E+02  0.14464815244E+03  0.19420434449E+03  0.12509000000E+03 0.  0.
         25    1    4    4    0    0 -0.27705340622E+02 -0.14254558688E+02  0.49318919429E+03  0.50975863681E+03  0.12509000000E+03 0.  0.
<mgrwt>
<rscale>  2 0.45951173E+03</rscale>
<asrwt>0</asrwt>
<pdfrwt beam="1">  1       21 0.19365003E+00 0.45951173E+03</pdfrwt>
<pdfrwt beam="2">  1       21 0.58951903E-02 0.45951173E+03</pdfrwt>
<totfact> 0.26559600E+04</totfact>
</mgrwt>
</event>
<event>
 7    0  0.4748297E-002  0.4320310E+03  0.7546771E-02  0.1033220E+00
         21   -1    0    0  502  501  0.00000000000E+00  0.00000000000E+00  0.65880957590E+03  0.65880957590E+03  0.00000000000E+00 0. -1.
         21   -1    0    0  501  502 -0.00000000000E+00 -0.00000000000E+00 -0.70828796471E+02  0.70828796471E+02  0.00000000000E+00 0. -1.
      99926    2    1    2    0    0  0.00000000000E+00  0.00000000000E+00  0.58798077943E+03  0.72963837237E+03  0.43203096817E+03 0.  0.
      99925    2    3    3    0    0  0.53549245732E+02  0.58252786313E+02  0.30554688507E+03  0.41076955669E+03  0.26289127200E+03 0.  0.
         25    1    3    3    0    0 -0.53549245732E+02 -0.58252786313E+02  0.28243389435E+03  0.31886881568E+03  0.12509000000E+03 0.  0.
         25    1    4    4    0    0 -0.43372586745E+01  0.50227177854E+02  0.12882103909E+03  0.18650455603E+03  0.12509000000E+03 0.  0.
         25    1    4    4    0    0  0.57886504407E+02  0.80256084583E+01  0.17672584598E+03  0.22426500066E+03  0.12509000000E+03 0.  0.
<mgrwt>
<rscale>  2 0.43203097E+03</rscale>
<asrwt>0</asrwt>
<pdfrwt beam="1">  1       21 0.96883758E-01 0.43203097E+03</pdfrwt>
<pdfrwt beam="2">  1       21 0.10416000E-01 0.43203097E+03</pdfrwt>
<totfact> 0.61741769E+04</totfact>
</mgrwt>
</event>
<event>
 7    0  0.4748297E-002  0.4579066E+03  0.7546771E-02  0.1025390E+00
         21   -1    0    0  502  501  0.00000000000E+00  0.00000000000E+00  0.40002935050E+03  0.40002935050E+03  0.00000000000E+00 0.  1.
         21   -1    0    0  501  502 -0.00000000000E+00 -0.00000000000E+00 -0.13103941767E+03  0.13103941767E+03  0.00000000000E+00 0.  1.
      99926    2    1    2    0    0  0.00000000000E+00  0.17763568394E-14  0.26898993283E+03  0.53106876816E+03  0.45790659807E+03 0.  0.
      99925    2    3    3    0    0 -0.39343455109E+02 -0.13757839787E+02  0.43471686865E+02  0.26983482516E+03  0.26302824885E+03 0.  0.
         25    1    3    3    0    0  0.39343455109E+02  0.13757839787E+02  0.22551824597E+03  0.26123394301E+03  0.12509000000E+03 0.  0.
         25    1    4    4    0    0  0.15029211176E+02  0.56854148357E+01  0.38912610188E+02  0.13198447053E+03  0.12509000000E+03 0.  0.
         25    1    4    4    0    0 -0.54372666285E+02 -0.19443254623E+02  0.45590766775E+01  0.13785035462E+03  0.12509000000E+03 0.  0.
<mgrwt>
<rscale>  2 0.45790660E+03</rscale>
<asrwt>0</asrwt>
<pdfrwt beam="1">  1       21 0.58827845E-01 0.45790660E+03</pdfrwt>
<pdfrwt beam="2">  1       21 0.19270503E-01 0.45790660E+03</pdfrwt>
<totfact> 0.61700477E+04</totfact>
</mgrwt>
</event>
<event>
 7    0  0.4748297E-002  0.4569925E+03  0.7546771E-02  0.1025657E+00
         21   -1    0    0  502  501  0.00000000000E+00  0.00000000000E+00  0.11919351996E+04  0.11919351996E+04  0.00000000000E+00 0.  1.
         21   -1    0    0  501  502 -0.00000000000E+00 -0.00000000000E+00 -0.43803163178E+02  0.43803163178E+02  0.00000000000E+00 0.  1.
      99926    2    1    2    0    0  0.00000000000E+00  0.00000000000E+00  0.11481320365E+04  0.12357383628E+04  0.45699248154E+03 0.  0.
      99925    2    3    3    0    0 -0.59401795065E+02  0.96480058547E+02  0.77566932432E+03  0.82682155588E+03  0.26293346998E+03 0.  0.
         25    1    4    4    0    0  0.58105607306E+01  0.64690002366E+02  0.41285610490E+03  0.43625248478E+03  0.12509000000E+03 0.  0.
         25    1    3    3    0    0  0.59401795065E+02 -0.96480058547E+02  0.37246271214E+03  0.40891680693E+03  0.12509000000E+03 0.  0.
         25    1    4    4    0    0 -0.65212355795E+02  0.31790056182E+02  0.36281321942E+03  0.39056907110E+03  0.12509000000E+03 0.  0.
<mgrwt>
<rscale>  2 0.45699248E+03</rscale>
<asrwt>0</asrwt>
<pdfrwt beam="1">  1       21 0.17528457E+00 0.45699248E+03</pdfrwt>
<pdfrwt beam="2">  1       21 0.64416424E-02 0.45699248E+03</pdfrwt>
<totfact> 0.30562729E+04</totfact>
</mgrwt>
</event>
<event>
 7    0  0.4748297E-002  0.4590605E+03  0.7546771E-02  0.1025054E+00
         21   -1    0    0  502  501  0.00000000000E+00  0.00000000000E+00  0.11231694666E+04  0.11231694666E+04  0.00000000000E+00 0. -1.
         21   -1    0    0  501  502 -0.00000000000E+00 -0.00000000000E+00 -0.46906674025E+02  0.46906674025E+02  0.00000000000E+00 0. -1.
      99926    2    1    2    0    0 -0.35527136788E-14  0.00000000000E+00  0.10762627926E+04  0.11700761407E+04  0.45906053652E+03 0.  0.
      99925    2    3    3    0    0 -0.27576936095E+02  0.99742798342E+02  0.81373837555E+03  0.86140853485E+03  0.26295514226E+03 0.  0.
         25    1    4    4    0    0 -0.34909648401E+02  0.68896223441E+02  0.52398722521E+03  0.54422007813E+03  0.12509000000E+03 0.  0.
         25    1    3    3    0    0  0.27576936095E+02 -0.99742798342E+02  0.26252441707E+03  0.30866760582E+03  0.12509000000E+03 0.  0.
         25    1    4    4    0    0  0.73327123065E+01  0.30846574901E+02  0.28975115034E+03  0.31718845672E+03  0.12509000000E+03 0.  0.
<mgrwt>
<rscale>  2 0.45906054E+03</rscale>
<asrwt>0</asrwt>
<pdfrwt beam="1">  1       21 0.16517196E+00 0.45906054E+03</pdfrwt>
<pdfrwt beam="2">  1       21 0.68980410E-02 0.45906054E+03</pdfrwt>
<totfact> 0.32091619E+04</totfact>
</mgrwt>
</event>
<event>
 7    0  0.4748297E-002  0.4597731E+03  0.7546771E-02  0.1024847E+00
         21   -1    0    0  502  501  0.00000000000E+00  0.00000000000E+00  0.62514921319E+03  0.62514921319E+03  0.00000000000E+00 0. -1.
         21   -1    0    0  501  502 -0.00000000000E+00 -0.00000000000E+00 -0.84536326691E+02  0.84536326691E+02  0.00000000000E+00 0. -1.
      99926    2    1    2    0    0  0.00000000000E+00 -0.88817841970E-15  0.54061288650E+03  0.70968553989E+03  0.45977306627E+03 0.  0.
      99925    2    3    3    0    0  0.66176627426E+02  0.57828704486E+01  0.18918532860E+03  0.33079027182E+03  0.26309376231E+03 0.  0.
         25    1    4    4    0    0  0.16198409040E+02 -0.13406301841E+02  0.50569785827E+02  0.13655375763E+03  0.12509000000E+03 0.  0.
         25    1    4    4    0    0  0.49978218386E+02  0.19189172289E+02  0.13861554277E+03  0.19423651419E+03  0.12509000000E+03 0.  0.
         25    1    3    3    0    0 -0.66176627426E+02 -0.57828704486E+01  0.35142755791E+03  0.37889526807E+03  0.12509000000E+03 0.  0.
<mgrwt>
<rscale>  2 0.45977307E+03</rscale>
<asrwt>0</asrwt>
<pdfrwt beam="1">  1       21 0.91933705E-01 0.45977307E+03</pdfrwt>
<pdfrwt beam="2">  1       21 0.12431813E-01 0.45977307E+03</pdfrwt>
<totfact> 0.50458487E+04</totfact>
</mgrwt>
</event>
<event>
 7    0  0.4748297E-002  0.4566781E+03  0.7546771E-02  0.1025749E+00
         21   -1    0    0  502  501  0.00000000000E+00  0.00000000000E+00  0.23618818054E+03  0.23618818054E+03  0.00000000000E+00 0.  1.
         21   -1    0    0  501  502 -0.00000000000E+00 -0.00000000000E+00 -0.22075077214E+03  0.22075077214E+03  0.00000000000E+00 0.  1.
      99926    2    1    2    0    0  0.00000000000E+00  0.14210854715E-13  0.15437408405E+02  0.45693895268E+03  0.45667810644E+03 0.  0.
      99925    2    3    3    0    0  0.60154500510E+02 -0.95199217678E+02 -0.11535877322E+02  0.28647921779E+03  0.26316498775E+03 0.  0.
         25    1    3    3    0    0 -0.60154500510E+02  0.95199217678E+02  0.26973285727E+02  0.17045973490E+03  0.12509000000E+03 0.  0.
         25    1    4    4    0    0  0.53663043498E+02 -0.18020283402E+02 -0.21679066699E+02  0.13900339163E+03  0.12509000000E+03 0.  0.
         25    1    4    4    0    0  0.64914570123E+01 -0.77178934275E+02  0.10143189377E+02  0.14747582616E+03  0.12509000000E+03 0.  0.
<mgrwt>
<rscale>  2 0.45667811E+03</rscale>
<asrwt>0</asrwt>
<pdfrwt beam="1">  1       21 0.34733556E-01 0.45667811E+03</pdfrwt>
<pdfrwt beam="2">  1       21 0.32463349E-01 0.45667811E+03</pdfrwt>
<totfact> 0.67495724E+04</totfact>
</mgrwt>
</event>
<event>
 7    0  0.4748297E-002  0.4581852E+03  0.7546771E-02  0.1025309E+00
         21   -1    0    0  502  501  0.00000000000E+00  0.00000000000E+00  0.10322136005E+03  0.10322136005E+03  0.00000000000E+00 0.  1.
         21   -1    0    0  501  502 -0.00000000000E+00 -0.00000000000E+00 -0.50845510687E+03  0.50845510687E+03  0.00000000000E+00 0.  1.
      99926    2    1    2    0    0  0.14210854715E-13  0.00000000000E+00 -0.40523374681E+03  0.61167646692E+03  0.45818523615E+03 0.  0.
      99925    2    3    3    0    0 -0.10615065278E+03 -0.56733430077E+01 -0.31657531055E+03  0.42510751364E+03  0.26305193974E+03 0.  0.
         25    1    4    4    0    0 -0.64010870391E+02 -0.40343118259E+02 -0.14541906149E+03  0.20620177076E+03  0.12509000000E+03 0.  0.
         25    1    4    4    0    0 -0.42139782392E+02  0.34669775251E+02 -0.17115624905E+03  0.21890574288E+03  0.12509000000E+03 0.  0.
         25    1    3    3    0    0  0.10615065278E+03  0.56733430077E+01 -0.88658436268E+02  0.18656895328E+03  0.12509000000E+03 0.  0.
<mgrwt>
<rscale>  2 0.45818524E+03</rscale>
<asrwt>0</asrwt>
<pdfrwt beam="1">  1       21 0.15179612E-01 0.45818524E+03</pdfrwt>
<pdfrwt beam="2">  1       21 0.74772807E-01 0.45818524E+03</pdfrwt>
<totfact> 0.56529533E+04</totfact>
</mgrwt>
</event>
<event>
 7    0  0.4748297E-002  0.4602691E+03  0.7546771E-02  0.1024703E+00
         21   -1    0    0  502  501  0.00000000000E+00  0.00000000000E+00  0.93398137863E+02  0.93398137863E+02  0.00000000000E+00 0.  1.
         21   -1    0    0  501  502 -0.00000000000E+00 -0.00000000000E+00 -0.56705526272E+03  0.56705526272E+03  0.00000000000E+00 0.  1.
      99926    2    1    2    0    0  0.00000000000E+00  0.00000000000E+00 -0.47365712486E+03  0.66045340058E+03  0.46026907610E+03 0.  0.
      99925    2    3    3    0    0  0.14394574456E+02  0.81012320784E+02 -0.41822547958E+03  0.50079634533E+03  0.26289584979E+03 0.  0.
         25    1    4    4    0    0 -0.11342200505E+02  0.68360119130E+01 -0.22258184612E+03  0.25566689831E+03  0.12509000000E+03 0.  0.
         25    1    3    3    0    0 -0.14394574456E+02 -0.81012320784E+02 -0.55431645277E+02  0.15965705525E+03  0.12509000000E+03 0.  0.
         25    1    4    4    0    0  0.25736774961E+02  0.74176308871E+02 -0.19564363346E+03  0.24512944702E+03  0.12509000000E+03 0.  0.
<mgrwt>
<rscale>  2 0.46026908E+03</rscale>
<asrwt>0</asrwt>
<pdfrwt beam="1">  1       21 0.13735021E-01 0.46026908E+03</pdfrwt>
<pdfrwt beam="2">  1       21 0.83390476E-01 0.46026908E+03</pdfrwt>
<totfact> 0.52871449E+04</totfact>
</mgrwt>
</event>
<event>
 6    0  0.4748297E-002  0.4502600E+03  0.7546771E-02  0.1027645E+00
         21   -1    0    0  502  501  0.00000000000E+00  0.00000000000E+00  0.89909655046E+02  0.89909655046E+02  0.00000000000E+00 0. -1.
         21   -1    0    0  501  502 -0.00000000000E+00 -0.00000000000E+00 -0.56371602861E+03  0.56371602861E+03  0.00000000000E+00 0. -1.
      99926    2    1    2    0    0  0.00000000000E+00  0.00000000000E+00 -0.47380637356E+03  0.65362568365E+03  0.45025998568E+03 0.  0.
         25    1    3    3    0    0  0.37369599859E+01 -0.29138343052E+02 -0.16093379939E+03  0.20593737833E+03  0.12509000000E+03 0.  0.
         25    1    3    3    0    0 -0.19332332882E+02  0.91729470558E+02 -0.24696303578E+03  0.29227775147E+03  0.12509000000E+03 0.  0.
         25    1    3    3    0    0  0.15595372896E+02 -0.62591127507E+02 -0.65909538390E+02  0.15541055385E+03  0.12509000000E+03 0.  0.
<mgrwt>
<rscale>  2 0.45025999E+03</rscale>
<asrwt>0</asrwt>
<pdfrwt beam="1">  1       21 0.13222008E-01 0.45025999E+03</pdfrwt>
<pdfrwt beam="2">  1       21 0.82899414E-01 0.45025999E+03</pdfrwt>
<totfact> 0.57617249E+04</totfact>
</mgrwt>
</event>
<event>
 7    0  0.4748297E-002  0.4551010E+03  0.7546771E-02  0.1026212E+00
         21   -1    0    0  502  501  0.00000000000E+00  0.00000000000E+00  0.76651275160E+02  0.76651275160E+02  0.00000000000E+00 0. -1.
         21   -1    0    0  501  502 -0.00000000000E+00 -0.00000000000E+00 -0.67551682375E+03  0.67551682375E+03  0.00000000000E+00 0. -1.
      99926    2    1    2    0    0  0.00000000000E+00  0.00000000000E+00 -0.59886554859E+03  0.75216809891E+03  0.45510098190E+03 0.  0.
      99925    2    3    3    0    0 -0.89421387030E+02 -0.64188473815E+02 -0.33287729222E+03  0.43829932815E+03  0.26302597734E+03 0.  0.
         25    1    3    3    0    0  0.89421387030E+02  0.64188473815E+02 -0.26598825637E+03  0.31386877076E+03  0.12509000000E+03 0.  0.
         25    1    4    4    0    0 -0.21240204193E+02 -0.55191468071E+02 -0.20056674933E+03  0.24366323780E+03  0.12509000000E+03 0.  0.
         25    1    4    4    0    0 -0.68181182837E+02 -0.89970057434E+01 -0.13231054289E+03  0.19463609035E+03  0.12509000000E+03 0.  0.
<mgrwt>
<rscale>  2 0.45510098E+03</rscale>
<asrwt>0</asrwt>
<pdfrwt beam="1">  1       21 0.11272246E-01 0.45510098E+03</pdfrwt>
<pdfrwt beam="2">  1       21 0.99340712E-01 0.45510098E+03</pdfrwt>
<totfact> 0.50120624E+04</totfact>
</mgrwt>
</event>
<event>
 7    0  0.4748297E-002  0.4534818E+03  0.7546771E-02  0.1026689E+00
         21   -1    0    0  502  501  0.00000000000E+00  0.00000000000E+00  0.17257391337E+03  0.17257391337E+03  0.00000000000E+00 0. -1.
         21   -1    0    0  501  502 -0.00000000000E+00 -0.00000000000E+00 -0.29790970099E+03  0.29790970099E+03  0.00000000000E+00 0. -1.
      99926    2    1    2    0    0  0.13322676296E-14  0.00000000000E+00 -0.12533578762E+03  0.47048361437E+03  0.45348183175E+03 0.  0.
      99925    2    3    3    0    0 -0.13640763610E+01  0.48158843937E+02 -0.18359656117E+03  0.32432287823E+03  0.26297622919E+03 0.  0.
         25    1    3    3    0    0  0.13640763610E+01 -0.48158843937E+02  0.58260773549E+02  0.14616073614E+03  0.12509000000E+03 0.  0.
         25    1    4    4    0    0  0.18659992389E+02  0.48464143704E+02 -0.12664269231E+03  0.18542612588E+03  0.12509000000E+03 0.  0.
         25    1    4    4    0    0 -0.20024068750E+02 -0.30529976641E+00 -0.56953868854E+02  0.13889675235E+03  0.12509000000E+03 0.  0.
<mgrwt>
<rscale>  2 0.45348183E+03</rscale>
<asrwt>0</asrwt>
<pdfrwt beam="1">  1       21 0.25378517E-01 0.45348183E+03</pdfrwt>
<pdfrwt beam="2">  1       21 0.43810250E-01 0.45348183E+03</pdfrwt>
<totfact> 0.68217726E+04</totfact>
</mgrwt>
</event>
<event>
 7    0  0.4748297E-002  0.4520130E+03  0.7546771E-02  0.1027123E+00
         21   -1    0    0  502  501  0.00000000000E+00  0.00000000000E+00  0.14521351236E+04  0.14521351236E+04  0.00000000000E+00 0. -1.
         21   -1    0    0  501  502 -0.00000000000E+00 -0.00000000000E+00 -0.35175060279E+02  0.35175060279E+02  0.00000000000E+00 0. -1.
      99926    2    1    2    0    0  0.00000000000E+00 -0.71054273576E-14  0.14169600633E+04  0.14873101839E+04  0.45201301090E+03 0.  0.
      99925    2    3    3    0    0 -0.87433300576E+02 -0.35240725195E+02  0.70478401540E+03  0.75811287032E+03  0.26292227944E+03 0.  0.
         25    1    4    4    0    0 -0.50008081688E+02  0.16512031983E+02  0.40312943079E+03  0.42536372848E+03  0.12509000000E+03 0.  0.
         25    1    3    3    0    0  0.87433300576E+02  0.35240725195E+02  0.71217604790E+03  0.72919731354E+03  0.12509000000E+03 0.  0.
         25    1    4    4    0    0 -0.37425218887E+02 -0.51752757178E+02  0.30165458460E+03  0.33274914184E+03  0.12509000000E+03 0.  0.
<mgrwt>
<rscale>  2 0.45201301E+03</rscale>
<asrwt>0</asrwt>
<pdfrwt beam="1">  1       21 0.21354924E+00 0.45201301E+03</pdfrwt>
<pdfrwt beam="2">  1       21 0.51728040E-02 0.45201301E+03</pdfrwt>
<totfact> 0.24659054E+04</totfact>
</mgrwt>
</event>
<event>
 7    0  0.4748297E-002  0.4528379E+03  0.7546771E-02  0.1026879E+00
         21   -1    0    0  502  501  0.00000000000E+00  0.00000000000E+00  0.10520399180E+03  0.10520399180E+03  0.00000000000E+00 0. -1.
         21   -1    0    0  501  502 -0.00000000000E+00 -0.00000000000E+00 -0.48729643923E+03  0.48729643923E+03  0.00000000000E+00 0. -1.
      99926    2    1    2    0    0  0.00000000000E+00  0.88817841970E-15 -0.38209244743E+03  0.59250043103E+03  0.45283785442E+03 0.  0.
      99925    2    3    3    0    0  0.10967945705E+03 -0.53438800950E+01 -0.21807809818E+03  0.35882040362E+03  0.26293703580E+03 0.  0.
         25    1    4    4    0    0  0.25141659143E+02 -0.12360843921E+02 -0.65099128534E+02  0.14377168749E+03  0.12509000000E+03 0.  0.
         25    1    4    4    0    0  0.84537797907E+02  0.70169638263E+01 -0.15297896965E+03  0.21504871613E+03  0.12509000000E+03 0.  0.
         25    1    3    3    0    0 -0.10967945705E+03  0.53438800950E+01 -0.16401434925E+03  0.23368002741E+03  0.12509000000E+03 0.  0.
<mgrwt>
<rscale>  2 0.45283785E+03</rscale>
<asrwt>0</asrwt>
<pdfrwt beam="1">  1       21 0.15471175E-01 0.45283785E+03</pdfrwt>
<pdfrwt beam="2">  1       21 0.71661241E-01 0.45283785E+03</pdfrwt>
<totfact> 0.60163732E+04</totfact>
</mgrwt>
</event>
<event>
 7    0  0.4748297E-002  0.4591144E+03  0.7546771E-02  0.1025038E+00
         21   -1    0    0  502  501  0.00000000000E+00  0.00000000000E+00  0.62234808886E+03  0.62234808886E+03  0.00000000000E+00 0. -1.
         21   -1    0    0  501  502 -0.00000000000E+00 -0.00000000000E+00 -0.84673687590E+02  0.84673687590E+02  0.00000000000E+00 0. -1.
      99926    2    1    2    0    0  0.00000000000E+00  0.00000000000E+00  0.53767440127E+03  0.70702177645E+03  0.45911439816E+03 0.  0.
      99925    2    3    3    0    0  0.57229604477E+02  0.91478275722E+02  0.40651516391E+03  0.49608634509E+03  0.26306573464E+03 0.  0.
         25    1    4    4    0    0  0.12610800745E+02  0.43881356556E+02  0.26327442026E+03  0.29503480169E+03  0.12509000000E+03 0.  0.
         25    1    4    4    0    0  0.44618803732E+02  0.47596919166E+02  0.14324074365E+03  0.20105154339E+03  0.12509000000E+03 0.  0.
         25    1    3    3    0    0 -0.57229604477E+02 -0.91478275722E+02  0.13115923737E+03  0.21093543136E+03  0.12509000000E+03 0.  0.
<mgrwt>
<rscale>  2 0.45911440E+03</rscale>
<asrwt>0</asrwt>
<pdfrwt beam="1">  1       21 0.91521776E-01 0.45911440E+03</pdfrwt>
<pdfrwt beam="2">  1       21 0.12452013E-01 0.45911440E+03</pdfrwt>
<totfact> 0.50856849E+04</totfact>
</mgrwt>
</event>
<event>
 7    0  0.4748297E-002  0.4491839E+03  0.7546771E-02  0.1027966E+00
         21   -1    0    0  502  501  0.00000000000E+00  0.00000000000E+00  0.60896710111E+03  0.60896710111E+03  0.00000000000E+00 0.  1.
         21   -1    0    0  501  502 -0.00000000000E+00 -0.00000000000E+00 -0.82831302983E+02  0.82831302983E+02  0.00000000000E+00 0.  1.
      99926    2    1    2    0    0  0.00000000000E+00 -0.14210854715E-13  0.52613579813E+03  0.69179840410E+03  0.44918387531E+03 0.  0.
      99925    2    3    3    0    0  0.64085707091E+02  0.82115880601E+02  0.37444333763E+03  0.46929423251E+03  0.26301951995E+03 0.  0.
         25    1    4    4    0    0  0.48944416090E+02  0.28786910190E+02  0.24530709226E+03  0.28115355178E+03  0.12509000000E+03 0.  0.
         25    1    4    4    0    0  0.15141291001E+02  0.53328970411E+02  0.12913624537E+03  0.18814068073E+03  0.12509000000E+03 0.  0.
         25    1    3    3    0    0 -0.64085707091E+02 -0.82115880601E+02  0.15169246050E+03  0.22250417158E+03  0.12509000000E+03 0.  0.
<mgrwt>
<rscale>  2 0.44918388E+03</rscale>
<asrwt>0</asrwt>
<pdfrwt beam="1">  1       21 0.89553984E-01 0.44918388E+03</pdfrwt>
<pdfrwt beam="2">  1       21 0.12181074E-01 0.44918388E+03</pdfrwt>
<totfact> 0.55864545E+04</totfact>
</mgrwt>
</event>
<event>
 7    0  0.4748297E-002  0.4623119E+03  0.7546771E-02  0.1024113E+00
         21   -1    0    0  502  501  0.00000000000E+00  0.00000000000E+00  0.52999680836E+03  0.52999680836E+03  0.00000000000E+00 0. -1.
         21   -1    0    0  501  502 -0.00000000000E+00 -0.00000000000E+00 -0.10081774192E+03  0.10081774192E+03  0.00000000000E+00 0. -1.
      99926    2    1    2    0    0  0.00000000000E+00 -0.14210854715E-13  0.42917906644E+03  0.63081455029E+03  0.46231193558E+03 0.  0.
      99925    2    3    3    0    0 -0.68049451067E+02 -0.97953395063E+02  0.25182226892E+03  0.38316855875E+03  0.26301728821E+03 0.  0.
         25    1    3    3    0    0  0.68049451067E+02  0.97953395063E+02  0.17735679752E+03  0.24764599153E+03  0.12509000000E+03 0.  0.
         25    1    4    4    0    0 -0.26395237456E+02 -0.75611859153E+02  0.17271996814E+03  0.22780157440E+03  0.12509000000E+03 0.  0.
         25    1    4    4    0    0 -0.41654213611E+02 -0.22341535911E+02  0.79102300783E+02  0.15536698435E+03  0.12509000000E+03 0.  0.
<mgrwt>
<rscale>  2 0.46231194E+03</rscale>
<asrwt>0</asrwt>
<pdfrwt beam="1">  1       21 0.77940706E-01 0.46231194E+03</pdfrwt>
<pdfrwt beam="2">  1       21 0.14826139E-01 0.46231194E+03</pdfrwt>
<totfact> 0.53655670E+04</totfact>
</mgrwt>
</event>
<event>
 7    0  0.4748297E-002  0.4644952E+03  0.7546771E-02  0.1023485E+00
         21   -1    0    0  502  501  0.00000000000E+00  0.00000000000E+00  0.25406414488E+02  0.25406414488E+02  0.00000000000E+00 0. -1.
         21   -1    0    0  501  502 -0.00000000000E+00 -0.00000000000E+00 -0.21230446447E+04  0.21230446447E+04  0.00000000000E+00 0. -1.
      99926    2    1    2    0    0  0.00000000000E+00  0.00000000000E+00 -0.20976382302E+04  0.21484510592E+04  0.46449521943E+03 0.  0.
      99925    2    3    3    0    0  0.89321846435E+02 -0.50446360561E+02 -0.10046727951E+04  0.10435781353E+04  0.26299177110E+03 0.  0.
         25    1    4    4    0    0  0.35679606996E+02 -0.55578338137E+00 -0.35921675953E+03  0.38204388711E+03  0.12509000000E+03 0.  0.
         25    1    3    3    0    0 -0.89321846435E+02  0.50446360561E+02 -0.10929654351E+04  0.11048729239E+04  0.12509000000E+03 0.  0.
         25    1    4    4    0    0  0.53642239438E+02 -0.49890577180E+02 -0.64545603561E+03  0.66153424820E+03  0.12509000000E+03 0.  0.
<mgrwt>
<rscale>  2 0.46449522E+03</rscale>
<asrwt>0</asrwt>
<pdfrwt beam="1">  1       21 0.37362378E-02 0.46449522E+03</pdfrwt>
<pdfrwt beam="2">  1       21 0.31221242E+00 0.46449522E+03</pdfrwt>
<totfact> 0.10628464E+04</totfact>
</mgrwt>
</event>
<event>
 7    0  0.4748297E-002  0.4515022E+03  0.7546771E-02  0.1027275E+00
         21   -1    0    0  502  501  0.00000000000E+00  0.00000000000E+00  0.46827392191E+02  0.46827392191E+02  0.00000000000E+00 0. -1.
         21   -1    0    0  501  502 -0.00000000000E+00 -0.00000000000E+00 -0.10883280125E+04  0.10883280125E+04  0.00000000000E+00 0. -1.
      99926    2    1    2    0    0 -0.88817841970E-15 -0.14210854715E-13 -0.10415006203E+04  0.11351554047E+04  0.45150221560E+03 0.  0.
      99925    2    3    3    0    0 -0.68188810348E+01 -0.10079784706E+03 -0.76574017376E+03  0.81594068840E+03  0.26304845594E+03 0.  0.
         25    1    4    4    0    0 -0.22746772561E+00 -0.33417721246E+02 -0.25817800588E+03  0.28882552979E+03  0.12509000000E+03 0.  0.
         25    1    3    3    0    0  0.68188810348E+01  0.10079784706E+03 -0.27576044652E+03  0.31921471626E+03  0.12509000000E+03 0.  0.
         25    1    4    4    0    0 -0.65914133092E+01 -0.67380125813E+02 -0.50756216788E+03  0.52711515862E+03  0.12509000000E+03 0.  0.
<mgrwt>
<rscale>  2 0.45150222E+03</rscale>
<asrwt>0</asrwt>
<pdfrwt beam="1">  1       21 0.68863820E-02 0.45150222E+03</pdfrwt>
<pdfrwt beam="2">  1       21 0.16004822E+00 0.45150222E+03</pdfrwt>
<totfact> 0.35232740E+04</totfact>
</mgrwt>
</event>
<event>
 7    0  0.4748297E-002  0.4526369E+03  0.7546771E-02  0.1026939E+00
         21   -1    0    0  502  501  0.00000000000E+00  0.00000000000E+00  0.17734605828E+03  0.17734605828E+03  0.00000000000E+00 0.  1.
         21   -1    0    0  501  502 -0.00000000000E+00 -0.00000000000E+00 -0.28881413232E+03  0.28881413232E+03  0.00000000000E+00 0.  1.
      99926    2    1    2    0    0  0.14210854715E-13 -0.71054273576E-14 -0.11146807404E+03  0.46616019060E+03  0.45263693151E+03 0.  0.
      99925    2    3    3    0    0 -0.10528188526E+03  0.33374481235E+02 -0.59791618919E+02  0.29147162350E+03  0.26302573686E+03 0.  0.
         25    1    4    4    0    0 -0.91549626870E+02  0.39011405997E+00 -0.37481878915E+02  0.15948004802E+03  0.12509000000E+03 0.  0.
         25    1    4    4    0    0 -0.13732258390E+02  0.32984367175E+02 -0.22309740004E+02  0.13199157548E+03  0.12509000000E+03 0.  0.
         25    1    3    3    0    0  0.10528188526E+03 -0.33374481235E+02 -0.51676455124E+02  0.17468856710E+03  0.12509000000E+03 0.  0.
<mgrwt>
<rscale>  2 0.45263693E+03</rscale>
<asrwt>0</asrwt>
<pdfrwt beam="1">  1       21 0.26080303E-01 0.45263693E+03</pdfrwt>
<pdfrwt beam="2">  1       21 0.42472666E-01 0.45263693E+03</pdfrwt>
<totfact> 0.69006953E+04</totfact>
</mgrwt>
</event>
<event>
 7    0  0.4748297E-002  0.4605575E+03  0.7546771E-02  0.1024620E+00
         21   -1    0    0  502  501  0.00000000000E+00  0.00000000000E+00  0.62911773219E+02  0.62911773219E+02  0.00000000000E+00 0.  1.
         21   -1    0    0  501  502 -0.00000000000E+00 -0.00000000000E+00 -0.84289937486E+03  0.84289937486E+03  0.00000000000E+00 0.  1.
      99926    2    1    2    0    0  0.00000000000E+00  0.00000000000E+00 -0.77998760164E+03  0.90581114808E+03  0.46055746359E+03 0.  0.
      99925    2    3    3    0    0 -0.39844925006E+02 -0.10926213066E+03 -0.44656809262E+03  0.53118879378E+03  0.26308295658E+03 0.  0.
         25    1    3    3    0    0  0.39844925006E+02  0.10926213066E+03 -0.33341950902E+03  0.37462235430E+03  0.12509000000E+03 0.  0.
         25    1    4    4    0    0 -0.24508300674E+02 -0.20040173200E+02 -0.15884629095E+03  0.20465072097E+03  0.12509000000E+03 0.  0.
         25    1    4    4    0    0 -0.15336624332E+02 -0.89221957462E+02 -0.28772180167E+03  0.32653807281E+03  0.12509000000E+03 0.  0.
<mgrwt>
<rscale>  2 0.46055746E+03</rscale>
<asrwt>0</asrwt>
<pdfrwt beam="1">  1       21 0.92517314E-02 0.46055746E+03</pdfrwt>
<pdfrwt beam="2">  1       21 0.12395579E+00 0.46055746E+03</pdfrwt>
<totfact> 0.41163016E+04</totfact>
</mgrwt>
</event>
<event>
 7    0  0.4748297E-002  0.4034327E+03  0.7546771E-02  0.1042597E+00
         21   -1    0    0  502  501  0.00000000000E+00  0.00000000000E+00  0.20259639702E+03  0.20259639702E+03  0.00000000000E+00 0. -1.
         21   -1    0    0  501  502 -0.00000000000E+00 -0.00000000000E+00 -0.20084015411E+03  0.20084015411E+03  0.00000000000E+00 0. -1.
      99926    2    1    2    0    0 -0.17763568394E-14  0.00000000000E+00  0.17562429139E+01  0.40343655113E+03  0.40343272847E+03 0.  0.
      99925    2    3    3    0    0  0.76252362471E+01  0.34158143867E+02  0.39403713091E+02  0.26819690040E+03  0.26296768196E+03 0.  0.
         25    1    4    4    0    0  0.18872588230E+02 -0.19951671243E+02  0.11148586683E+02  0.12855365750E+03  0.12509000000E+03 0.  0.
         25    1    3    3    0    0 -0.76252362471E+01 -0.34158143867E+02 -0.37647470177E+02  0.13523965074E+03  0.12509000000E+03 0.  0.
         25    1    4    4    0    0 -0.11247351983E+02  0.54109815111E+02  0.28255126408E+02  0.13964324290E+03  0.12509000000E+03 0.  0.
<mgrwt>
<rscale>  2 0.40343273E+03</rscale>
<asrwt>0</asrwt>
<pdfrwt beam="1">  1       21 0.29793588E-01 0.40343273E+03</pdfrwt>
<pdfrwt beam="2">  1       21 0.29535317E-01 0.40343273E+03</pdfrwt>
<totfact> 0.11194547E+05</totfact>
</mgrwt>
</event>
<event>
 7    0  0.4748297E-002  0.4671997E+03  0.7546771E-02  0.1022714E+00
         21   -1    0    0  502  501  0.00000000000E+00  0.00000000000E+00  0.69157751651E+03  0.69157751651E+03  0.00000000000E+00 0. -1.
         21   -1    0    0  501  502 -0.00000000000E+00 -0.00000000000E+00 -0.78904956898E+02  0.78904956898E+02  0.00000000000E+00 0. -1.
      99926    2    1    2    0    0  0.00000000000E+00 -0.14210854715E-13  0.61267255961E+03  0.77048247341E+03  0.46719971803E+03 0.  0.
      99925    2    3    3    0    0  0.20320601426E+02 -0.87819583360E+02  0.24038040405E+03  0.36752569749E+03  0.26299656576E+03 0.  0.
         25    1    4    4    0    0 -0.25986673607E+01 -0.82245086527E+02  0.14531730889E+03  0.20865194870E+03  0.12509000000E+03 0.  0.
         25    1    3    3    0    0 -0.20320601426E+02  0.87819583360E+02  0.37229215556E+03  0.40295677591E+03  0.12509000000E+03 0.  0.
         25    1    4    4    0    0  0.22919268787E+02 -0.55744968325E+01  0.95063095158E+02  0.15887374880E+03  0.12509000000E+03 0.  0.
<mgrwt>
<rscale>  2 0.46719972E+03</rscale>
<asrwt>0</asrwt>
<pdfrwt beam="1">  1       21 0.10170257E+00 0.46719972E+03</pdfrwt>
<pdfrwt beam="2">  1       21 0.11603671E-01 0.46719972E+03</pdfrwt>
<totfact> 0.44780601E+04</totfact>
</mgrwt>
</event>
<event>
 7    0  0.4748297E-002  0.4530533E+03  0.7546771E-02  0.1026815E+00
         21   -1    0    0  502  501  0.00000000000E+00  0.00000000000E+00  0.10236860359E+03  0.10236860359E+03  0.00000000000E+00 0.  1.
         21   -1    0    0  501  502 -0.00000000000E+00 -0.00000000000E+00 -0.50127018834E+03  0.50127018834E+03  0.00000000000E+00 0.  1.
      99926    2    1    2    0    0  0.00000000000E+00  0.00000000000E+00 -0.39890158475E+03  0.60363879193E+03  0.45305332667E+03 0.  0.
      99925    2    3    3    0    0  0.33325080692E+02 -0.10456239431E+03 -0.22613366516E+03  0.36376357969E+03  0.26295180563E+03 0.  0.
         25    1    3    3    0    0 -0.33325080692E+02  0.10456239431E+03 -0.17276791959E+03  0.23987521224E+03  0.12509000000E+03 0.  0.
         25    1    4    4    0    0  0.50862844678E+02 -0.52463380272E+02 -0.88171682124E+02  0.16959124054E+03  0.12509000000E+03 0.  0.
         25    1    4    4    0    0 -0.17537763985E+02 -0.52099014041E+02 -0.13796198304E+03  0.19417233916E+03  0.12509000000E+03 0.  0.
<mgrwt>
<rscale>  2 0.45305333E+03</rscale>
<asrwt>0</asrwt>
<pdfrwt beam="1">  1       21 0.15054207E-01 0.45305333E+03</pdfrwt>
<pdfrwt beam="2">  1       21 0.73716203E-01 0.45305333E+03</pdfrwt>
<totfact> 0.59362554E+04</totfact>
</mgrwt>
</event>
<event>
 7    0  0.4748297E-002  0.4514399E+03  0.7546771E-02  0.1027294E+00
         21   -1    0    0  502  501  0.00000000000E+00  0.00000000000E+00  0.19521028859E+03  0.19521028859E+03  0.00000000000E+00 0.  1.
         21   -1    0    0  501  502 -0.00000000000E+00 -0.00000000000E+00 -0.26099796524E+03  0.26099796524E+03  0.00000000000E+00 0.  1.
      99926    2    1    2    0    0  0.00000000000E+00 -0.35527136788E-14 -0.65787676650E+02  0.45620825383E+03  0.45143986584E+03 0.  0.
      99925    2    3    3    0    0 -0.68275214751E+02  0.28076780124E+02 -0.12368785109E+03  0.29984409927E+03  0.26297906538E+03 0.  0.
         25    1    3    3    0    0  0.68275214751E+02 -0.28076780124E+02  0.57900174440E+02  0.15636415456E+03  0.12509000000E+03 0.  0.
         25    1    4    4    0    0 -0.63822821679E+02 -0.10833006926E+02 -0.78183208897E+02  0.16109260957E+03  0.12509000000E+03 0.  0.
         25    1    4    4    0    0 -0.44523930715E+01  0.38909787050E+02 -0.45504642192E+02  0.13875148970E+03  0.12509000000E+03 0.  0.
<mgrwt>
<rscale>  2 0.45143987E+03</rscale>
<asrwt>0</asrwt>
<pdfrwt beam="1">  1       21 0.28707395E-01 0.45143987E+03</pdfrwt>
<pdfrwt beam="2">  1       21 0.38382054E-01 0.45143987E+03</pdfrwt>
<totfact> 0.70436410E+04</totfact>
</mgrwt>
</event>
<event>
 7    0  0.4748297E-002  0.4230733E+03  0.7546771E-02  0.1036071E+00
         21   -1    0    0  502  501  0.00000000000E+00  0.00000000000E+00  0.11857248759E+04  0.11857248759E+04  0.00000000000E+00 0. -1.
         21   -1    0    0  501  502 -0.00000000000E+00 -0.00000000000E+00 -0.37738737629E+02  0.37738737629E+02  0.00000000000E+00 0. -1.
      99926    2    1    2    0    0  0.00000000000E+00  0.00000000000E+00  0.11479861383E+04  0.12234636135E+04  0.42307332694E+03 0.  0.
      99925    2    3    3    0    0 -0.40228504754E+02 -0.53148715016E+02  0.87142364927E+03  0.91269450805E+03  0.26303796304E+03 0.  0.
         25    1    4    4    0    0 -0.15501763843E+02  0.61465320106E+01  0.32999060819E+03  0.35329788300E+03  0.12509000000E+03 0.  0.
         25    1    4    4    0    0 -0.24726740911E+02 -0.59295247027E+02  0.54143304108E+03  0.55939662504E+03  0.12509000000E+03 0.  0.
         25    1    3    3    0    0  0.40228504754E+02  0.53148715016E+02  0.27656248900E+03  0.31076910549E+03  0.12509000000E+03 0.  0.
<mgrwt>
<rscale>  2 0.42307333E+03</rscale>
<asrwt>0</asrwt>
<pdfrwt beam="1">  1       21 0.17437128E+00 0.42307333E+03</pdfrwt>
<pdfrwt beam="2">  1       21 0.55498151E-02 0.42307333E+03</pdfrwt>
<totfact> 0.40613941E+04</totfact>
</mgrwt>
</event>
<event>
 7    0  0.4748297E-002  0.4544455E+03  0.7546771E-02  0.1026405E+00
         21   -1    0    0  502  501  0.00000000000E+00  0.00000000000E+00  0.15721147302E+03  0.15721147302E+03  0.00000000000E+00 0. -1.
         21   -1    0    0  501  502 -0.00000000000E+00 -0.00000000000E+00 -0.32841229870E+03  0.32841229870E+03  0.00000000000E+00 0. -1.
      99926    2    1    2    0    0  0.00000000000E+00  0.71054273576E-14 -0.17120082568E+03  0.48562377171E+03  0.45444551372E+03 0.  0.
      99925    2    3    3    0    0 -0.16918718577E+02  0.50699464520E+02 -0.17972269334E+01  0.26836409734E+03  0.26298171034E+03 0.  0.
         25    1    4    4    0    0  0.26140546113E+01 -0.14397762888E+02  0.18424137157E+01  0.12595646647E+03  0.12509000000E+03 0.  0.
         25    1    3    3    0    0  0.16918718577E+02 -0.50699464520E+02 -0.16940359875E+03  0.21725967438E+03  0.12509000000E+03 0.  0.
         25    1    4    4    0    0 -0.19532773188E+02  0.65097227408E+02 -0.36396406491E+01  0.14240763087E+03  0.12509000000E+03 0.  0.
<mgrwt>
<rscale>  2 0.45444551E+03</rscale>
<asrwt>0</asrwt>
<pdfrwt beam="1">  1       21 0.23119335E-01 0.45444551E+03</pdfrwt>
<pdfrwt beam="2">  1       21 0.48295926E-01 0.45444551E+03</pdfrwt>
<totfact> 0.66585569E+04</totfact>
</mgrwt>
</event>
<event>
 7    0  0.4748297E-002  0.4542440E+03  0.7546771E-02  0.1026464E+00
         21   -1    0    0  502  501  0.00000000000E+00  0.00000000000E+00  0.19360331033E+03  0.19360331033E+03  0.00000000000E+00 0. -1.
         21   -1    0    0  501  502 -0.00000000000E+00 -0.00000000000E+00 -0.26644380066E+03  0.26644380066E+03  0.00000000000E+00 0. -1.
      99926    2    1    2    0    0  0.00000000000E+00  0.00000000000E+00 -0.72840490329E+02  0.46004711099E+03  0.45424399534E+03 0.  0.
      99925    2    3    3    0    0 -0.26239652315E+01 -0.98600592207E+02  0.86389761404E+01  0.28111870762E+03  0.26310479640E+03 0.  0.
         25    1    4    4    0    0 -0.57058923057E+01 -0.76342576992E+02 -0.27005640581E+02  0.14912263072E+03  0.12509000000E+03 0.  0.
         25    1    4    4    0    0  0.30819270742E+01 -0.22258015215E+02  0.35644616722E+02  0.13199607690E+03  0.12509000000E+03 0.  0.
         25    1    3    3    0    0  0.26239652315E+01  0.98600592207E+02 -0.81479466469E+02  0.17892840337E+03  0.12509000000E+03 0.  0.
<mgrwt>
<rscale>  2 0.45424400E+03</rscale>
<asrwt>0</asrwt>
<pdfrwt beam="1">  1       21 0.28471075E-01 0.45424400E+03</pdfrwt>
<pdfrwt beam="2">  1       21 0.39182912E-01 0.45424400E+03</pdfrwt>
<totfact> 0.68589677E+04</totfact>
</mgrwt>
</event>
<event>
 7    0  0.4748297E-002  0.4569573E+03  0.7546771E-02  0.1025667E+00
         21   -1    0    0  502  501  0.00000000000E+00  0.00000000000E+00  0.45356635222E+03  0.45356635222E+03  0.00000000000E+00 0.  1.
         21   -1    0    0  501  502 -0.00000000000E+00 -0.00000000000E+00 -0.11509340712E+03  0.11509340712E+03  0.00000000000E+00 0.  1.
      99926    2    1    2    0    0  0.00000000000E+00  0.14210854715E-13  0.33847294511E+03  0.56865975934E+03  0.45695731456E+03 0.  0.
      99925    2    3    3    0    0 -0.35647038495E+02 -0.10895221131E+03  0.22043791624E+03  0.36196899554E+03  0.26322496674E+03 0.  0.
         25    1    4    4    0    0 -0.22982140702E+02 -0.78663706375E+02  0.74834884105E+02  0.16722417729E+03  0.12509000000E+03 0.  0.
         25    1    3    3    0    0  0.35647038495E+02  0.10895221131E+03  0.11803502886E+03  0.20669076380E+03  0.12509000000E+03 0.  0.
         25    1    4    4    0    0 -0.12664897793E+02 -0.30288504934E+02  0.14560303214E+03  0.19474481825E+03  0.12509000000E+03 0.  0.
<mgrwt>
<rscale>  2 0.45695731E+03</rscale>
<asrwt>0</asrwt>
<pdfrwt beam="1">  1       21 0.66700933E-01 0.45695731E+03</pdfrwt>
<pdfrwt beam="2">  1       21 0.16925501E-01 0.45695731E+03</pdfrwt>
<totfact> 0.59720265E+04</totfact>
</mgrwt>
</event>
<event>
 7    0  0.4748297E-002  0.4557896E+03  0.7546771E-02  0.1026009E+00
         21   -1    0    0  502  501  0.00000000000E+00  0.00000000000E+00  0.49491744781E+03  0.49491744781E+03  0.00000000000E+00 0. -1.
         21   -1    0    0  501  502 -0.00000000000E+00 -0.00000000000E+00 -0.10493877456E+03  0.10493877456E+03  0.00000000000E+00 0. -1.
      99926    2    1    2    0    0  0.17763568394E-14  0.00000000000E+00  0.38997867325E+03  0.59985622237E+03  0.45578955882E+03 0.  0.
      99925    2    3    3    0    0  0.53688415618E+01 -0.10069951965E+03  0.31491802706E+03  0.42251241384E+03  0.26300980660E+03 0.  0.
         25    1    4    4    0    0 -0.11432460255E+02 -0.84201472004E+02  0.20218123103E+03  0.25247840960E+03  0.12509000000E+03 0.  0.
         25    1    4    4    0    0  0.16801301817E+02 -0.16498047643E+02  0.11273679603E+03  0.17003400424E+03  0.12509000000E+03 0.  0.
         25    1    3    3    0    0 -0.53688415618E+01  0.10069951965E+03  0.75060646192E+02  0.17734380853E+03  0.12509000000E+03 0.  0.
<mgrwt>
<rscale>  2 0.45578956E+03</rscale>
<asrwt>0</asrwt>
<pdfrwt beam="1">  1       21 0.72781977E-01 0.45578956E+03</pdfrwt>
<pdfrwt beam="2">  1       21 0.15432173E-01 0.45578956E+03</pdfrwt>
<totfact> 0.58322418E+04</totfact>
</mgrwt>
</event>
<event>
 7    0  0.4748297E-002  0.4510124E+03  0.7546771E-02  0.1027421E+00
         21   -1    0    0  502  501  0.00000000000E+00  0.00000000000E+00  0.48560834942E+02  0.48560834942E+02  0.00000000000E+00 0. -1.
         21   -1    0    0  501  502 -0.00000000000E+00 -0.00000000000E+00 -0.10472029712E+04  0.10472029712E+04  0.00000000000E+00 0. -1.
      99926    2    1    2    0    0  0.00000000000E+00  0.00000000000E+00 -0.99864213630E+03  0.10957638062E+04  0.45101241951E+03 0.  0.
      99925    2    3    3    0    0 -0.10413806176E+03  0.93517428016E+01 -0.55756088157E+03  0.62551666650E+03  0.26356170515E+03 0.  0.
         25    1    4    4    0    0 -0.42237192885E+02  0.15686202383E+00 -0.18271109645E+03  0.22542151170E+03  0.12509000000E+03 0.  0.
         25    1    4    4    0    0 -0.61900868875E+02  0.91948807778E+01 -0.37484978511E+03  0.40009515481E+03  0.12509000000E+03 0.  0.
         25    1    3    3    0    0  0.10413806176E+03 -0.93517428016E+01 -0.44108125473E+03  0.47024713968E+03  0.12509000000E+03 0.  0.
<mgrwt>
<rscale>  2 0.45101242E+03</rscale>
<asrwt>0</asrwt>
<pdfrwt beam="1">  1       21 0.71413002E-02 0.45101242E+03</pdfrwt>
<pdfrwt beam="2">  1       21 0.15400042E+00 0.45101242E+03</pdfrwt>
<totfact> 0.36772177E+04</totfact>
</mgrwt>
</event>
<event>
 7    0  0.4748297E-002  0.5102457E+03  0.7546771E-02  0.1011139E+00
         21   -1    0    0  502  501  0.00000000000E+00  0.00000000000E+00  0.77981348411E+03  0.77981348411E+03  0.00000000000E+00 0.  1.
         21   -1    0    0  501  502 -0.00000000000E+00 -0.00000000000E+00 -0.83465695664E+02  0.83465695664E+02  0.00000000000E+00 0.  1.
      99926    2    1    2    0    0  0.00000000000E+00  0.00000000000E+00  0.69634778844E+03  0.86327917977E+03  0.51024572488E+03 0.  0.
      99925    2    3    3    0    0 -0.83203115523E+02  0.12355838838E+03  0.51608440110E+03  0.59807768904E+03  0.26299121523E+03 0.  0.
         25    1    4    4    0    0 -0.20125162165E+01  0.72422158556E+02  0.25166462986E+03  0.29022683076E+03  0.12509000000E+03 0.  0.
         25    1    3    3    0    0  0.83203115523E+02 -0.12355838838E+03  0.18026338734E+03  0.26520149074E+03  0.12509000000E+03 0.  0.
         25    1    4    4    0    0 -0.81190599306E+02  0.51136229828E+02  0.26441977124E+03  0.30785085828E+03  0.12509000000E+03 0.  0.
<mgrwt>
<rscale>  2 0.51024572E+03</rscale>
<asrwt>0</asrwt>
<pdfrwt beam="1">  1       21 0.11467845E+00 0.51024572E+03</pdfrwt>
<pdfrwt beam="2">  1       21 0.12274367E-01 0.51024572E+03</pdfrwt>
<totfact> 0.29722147E+04</totfact>
</mgrwt>
</event>
<event>
 7    0  0.4748297E-002  0.4547909E+03  0.7546771E-02  0.1026303E+00
         21   -1    0    0  502  501  0.00000000000E+00  0.00000000000E+00  0.31032724251E+03  0.31032724251E+03  0.00000000000E+00 0.  1.
         21   -1    0    0  501  502 -0.00000000000E+00 -0.00000000000E+00 -0.16662636843E+03  0.16662636843E+03  0.00000000000E+00 0.  1.
      99926    2    1    2    0    0  0.00000000000E+00  0.00000000000E+00  0.14370087408E+03  0.47695361094E+03  0.45479094733E+03 0.  0.
      99925    2    3    3    0    0 -0.84118410896E+02 -0.16740611207E+02  0.16757659363E+03  0.32341627607E+03  0.26298292298E+03 0.  0.
         25    1    3    3    0    0  0.84118410896E+02  0.16740611207E+02 -0.23875719544E+02  0.15353733487E+03  0.12509000000E+03 0.  0.
         25    1    4    4    0    0 -0.49846806722E+01 -0.20275228869E+02  0.95418121656E+02  0.15870746040E+03  0.12509000000E+03 0.  0.
         25    1    4    4    0    0 -0.79133730224E+02  0.35346176622E+01  0.72158471970E+02  0.16470881567E+03  0.12509000000E+03 0.  0.
<mgrwt>
<rscale>  2 0.45479095E+03</rscale>
<asrwt>0</asrwt>
<pdfrwt beam="1">  1       21 0.45636359E-01 0.45479095E+03</pdfrwt>
<pdfrwt beam="2">  1       21 0.24503878E-01 0.45479095E+03</pdfrwt>
<totfact> 0.67033678E+04</totfact>
</mgrwt>
</event>
<event>
 7    0  0.4748297E-002  0.4565738E+03  0.7546771E-02  0.1025780E+00
         21   -1    0    0  502  501  0.00000000000E+00  0.00000000000E+00  0.11460459973E+03  0.11460459973E+03  0.00000000000E+00 0.  1.
         21   -1    0    0  501  502 -0.00000000000E+00 -0.00000000000E+00 -0.45473662300E+03  0.45473662300E+03  0.00000000000E+00 0.  1.
      99926    2    1    2    0    0  0.00000000000E+00  0.00000000000E+00 -0.34013202327E+03  0.56934122273E+03  0.45657379977E+03 0.  0.
      99925    2    3    3    0    0 -0.36831717369E+02 -0.84865913422E+02 -0.12881874797E+03  0.30693008141E+03  0.26277938729E+03 0.  0.
         25    1    4    4    0    0 -0.56544390447E+02 -0.37319160083E+02 -0.79420349139E+02  0.16292663305E+03  0.12509000000E+03 0.  0.
         25    1    4    4    0    0  0.19712673078E+02 -0.47546753339E+02 -0.49398398826E+02  0.14400344836E+03  0.12509000000E+03 0.  0.
         25    1    3    3    0    0  0.36831717369E+02  0.84865913422E+02 -0.21131327531E+03  0.26241114131E+03  0.12509000000E+03 0.  0.
<mgrwt>
<rscale>  2 0.45657380E+03</rscale>
<asrwt>0</asrwt>
<pdfrwt beam="1">  1       21 0.16853618E-01 0.45657380E+03</pdfrwt>
<pdfrwt beam="2">  1       21 0.66873032E-01 0.45657380E+03</pdfrwt>
<totfact> 0.59857780E+04</totfact>
</mgrwt>
</event>
<event>
 7    0  0.4748297E-002  0.4665018E+03  0.7546771E-02  0.1022912E+00
         21   -1    0    0  502  501  0.00000000000E+00  0.00000000000E+00  0.40124909334E+03  0.40124909334E+03  0.00000000000E+00 0.  1.
         21   -1    0    0  501  502 -0.00000000000E+00 -0.00000000000E+00 -0.13559152803E+03  0.13559152803E+03  0.00000000000E+00 0.  1.
      99926    2    1    2    0    0  0.14210854715E-13  0.35527136788E-14  0.26565756531E+03  0.53684062137E+03  0.46650178000E+03 0.  0.
      99925    2    3    3    0    0  0.11300143984E+03  0.27730819915E+02  0.11737097117E+03  0.31062226252E+03  0.26300555378E+03 0.  0.
         25    1    4    4    0    0  0.58345524290E+02  0.54365977035E+02  0.55371580775E+02  0.15834576004E+03  0.12509000000E+03 0.  0.
         25    1    4    4    0    0  0.54655915550E+02 -0.26635157120E+02  0.61999390394E+02  0.15227650248E+03  0.12509000000E+03 0.  0.
         25    1    3    3    0    0 -0.11300143984E+03 -0.27730819915E+02  0.14828659414E+03  0.22621835885E+03  0.12509000000E+03 0.  0.
<mgrwt>
<rscale>  2 0.46650178E+03</rscale>
<asrwt>0</asrwt>
<pdfrwt beam="1">  1       21 0.59007219E-01 0.46650178E+03</pdfrwt>
<pdfrwt beam="2">  1       21 0.19939931E-01 0.46650178E+03</pdfrwt>
<totfact> 0.57337683E+04</totfact>
</mgrwt>
</event>
<event>
 7    0  0.4748297E-002  0.4513884E+03  0.7546771E-02  0.1027309E+00
         21   -1    0    0  502  501  0.00000000000E+00  0.00000000000E+00  0.71852851170E+02  0.71852851170E+02  0.00000000000E+00 0. -1.
         21   -1    0    0  501  502 -0.00000000000E+00 -0.00000000000E+00 -0.70891928627E+03  0.70891928627E+03  0.00000000000E+00 0. -1.
      99926    2    1    2    0    0  0.00000000000E+00  0.00000000000E+00 -0.63706643510E+03  0.78077213744E+03  0.45138840024E+03 0.  0.
      99925    2    3    3    0    0  0.21938197188E+02  0.10438675544E+03 -0.36759477116E+03  0.46511351649E+03  0.26424758889E+03 0.  0.
         25    1    4    4    0    0  0.46234273039E+02  0.28914076485E+02 -0.16393152500E+03  0.21329483072E+03  0.12509000000E+03 0.  0.
         25    1    3    3    0    0 -0.21938197188E+02 -0.10438675544E+03 -0.26947166394E+03  0.31565862094E+03  0.12509000000E+03 0.  0.
         25    1    4    4    0    0 -0.24296075851E+02  0.75472678959E+02 -0.20366324616E+03  0.25181868578E+03  0.12509000000E+03 0.  0.
<mgrwt>
<rscale>  2 0.45138840E+03</rscale>
<asrwt>0</asrwt>
<pdfrwt beam="1">  1       21 0.10566596E-01 0.45138840E+03</pdfrwt>
<pdfrwt beam="2">  1       21 0.10425283E+00 0.45138840E+03</pdfrwt>
<totfact> 0.50114562E+04</totfact>
</mgrwt>
</event>
<event>
 7    0  0.4748297E-002  0.4607278E+03  0.7546771E-02  0.1024570E+00
         21   -1    0    0  502  501  0.00000000000E+00  0.00000000000E+00  0.34309994394E+02  0.34309994394E+02  0.00000000000E+00 0. -1.
         21   -1    0    0  501  502 -0.00000000000E+00 -0.00000000000E+00 -0.15467074353E+04  0.15467074353E+04  0.00000000000E+00 0. -1.
      99926    2    1    2    0    0  0.71054273576E-14  0.00000000000E+00 -0.15123974409E+04  0.15810174297E+04  0.46072778702E+03 0.  0.
      99925    2    3    3    0    0 -0.29665666725E+02 -0.53289882678E+01 -0.55391223388E+03  0.61393426363E+03  0.26303624716E+03 0.  0.
         25    1    3    3    0    0  0.29665666725E+02  0.53289882678E+01 -0.95848520699E+03  0.96708316603E+03  0.12509000000E+03 0.  0.
         25    1    4    4    0    0 -0.37971235937E+02  0.13742612822E+02 -0.34929694990E+03  0.37321112185E+03  0.12509000000E+03 0.  0.
         25    1    4    4    0    0  0.83055692122E+01 -0.19071601090E+02 -0.20461528398E+03  0.24072314178E+03  0.12509000000E+03 0.  0.
<mgrwt>
<rscale>  2 0.46072779E+03</rscale>
<asrwt>0</asrwt>
<pdfrwt beam="1">  1       21 0.50455876E-02 0.46072779E+03</pdfrwt>
<pdfrwt beam="2">  1       21 0.22745697E+00 0.46072779E+03</pdfrwt>
<totfact> 0.20915567E+04</totfact>
</mgrwt>
</event>
<event>
 7    0  0.4748297E-002  0.4486767E+03  0.7546771E-02  0.1028117E+00
         21   -1    0    0  502  501  0.00000000000E+00  0.00000000000E+00  0.20554719687E+03  0.20554719687E+03  0.00000000000E+00 0.  1.
         21   -1    0    0  501  502 -0.00000000000E+00 -0.00000000000E+00 -0.24484739229E+03  0.24484739229E+03  0.00000000000E+00 0.  1.
      99926    2    1    2    0    0 -0.14210854715E-13  0.00000000000E+00 -0.39300195419E+02  0.45039458917E+03  0.44867669941E+03 0.  0.
      99925    2    3    3    0    0 -0.80456936235E+02  0.29547995602E+02  0.39416401322E+02  0.27954315272E+03  0.26314315288E+03 0.  0.
         25    1    3    3    0    0  0.80456936235E+02 -0.29547995602E+02 -0.78716596741E+02  0.17085143644E+03  0.12509000000E+03 0.  0.
         25    1    4    4    0    0 -0.82738749077E+02  0.13057044097E+02  0.20110891078E+02  0.15188200367E+03  0.12509000000E+03 0.  0.
         25    1    4    4    0    0  0.22818128419E+01  0.16490951505E+02  0.19305510245E+02  0.12766114905E+03  0.12509000000E+03 0.  0.
<mgrwt>
<rscale>  2 0.44867670E+03</rscale>
<asrwt>0</asrwt>
<pdfrwt beam="1">  1       21 0.30227529E-01 0.44867670E+03</pdfrwt>
<pdfrwt beam="2">  1       21 0.36006969E-01 0.44867670E+03</pdfrwt>
<totfact> 0.72472425E+04</totfact>
</mgrwt>
</event>
<event>
 7    0  0.4748297E-002  0.4698073E+03  0.7546771E-02  0.1021975E+00
         21   -1    0    0  502  501  0.00000000000E+00  0.00000000000E+00  0.27317997494E+04  0.27317997494E+04  0.00000000000E+00 0. -1.
         21   -1    0    0  501  502 -0.00000000000E+00 -0.00000000000E+00 -0.20199035764E+02  0.20199035764E+02  0.00000000000E+00 0. -1.
      99926    2    1    2    0    0  0.88817841970E-15  0.00000000000E+00  0.27116007136E+04  0.27519987851E+04  0.46980728320E+03 0.  0.
      99925    2    3    3    0    0 -0.71871835319E+01 -0.11482352716E+03  0.19933602115E+04  0.20139249237E+04  0.26300678210E+03 0.  0.
         25    1    4    4    0    0  0.40738186911E+00 -0.93010436905E+02  0.12612093787E+04  0.12708059302E+04  0.12509000000E+03 0.  0.
         25    1    4    4    0    0 -0.75945654011E+01 -0.21813090251E+02  0.73215083285E+03  0.74311899348E+03  0.12509000000E+03 0.  0.
         25    1    3    3    0    0  0.71871835319E+01  0.11482352716E+03  0.71824050210E+03  0.73807386145E+03  0.12509000000E+03 0.  0.
<mgrwt>
<rscale>  2 0.46980728E+03</rscale>
<asrwt>0</asrwt>
<pdfrwt beam="1">  1       21 0.40173500E+00 0.46980728E+03</pdfrwt>
<pdfrwt beam="2">  1       21 0.29704483E-02 0.46980728E+03</pdfrwt>
<totfact> 0.43581459E+03</totfact>
</mgrwt>
</event>
<event>
 7    0  0.4748297E-002  0.4575550E+03  0.7546771E-02  0.1025493E+00
         21   -1    0    0  502  501  0.00000000000E+00  0.00000000000E+00  0.22796566851E+03  0.22796566851E+03  0.00000000000E+00 0.  1.
         21   -1    0    0  501  502 -0.00000000000E+00 -0.00000000000E+00 -0.22959225608E+03  0.22959225608E+03  0.00000000000E+00 0.  1.
      99926    2    1    2    0    0  0.00000000000E+00  0.00000000000E+00 -0.16265875702E+01  0.45755792459E+03  0.45755503338E+03 0.  0.
      99925    2    3    3    0    0  0.66039686345E+02  0.77115303096E+02  0.54100103552E+02  0.28708510462E+03  0.26302666395E+03 0.  0.
         25    1    3    3    0    0 -0.66039686345E+02 -0.77115303096E+02 -0.55726691122E+02  0.17047281997E+03  0.12509000000E+03 0.  0.
         25    1    4    4    0    0  0.52216571850E+02  0.73115772830E+02  0.46766120967E+02  0.16095671711E+03  0.12509000000E+03 0.  0.
         25    1    4    4    0    0  0.13823114495E+02  0.39995302669E+01  0.73339825849E+01  0.12612838752E+03  0.12509000000E+03 0.  0.
<mgrwt>
<rscale>  2 0.45755503E+03</rscale>
<asrwt>0</asrwt>
<pdfrwt beam="1">  1       21 0.33524363E-01 0.45755503E+03</pdfrwt>
<pdfrwt beam="2">  1       21 0.33763567E-01 0.45755503E+03</pdfrwt>
<totfact> 0.66982807E+04</totfact>
</mgrwt>
</event>
<event>
 7    0  0.4748297E-002  0.4541299E+03  0.7546771E-02  0.1026498E+00
         21   -1    0    0  502  501  0.00000000000E+00  0.00000000000E+00  0.21139022491E+03  0.21139022491E+03  0.00000000000E+00 0.  1.
         21   -1    0    0  501  502 -0.00000000000E+00 -0.00000000000E+00 -0.24390191329E+03  0.24390191329E+03  0.00000000000E+00 0.  1.
      99926    2    1    2    0    0  0.00000000000E+00  0.00000000000E+00 -0.32511688383E+02  0.45529213819E+03  0.45412985061E+03 0.  0.
      99925    2    3    3    0    0  0.99425115260E+02 -0.38620596979E+02 -0.55732828312E+02  0.28926914733E+03  0.26304673993E+03 0.  0.
         25    1    4    4    0    0  0.77273402708E+02 -0.38734854534E+02 -0.39972004214E+01  0.15210211515E+03  0.12509000000E+03 0.  0.
         25    1    3    3    0    0 -0.99425115260E+02  0.38620596979E+02  0.23221139929E+02  0.16602299086E+03  0.12509000000E+03 0.  0.
         25    1    4    4    0    0  0.22151712553E+02  0.11425755454E+00 -0.51735627891E+02  0.13716703218E+03  0.12509000000E+03 0.  0.
<mgrwt>
<rscale>  2 0.45412985E+03</rscale>
<asrwt>0</asrwt>
<pdfrwt beam="1">  1       21 0.31086798E-01 0.45412985E+03</pdfrwt>
<pdfrwt beam="2">  1       21 0.35867928E-01 0.45412985E+03</pdfrwt>
<totfact> 0.69002252E+04</totfact>
</mgrwt>
</event>
<event>
 7    0  0.4748297E-002  0.4307012E+03  0.7546771E-02  0.1033639E+00
         21   -1    0    0  502  501  0.00000000000E+00  0.00000000000E+00  0.18772975981E+03  0.18772975981E+03  0.00000000000E+00 0. -1.
         21   -1    0    0  501  502 -0.00000000000E+00 -0.00000000000E+00 -0.24703529829E+03  0.24703529829E+03  0.00000000000E+00 0. -1.
      99926    2    1    2    0    0  0.00000000000E+00  0.00000000000E+00 -0.59305538479E+02  0.43476505810E+03  0.43070118278E+03 0.  0.
      99925    2    3    3    0    0  0.79842049741E+02  0.18256645826E+02 -0.72014149707E+02  0.28470815248E+03  0.26299170388E+03 0.  0.
         25    1    4    4    0    0  0.36639974525E+02  0.33103543489E+02 -0.69801705067E+02  0.15151936660E+03  0.12509000000E+03 0.  0.
         25    1    4    4    0    0  0.43202075216E+02 -0.14846897663E+02 -0.22124446398E+01  0.13318878588E+03  0.12509000000E+03 0.  0.
         25    1    3    3    0    0 -0.79842049741E+02 -0.18256645826E+02  0.12708611228E+02  0.15005690562E+03  0.12509000000E+03 0.  0.
<mgrwt>
<rscale>  2 0.43070118E+03</rscale>
<asrwt>0</asrwt>
<pdfrwt beam="1">  1       21 0.27607318E-01 0.43070118E+03</pdfrwt>
<pdfrwt beam="2">  1       21 0.36328720E-01 0.43070118E+03</pdfrwt>
<totfact> 0.85457627E+04</totfact>
</mgrwt>
</event>
<event>
 7    0  0.4748297E-002  0.4598913E+03  0.7546771E-02  0.1024813E+00
         21   -1    0    0  502  501  0.00000000000E+00  0.00000000000E+00  0.18073342302E+03  0.18073342302E+03  0.00000000000E+00 0. -1.
         21   -1    0    0  501  502 -0.00000000000E+00 -0.00000000000E+00 -0.29255797945E+03  0.29255797945E+03  0.00000000000E+00 0. -1.
      99926    2    1    2    0    0  0.00000000000E+00  0.71054273576E-14 -0.11182455643E+03  0.47329140247E+03  0.45989131349E+03 0.  0.
      99925    2    3    3    0    0  0.99226170178E+02  0.51796754174E+02 -0.10875047314E+03  0.30540544511E+03  0.26252063519E+03 0.  0.
         25    1    4    4    0    0  0.27034507007E+02  0.43626818230E+02 -0.22738963204E+02  0.13710846942E+03  0.12509000000E+03 0.  0.
         25    1    3    3    0    0 -0.99226170178E+02 -0.51796754174E+02 -0.30740832908E+01  0.16788595736E+03  0.12509000000E+03 0.  0.
         25    1    4    4    0    0  0.72191663171E+02  0.81699359440E+01 -0.86011509936E+02  0.16829697569E+03  0.12509000000E+03 0.  0.
<mgrwt>
<rscale>  2 0.45989131E+03</rscale>
<asrwt>0</asrwt>
<pdfrwt beam="1">  1       21 0.26578445E-01 0.45989131E+03</pdfrwt>
<pdfrwt beam="2">  1       21 0.43023232E-01 0.45989131E+03</pdfrwt>
<totfact> 0.64646633E+04</totfact>
</mgrwt>
</event>
<event>
 7    0  0.4748297E-002  0.4549455E+03  0.7546771E-02  0.1026257E+00
         21   -1    0    0  502  501  0.00000000000E+00  0.00000000000E+00  0.32011501502E+03  0.32011501502E+03  0.00000000000E+00 0. -1.
         21   -1    0    0  501  502 -0.00000000000E+00 -0.00000000000E+00 -0.16164144888E+03  0.16164144888E+03  0.00000000000E+00 0. -1.
      99926    2    1    2    0    0  0.00000000000E+00  0.00000000000E+00  0.15847356614E+03  0.48175646391E+03  0.45494551251E+03 0.  0.
      99925    2    3    3    0    0  0.81033287794E+02 -0.74278175288E+02  0.12798095046E+03  0.31246101575E+03  0.26300023123E+03 0.  0.
         25    1    4    4    0    0  0.29078633447E+02 -0.24532568990E+02  0.20073875469E+02  0.13227956169E+03  0.12509000000E+03 0.  0.
         25    1    3    3    0    0 -0.81033287794E+02  0.74278175288E+02  0.30492615678E+02  0.16929544815E+03  0.12509000000E+03 0.  0.
         25    1    4    4    0    0  0.51954654348E+02 -0.49745606299E+02  0.10790707499E+03  0.18018145406E+03  0.12509000000E+03 0.  0.
<mgrwt>
<rscale>  2 0.45494551E+03</rscale>
<asrwt>0</asrwt>
<pdfrwt beam="1">  1       21 0.47075738E-01 0.45494551E+03</pdfrwt>
<pdfrwt beam="2">  1       21 0.23770801E-01 0.45494551E+03</pdfrwt>
<totfact> 0.66601265E+04</totfact>
</mgrwt>
</event>
<event>
 7    0  0.4748297E-002  0.4523344E+03  0.7546771E-02  0.1027028E+00
         21   -1    0    0  502  501  0.00000000000E+00  0.00000000000E+00  0.52823695106E+03  0.52823695106E+03  0.00000000000E+00 0.  1.
         21   -1    0    0  501  502 -0.00000000000E+00 -0.00000000000E+00 -0.96834595805E+02  0.96834595805E+02  0.00000000000E+00 0.  1.
      99926    2    1    2    0    0 -0.66613381478E-15  0.00000000000E+00  0.43140235525E+03  0.62507154686E+03  0.45233444107E+03 0.  0.
      99925    2    3    3    0    0 -0.19115455573E+01 -0.49631901827E+02  0.13566118675E+03  0.30014489893E+03  0.26308938230E+03 0.  0.
         25    1    4    4    0    0 -0.31024404928E+02 -0.52532759909E+02  0.66531239686E+02  0.15425990574E+03  0.12509000000E+03 0.  0.
         25    1    4    4    0    0  0.29112859370E+02  0.29008580822E+01  0.69129947061E+02  0.14588499319E+03  0.12509000000E+03 0.  0.
         25    1    3    3    0    0  0.19115455573E+01  0.49631901827E+02  0.29574116851E+03  0.32492664793E+03  0.12509000000E+03 0.  0.
<mgrwt>
<rscale>  2 0.45233444E+03</rscale>
<asrwt>0</asrwt>
<pdfrwt beam="1">  1       21 0.77681903E-01 0.45233444E+03</pdfrwt>
<pdfrwt beam="2">  1       21 0.14240382E-01 0.45233444E+03</pdfrwt>
<totfact> 0.58379926E+04</totfact>
</mgrwt>
</event>
<event>
 7    0  0.4748297E-002  0.4550378E+03  0.7546771E-02  0.1026230E+00
         21   -1    0    0  502  501  0.00000000000E+00  0.00000000000E+00  0.43889064532E+02  0.43889064532E+02  0.00000000000E+00 0. -1.
         21   -1    0    0  501  502 -0.00000000000E+00 -0.00000000000E+00 -0.11794474332E+04  0.11794474332E+04  0.00000000000E+00 0. -1.
      99926    2    1    2    0    0  0.00000000000E+00  0.00000000000E+00 -0.11355583687E+04  0.12233364978E+04  0.45503777649E+03 0.  0.
      99925    2    3    3    0    0  0.82180162853E+02 -0.72324160916E+02 -0.63763027168E+03  0.69839434731E+03  0.26305500865E+03 0.  0.
         25    1    4    4    0    0  0.22317307020E+02 -0.25743533592E+02 -0.21391185486E+03  0.25013312748E+03  0.12509000000E+03 0.  0.
         25    1    3    3    0    0 -0.82180162853E+02  0.72324160916E+02 -0.49792809701E+03  0.52494215044E+03  0.12509000000E+03 0.  0.
         25    1    4    4    0    0  0.59862855833E+02 -0.46580627324E+02 -0.42371841682E+03  0.44826121983E+03  0.12509000000E+03 0.  0.
<mgrwt>
<rscale>  2 0.45503778E+03</rscale>
<asrwt>0</asrwt>
<pdfrwt beam="1">  1       21 0.64542735E-02 0.45503778E+03</pdfrwt>
<pdfrwt beam="2">  1       21 0.17344817E+00 0.45503778E+03</pdfrwt>
<totfact> 0.31415650E+04</totfact>
</mgrwt>
</event>
<event>
 7    0  0.4748297E-002  0.4551463E+03  0.7546771E-02  0.1026198E+00
         21   -1    0    0  502  501  0.00000000000E+00  0.00000000000E+00  0.19926551904E+03  0.19926551904E+03  0.00000000000E+00 0. -1.
         21   -1    0    0  501  502 -0.00000000000E+00 -0.00000000000E+00 -0.25990216333E+03  0.25990216333E+03  0.00000000000E+00 0. -1.
      99926    2    1    2    0    0  0.00000000000E+00  0.00000000000E+00 -0.60636644290E+02  0.45916768237E+03  0.45514630384E+03 0.  0.
      99925    2    3    3    0    0 -0.24545483369E+02  0.11050498758E+03 -0.34532432192E+02  0.28845514322E+03  0.26305901950E+03 0.  0.
         25    1    4    4    0    0 -0.13369768427E+02  0.85932797540E+02  0.10702399116E+02  0.15272604836E+03  0.12509000000E+03 0.  0.
         25    1    4    4    0    0 -0.11175714942E+02  0.24572190040E+02 -0.45234831308E+02  0.13572909486E+03  0.12509000000E+03 0.  0.
         25    1    3    3    0    0  0.24545483369E+02 -0.11050498758E+03 -0.26104212098E+02  0.17071253915E+03  0.12509000000E+03 0.  0.
<mgrwt>
<rscale>  2 0.45514630E+03</rscale>
<asrwt>0</asrwt>
<pdfrwt beam="1">  1       21 0.29303753E-01 0.45514630E+03</pdfrwt>
<pdfrwt beam="2">  1       21 0.38220906E-01 0.45514630E+03</pdfrwt>
<totfact> 0.68161701E+04</totfact>
</mgrwt>
</event>
<event>
 7    0  0.4748297E-002  0.4539432E+03  0.7546771E-02  0.1026553E+00
         21   -1    0    0  502  501  0.00000000000E+00  0.00000000000E+00  0.55676910942E+02  0.55676910942E+02  0.00000000000E+00 0. -1.
         21   -1    0    0  501  502 -0.00000000000E+00 -0.00000000000E+00 -0.92526866326E+03  0.92526866326E+03  0.00000000000E+00 0. -1.
      99926    2    1    2    0    0  0.71054273576E-14  0.00000000000E+00 -0.86959175232E+03  0.98094557421E+03  0.45394317249E+03 0.  0.
      99925    2    3    3    0    0  0.35772940193E+02 -0.55738178779E+02 -0.74320792281E+03  0.79119092134E+03  0.26313230446E+03 0.  0.
         25    1    3    3    0    0 -0.35772940193E+02  0.55738178779E+02 -0.12638382951E+03  0.18975465287E+03  0.12509000000E+03 0.  0.
         25    1    4    4    0    0  0.45073814237E+02 -0.29190602838E+02 -0.29295118959E+03  0.32303505631E+03  0.12509000000E+03 0.  0.
         25    1    4    4    0    0 -0.93008740439E+01 -0.26547575942E+02 -0.45025673323E+03  0.46815586503E+03  0.12509000000E+03 0.  0.
<mgrwt>
<rscale>  2 0.45394317E+03</rscale>
<asrwt>0</asrwt>
<pdfrwt beam="1">  1       21 0.81877805E-02 0.45394317E+03</pdfrwt>
<pdfrwt beam="2">  1       21 0.13606893E+00 0.45394317E+03</pdfrwt>
<totfact> 0.40243753E+04</totfact>
</mgrwt>
</event>
<event>
 7    0  0.4748297E-002  0.4556477E+03  0.7546771E-02  0.1026051E+00
         21   -1    0    0  502  501  0.00000000000E+00  0.00000000000E+00  0.12941719218E+03  0.12941719218E+03  0.00000000000E+00 0.  1.
         21   -1    0    0  501  502 -0.00000000000E+00 -0.00000000000E+00 -0.40105725316E+03  0.40105725316E+03  0.00000000000E+00 0.  1.
      99926    2    1    2    0    0  0.71054273576E-14  0.00000000000E+00 -0.27164006097E+03  0.53047444534E+03  0.45564768674E+03 0.  0.
      99925    2    3    3    0    0  0.35393238686E+02  0.10412870734E+03 -0.13594015138E+03  0.31563161302E+03  0.26277009217E+03 0.  0.
         25    1    3    3    0    0 -0.35393238686E+02 -0.10412870734E+03 -0.13569990959E+03  0.21484283232E+03  0.12509000000E+03 0.  0.
         25    1    4    4    0    0  0.19997888480E+02  0.62116857388E+02 -0.11311412193E+03  0.18083343772E+03  0.12509000000E+03 0.  0.
         25    1    4    4    0    0  0.15395350206E+02  0.42011849953E+02 -0.22826029450E+02  0.13479817530E+03  0.12509000000E+03 0.  0.
<mgrwt>
<rscale>  2 0.45564769E+03</rscale>
<asrwt>0</asrwt>
<pdfrwt beam="1">  1       21 0.19031940E-01 0.45564769E+03</pdfrwt>
<pdfrwt beam="2">  1       21 0.58979009E-01 0.45564769E+03</pdfrwt>
<totfact> 0.62851153E+04</totfact>
</mgrwt>
</event>
<event>
 7    0  0.4748297E-002  0.4519375E+03  0.7546771E-02  0.1027146E+00
         21   -1    0    0  502  501  0.00000000000E+00  0.00000000000E+00  0.48380843301E+02  0.48380843301E+02  0.00000000000E+00 0.  1.
         21   -1    0    0  501  502 -0.00000000000E+00 -0.00000000000E+00 -0.10554149938E+04  0.10554149938E+04  0.00000000000E+00 0.  1.
      99926    2    1    2    0    0  0.00000000000E+00  0.26645352591E-14 -0.10070341505E+04  0.11037958371E+04  0.45193746219E+03 0.  0.
      99925    2    3    3    0    0  0.15500332999E+02  0.78781183750E+01 -0.90146558402E+03  0.93919159839E+03  0.26294169361E+03 0.  0.
         25    1    4    4    0    0  0.23207985118E+02 -0.28185197638E+02 -0.38235752682E+03  0.40395272292E+03  0.12509000000E+03 0.  0.
         25    1    3    3    0    0 -0.15500332999E+02 -0.78781183750E+01 -0.10556856647E+03  0.16460423870E+03  0.12509000000E+03 0.  0.
         25    1    4    4    0    0 -0.77076521189E+01  0.36063316013E+02 -0.51910805720E+03  0.53523887547E+03  0.12509000000E+03 0.  0.
<mgrwt>
<rscale>  2 0.45193746E+03</rscale>
<asrwt>0</asrwt>
<pdfrwt beam="1">  1       21 0.71148303E-02 0.45193746E+03</pdfrwt>
<pdfrwt beam="2">  1       21 0.15520808E+00 0.45193746E+03</pdfrwt>
<totfact> 0.36220087E+04</totfact>
</mgrwt>
</event>
<event>
 7    0  0.4748297E-002  0.4552778E+03  0.7546771E-02  0.1026160E+00
         21   -1    0    0  502  501  0.00000000000E+00  0.00000000000E+00  0.37641408285E+03  0.37641408285E+03  0.00000000000E+00 0.  1.
         21   -1    0    0  501  502 -0.00000000000E+00 -0.00000000000E+00 -0.13766612754E+03  0.13766612754E+03  0.00000000000E+00 0.  1.
      99926    2    1    2    0    0  0.00000000000E+00  0.00000000000E+00  0.23874795531E+03  0.51408021039E+03  0.45527780151E+03 0.  0.
      99925    2    3    3    0    0  0.68130869939E+02  0.87282756308E+02  0.17758076279E+03  0.33617847198E+03  0.26309873189E+03 0.  0.
         25    1    4    4    0    0  0.80446650318E+00  0.40770740377E+02  0.11265239127E+03  0.17320788030E+03  0.12509000000E+03 0.  0.
         25    1    3    3    0    0 -0.68130869939E+02 -0.87282756308E+02  0.61167192520E+02  0.17790173841E+03  0.12509000000E+03 0.  0.
         25    1    4    4    0    0  0.67326403436E+02  0.46512015931E+02  0.64928371518E+02  0.16297059168E+03  0.12509000000E+03 0.  0.
<mgrwt>
<rscale>  2 0.45527780E+03</rscale>
<asrwt>0</asrwt>
<pdfrwt beam="1">  1       21 0.55355012E-01 0.45527780E+03</pdfrwt>
<pdfrwt beam="2">  1       21 0.20245019E-01 0.45527780E+03</pdfrwt>
<totfact> 0.64150845E+04</totfact>
</mgrwt>
</event>
<event>
 7    0  0.4748297E-002  0.4578646E+03  0.7546771E-02  0.1025402E+00
         21   -1    0    0  502  501  0.00000000000E+00  0.00000000000E+00  0.93675223923E+03  0.93675223923E+03  0.00000000000E+00 0.  1.
         21   -1    0    0  501  502 -0.00000000000E+00 -0.00000000000E+00 -0.55948625213E+02  0.55948625213E+02  0.00000000000E+00 0.  1.
      99926    2    1    2    0    0  0.00000000000E+00  0.00000000000E+00  0.88080361401E+03  0.99270086444E+03  0.45786460859E+03 0.  0.
      99925    2    3    3    0    0 -0.17030273976E+02 -0.65421543909E+02  0.34912964981E+03  0.44234214419E+03  0.26306853007E+03 0.  0.
         25    1    4    4    0    0 -0.45050319212E+02 -0.38017042179E+02  0.15077987424E+03  0.20458960221E+03  0.12509000000E+03 0.  0.
         25    1    3    3    0    0  0.17030273976E+02  0.65421543909E+02  0.53167396421E+03  0.55035872025E+03  0.12509000000E+03 0.  0.
         25    1    4    4    0    0  0.28020045236E+02 -0.27404501730E+02  0.19834977556E+03  0.23775254198E+03  0.12509000000E+03 0.  0.
<mgrwt>
<rscale>  2 0.45786461E+03</rscale>
<asrwt>0</asrwt>
<pdfrwt beam="1">  1       21 0.13775767E+00 0.45786461E+03</pdfrwt>
<pdfrwt beam="2">  1       21 0.82277395E-02 0.45786461E+03</pdfrwt>
<totfact> 0.38581388E+04</totfact>
</mgrwt>
</event>
<event>
 7    0  0.4748297E-002  0.4555915E+03  0.7546771E-02  0.1026068E+00
         21   -1    0    0  502  501  0.00000000000E+00  0.00000000000E+00  0.98838403307E+03  0.98838403307E+03  0.00000000000E+00 0. -1.
         21   -1    0    0  501  502 -0.00000000000E+00 -0.00000000000E+00 -0.52500752451E+02  0.52500752451E+02  0.00000000000E+00 0. -1.
      99926    2    1    2    0    0  0.00000000000E+00  0.00000000000E+00  0.93588328062E+03  0.10408847855E+04  0.45559150759E+03 0.  0.
      99925    2    3    3    0    0 -0.35165569721E+02  0.10425043690E+03  0.65434677289E+03  0.71375318483E+03  0.26300026383E+03 0.  0.
         25    1    4    4    0    0  0.16544164446E+02  0.73967503700E+02  0.32542666176E+03  0.35678413819E+03  0.12509000000E+03 0.  0.
         25    1    4    4    0    0 -0.51709734167E+02  0.30282933202E+02  0.32892011114E+03  0.35696904664E+03  0.12509000000E+03 0.  0.
         25    1    3    3    0    0  0.35165569721E+02 -0.10425043690E+03  0.28153650772E+03  0.32713160069E+03  0.12509000000E+03 0.  0.
<mgrwt>
<rscale>  2 0.45559151E+03</rscale>
<asrwt>0</asrwt>
<pdfrwt beam="1">  1       21 0.14535058E+00 0.45559151E+03</pdfrwt>
<pdfrwt beam="2">  1       21 0.77206995E-02 0.45559151E+03</pdfrwt>
<totfact> 0.37440473E+04</totfact>
</mgrwt>
</event>
<event>
 7    0  0.4748297E-002  0.4564148E+03  0.7546771E-02  0.1025826E+00
         21   -1    0    0  502  501  0.00000000000E+00  0.00000000000E+00  0.30989199125E+03  0.30989199125E+03  0.00000000000E+00 0.  1.
         21   -1    0    0  501  502 -0.00000000000E+00 -0.00000000000E+00 -0.16805412929E+03  0.16805412929E+03  0.00000000000E+00 0.  1.
      99926    2    1    2    0    0 -0.17763568394E-14  0.00000000000E+00  0.14183786196E+03  0.47794612054E+03  0.45641484973E+03 0.  0.
      99925    2    3    3    0    0  0.93289666469E+01 -0.52869569778E+02  0.19522153029E+03  0.33172866203E+03  0.26277412030E+03 0.  0.
         25    1    3    3    0    0 -0.93289666469E+01  0.52869569778E+02 -0.53383668333E+02  0.14621745851E+03  0.12509000000E+03 0.  0.
         25    1    4    4    0    0  0.25295455006E+02 -0.74240276601E+01  0.13119284708E+03  0.18317763907E+03  0.12509000000E+03 0.  0.
         25    1    4    4    0    0 -0.15966488359E+02 -0.45445542118E+02  0.64028683209E+02  0.14855102296E+03  0.12509000000E+03 0.  0.
<mgrwt>
<rscale>  2 0.45641485E+03</rscale>
<asrwt>0</asrwt>
<pdfrwt beam="1">  1       21 0.45572352E-01 0.45641485E+03</pdfrwt>
<pdfrwt beam="2">  1       21 0.24713842E-01 0.45641485E+03</pdfrwt>
<totfact> 0.66104490E+04</totfact>
</mgrwt>
</event>
<event>
 7    0  0.4748297E-002  0.4642720E+03  0.7546771E-02  0.1023549E+00
         21   -1    0    0  502  501  0.00000000000E+00  0.00000000000E+00  0.46791184590E+02  0.46791184590E+02  0.00000000000E+00 0.  1.
         21   -1    0    0  501  502 -0.00000000000E+00 -0.00000000000E+00 -0.11516510525E+04  0.11516510525E+04  0.00000000000E+00 0.  1.
      99926    2    1    2    0    0 -0.14210854715E-13  0.00000000000E+00 -0.11048598679E+04  0.11984422370E+04  0.46427197623E+03 0.  0.
      99925    2    3    3    0    0  0.87129453795E+02 -0.85208192562E+02 -0.69803906568E+03  0.75572037064E+03  0.26268377109E+03 0.  0.
         25    1    4    4    0    0  0.23318637039E+01 -0.44455516021E+02 -0.33699450105E+03  0.36220785791E+03  0.12509000000E+03 0.  0.
         25    1    3    3    0    0 -0.87129453795E+02  0.85208192562E+02 -0.40682080219E+03  0.44272186640E+03  0.12509000000E+03 0.  0.
         25    1    4    4    0    0  0.84797590091E+02 -0.40752676541E+02 -0.36104456463E+03  0.39351251273E+03  0.12509000000E+03 0.  0.
<mgrwt>
<rscale>  2 0.46427198E+03</rscale>
<asrwt>0</asrwt>
<pdfrwt beam="1">  1       21 0.68810571E-02 0.46427198E+03</pdfrwt>
<pdfrwt beam="2">  1       21 0.16936044E+00 0.46427198E+03</pdfrwt>
<totfact> 0.29980614E+04</totfact>
</mgrwt>
</event>
<event>
 7    0  0.4748297E-002  0.4348369E+03  0.7546771E-02  0.1032343E+00
         21   -1    0    0  502  501  0.00000000000E+00  0.00000000000E+00  0.21037515488E+03  0.21037515488E+03  0.00000000000E+00 0. -1.
         21   -1    0    0  501  502 -0.00000000000E+00 -0.00000000000E+00 -0.22469759584E+03  0.22469759584E+03  0.00000000000E+00 0. -1.
      99926    2    1    2    0    0  0.00000000000E+00 -0.88817841970E-15 -0.14322440953E+02  0.43507275072E+03  0.43483694197E+03 0.  0.
      99925    2    3    3    0    0 -0.80574867313E+02  0.61128186548E+01 -0.55270051756E+02  0.28062570243E+03  0.26299492476E+03 0.  0.
         25    1    3    3    0    0  0.80574867313E+02 -0.61128186548E+01  0.40947610803E+02  0.15444704829E+03  0.12509000000E+03 0.  0.
         25    1    4    4    0    0 -0.69498210745E+02  0.14043854788E+02 -0.15159280638E+01  0.14379512263E+03  0.12509000000E+03 0.  0.
         25    1    4    4    0    0 -0.11076656569E+02 -0.79310361331E+01 -0.53754123692E+02  0.13683057980E+03  0.12509000000E+03 0.  0.
<mgrwt>
<rscale>  2 0.43483694E+03</rscale>
<asrwt>0</asrwt>
<pdfrwt beam="1">  1       21 0.30937523E-01 0.43483694E+03</pdfrwt>
<pdfrwt beam="2">  1       21 0.33043764E-01 0.43483694E+03</pdfrwt>
<totfact> 0.82530551E+04</totfact>
</mgrwt>
</event>
<event>
 7    0  0.4748297E-002  0.4571462E+03  0.7546771E-02  0.1025612E+00
         21   -1    0    0  502  501  0.00000000000E+00  0.00000000000E+00  0.11499681064E+04  0.11499681064E+04  0.00000000000E+00 0. -1.
         21   -1    0    0  501  502 -0.00000000000E+00 -0.00000000000E+00 -0.45432279727E+02  0.45432279727E+02  0.00000000000E+00 0. -1.
      99926    2    1    2    0    0  0.00000000000E+00  0.00000000000E+00  0.11045358267E+04  0.11954003861E+04  0.45714624656E+03 0.  0.
      99925    2    3    3    0    0  0.83192023977E+02 -0.78649869209E+02  0.72613807038E+03  0.78074500530E+03  0.26302005867E+03 0.  0.
         25    1    3    3    0    0 -0.83192023977E+02  0.78649869209E+02  0.37839775627E+03  0.41465538081E+03  0.12509000000E+03 0.  0.
         25    1    4    4    0    0  0.36031253260E+02 -0.20489104033E+02  0.44432955266E+03  0.46345907485E+03  0.12509000000E+03 0.  0.
         25    1    4    4    0    0  0.47160770718E+02 -0.58160765176E+02  0.28180851772E+03  0.31728593045E+03  0.12509000000E+03 0.  0.
<mgrwt>
<rscale>  2 0.45714625E+03</rscale>
<asrwt>0</asrwt>
<pdfrwt beam="1">  1       21 0.16911294E+00 0.45714625E+03</pdfrwt>
<pdfrwt beam="2">  1       21 0.66812183E-02 0.45714625E+03</pdfrwt>
<totfact> 0.31767585E+04</totfact>
</mgrwt>
</event>
<event>
 7    0  0.4748297E-002  0.4527728E+03  0.7546771E-02  0.1026898E+00
         21   -1    0    0  502  501  0.00000000000E+00  0.00000000000E+00  0.16275905818E+03  0.16275905818E+03  0.00000000000E+00 0. -1.
         21   -1    0    0  501  502 -0.00000000000E+00 -0.00000000000E+00 -0.31488761863E+03  0.31488761863E+03  0.00000000000E+00 0. -1.
      99926    2    1    2    0    0  0.00000000000E+00  0.00000000000E+00 -0.15212856045E+03  0.47764667681E+03  0.45277284477E+03 0.  0.
      99925    2    3    3    0    0 -0.16387035078E+02  0.81713770477E+02 -0.17342062157E+03  0.32583582354E+03  0.26296120761E+03 0.  0.
         25    1    3    3    0    0  0.16387035078E+02 -0.81713770477E+02  0.21292061115E+02  0.15181085327E+03  0.12509000000E+03 0.  0.
         25    1    4    4    0    0 -0.47324089355E+02  0.41822496725E+02 -0.75721962420E+02  0.15927967340E+03  0.12509000000E+03 0.  0.
         25    1    4    4    0    0  0.30937054277E+02  0.39891273752E+02 -0.97698659148E+02  0.16655615014E+03  0.12509000000E+03 0.  0.
<mgrwt>
<rscale>  2 0.45277284E+03</rscale>
<asrwt>0</asrwt>
<pdfrwt beam="1">  1       21 0.23935156E-01 0.45277284E+03</pdfrwt>
<pdfrwt beam="2">  1       21 0.46307002E-01 0.45277284E+03</pdfrwt>
<totfact> 0.68067109E+04</totfact>
</mgrwt>
</event>
<event>
 7    0  0.4748297E-002  0.4527467E+03  0.7546771E-02  0.1026906E+00
         21   -1    0    0  502  501  0.00000000000E+00  0.00000000000E+00  0.35359660559E+03  0.35359660559E+03  0.00000000000E+00 0.  1.
         21   -1    0    0  501  502 -0.00000000000E+00 -0.00000000000E+00 -0.14492474400E+03  0.14492474400E+03  0.00000000000E+00 0.  1.
      99926    2    1    2    0    0  0.00000000000E+00  0.00000000000E+00  0.20867186159E+03  0.49852134959E+03  0.45274671746E+03 0.  0.
      99925    2    3    3    0    0  0.94018689044E+02 -0.21874412076E+02  0.71793003575E+02  0.28947271011E+03  0.26329111406E+03 0.  0.
         25    1    4    4    0    0  0.73908690265E+02  0.16859858912E+02  0.53431136970E+02  0.15572136603E+03  0.12509000000E+03 0.  0.
         25    1    4    4    0    0  0.20109998779E+02 -0.38734270988E+02  0.18361866605E+02  0.13375134409E+03  0.12509000000E+03 0.  0.
         25    1    3    3    0    0 -0.94018689044E+02  0.21874412076E+02  0.13687885802E+03  0.20904863947E+03  0.12509000000E+03 0.  0.
<mgrwt>
<rscale>  2 0.45274672E+03</rscale>
<asrwt>0</asrwt>
<pdfrwt beam="1">  1       21 0.51999501E-01 0.45274672E+03</pdfrwt>
<pdfrwt beam="2">  1       21 0.21312462E-01 0.45274672E+03</pdfrwt>
<totfact> 0.66557212E+04</totfact>
</mgrwt>
</event>
<event>
 7    0  0.4748297E-002  0.4516297E+03  0.7546771E-02  0.1027237E+00
         21   -1    0    0  502  501  0.00000000000E+00  0.00000000000E+00  0.35006644287E+03  0.35006644287E+03  0.00000000000E+00 0. -1.
         21   -1    0    0  501  502 -0.00000000000E+00 -0.00000000000E+00 -0.14566475758E+03  0.14566475758E+03  0.00000000000E+00 0. -1.
      99926    2    1    2    0    0  0.00000000000E+00  0.00000000000E+00  0.20440168529E+03  0.49573120045E+03  0.45162968697E+03 0.  0.
      99925    2    3    3    0    0 -0.54326985894E+02 -0.95510068196E+02  0.13633505472E+03  0.31585855434E+03  0.26287979131E+03 0.  0.
         25    1    4    4    0    0 -0.14876269358E+01 -0.51055594086E+02  0.31771501112E+02  0.13880138005E+03  0.12509000000E+03 0.  0.
         25    1    3    3    0    0  0.54326985894E+02  0.95510068196E+02  0.68066630565E+02  0.17987264611E+03  0.12509000000E+03 0.  0.
         25    1    4    4    0    0 -0.52839358958E+02 -0.44454474110E+02  0.10456355361E+03  0.17705717429E+03  0.12509000000E+03 0.  0.
<mgrwt>
<rscale>  2 0.45162969E+03</rscale>
<asrwt>0</asrwt>
<pdfrwt beam="1">  1       21 0.51480359E-01 0.45162969E+03</pdfrwt>
<pdfrwt beam="2">  1       21 0.21421288E-01 0.45162969E+03</pdfrwt>
<totfact> 0.67355724E+04</totfact>
</mgrwt>
</event>
<event>
 7    0  0.4748297E-002  0.4522156E+03  0.7546771E-02  0.1027063E+00
         21   -1    0    0  502  501  0.00000000000E+00  0.00000000000E+00  0.78156565818E+02  0.78156565818E+02  0.00000000000E+00 0.  1.
         21   -1    0    0  501  502 -0.00000000000E+00 -0.00000000000E+00 -0.65413245675E+03  0.65413245675E+03  0.00000000000E+00 0.  1.
      99926    2    1    2    0    0  0.00000000000E+00  0.00000000000E+00 -0.57597589093E+03  0.73228902257E+03  0.45221564064E+03 0.  0.
      99925    2    3    3    0    0  0.64683921937E+02  0.46354119001E+02 -0.48769000426E+03  0.55973578443E+03  0.26292564350E+03 0.  0.
         25    1    4    4    0    0  0.81707586966E+01  0.52131748689E+02 -0.27215190474E+03  0.30413590362E+03  0.12509000000E+03 0.  0.
         25    1    4    4    0    0  0.56513163240E+02 -0.57776296874E+01 -0.21553809953E+03  0.25559988081E+03  0.12509000000E+03 0.  0.
         25    1    3    3    0    0 -0.64683921937E+02 -0.46354119001E+02 -0.88285886667E+02  0.17255323813E+03  0.12509000000E+03 0.  0.
<mgrwt>
<rscale>  2 0.45221564E+03</rscale>
<asrwt>0</asrwt>
<pdfrwt beam="1">  1       21 0.11493612E-01 0.45221564E+03</pdfrwt>
<pdfrwt beam="2">  1       21 0.96195953E-01 0.45221564E+03</pdfrwt>
<totfact> 0.52320825E+04</totfact>
</mgrwt>
</event>
<event>
 7    0  0.4748297E-002  0.4588224E+03  0.7546771E-02  0.1025123E+00
         21   -1    0    0  502  501  0.00000000000E+00  0.00000000000E+00  0.11390548624E+03  0.11390548624E+03  0.00000000000E+00 0. -1.
         21   -1    0    0  501  502 -0.00000000000E+00 -0.00000000000E+00 -0.46204543076E+03  0.46204543076E+03  0.00000000000E+00 0. -1.
      99926    2    1    2    0    0  0.71054273576E-14  0.14210854715E-13 -0.34813994452E+03  0.57595091700E+03  0.45882244695E+03 0.  0.
      99925    2    3    3    0    0 -0.31174614340E+02 -0.11111521099E+03 -0.23973950236E+03  0.37416734320E+03  0.26307361144E+03 0.  0.
         25    1    4    4    0    0  0.14877504620E+02 -0.59608386109E+02 -0.15319554927E+03  0.20710114498E+03  0.12509000000E+03 0.  0.
         25    1    4    4    0    0 -0.46052118960E+02 -0.51506824885E+02 -0.86543953094E+02  0.16706619822E+03  0.12509000000E+03 0.  0.
         25    1    3    3    0    0  0.31174614340E+02  0.11111521099E+03 -0.10840044216E+03  0.20178357380E+03  0.12509000000E+03 0.  0.
<mgrwt>
<rscale>  2 0.45882245E+03</rscale>
<asrwt>0</asrwt>
<pdfrwt beam="1">  1       21 0.16750807E-01 0.45882245E+03</pdfrwt>
<pdfrwt beam="2">  1       21 0.67947858E-01 0.45882245E+03</pdfrwt>
<totfact> 0.58398440E+04</totfact>
</mgrwt>
</event>
<event>
 7    0  0.4748297E-002  0.4425636E+03  0.7546771E-02  0.1029963E+00
         21   -1    0    0  502  501  0.00000000000E+00  0.00000000000E+00  0.56159037822E+03  0.56159037822E+03  0.00000000000E+00 0.  1.
         21   -1    0    0  501  502 -0.00000000000E+00 -0.00000000000E+00 -0.87191004519E+02  0.87191004519E+02  0.00000000000E+00 0.  1.
      99926    2    1    2    0    0  0.14210854715E-13  0.71054273576E-14  0.47439937370E+03  0.64878138274E+03  0.44256357376E+03 0.  0.
      99925    2    3    3    0    0  0.87346754828E+02  0.49033358940E+02  0.32176942182E+03  0.42747359666E+03  0.26299123399E+03 0.  0.
         25    1    4    4    0    0  0.65007322949E+02 -0.92418612758E+01  0.17240225826E+03  0.22289327220E+03  0.12509000000E+03 0.  0.
         25    1    4    4    0    0  0.22339431879E+02  0.58275220215E+02  0.14936716356E+03  0.20458032446E+03  0.12509000000E+03 0.  0.
         25    1    3    3    0    0 -0.87346754828E+02 -0.49033358940E+02  0.15262995188E+03  0.22130778608E+03  0.12509000000E+03 0.  0.
<mgrwt>
<rscale>  2 0.44256357E+03</rscale>
<asrwt>0</asrwt>
<pdfrwt beam="1">  1       21 0.82586819E-01 0.44256357E+03</pdfrwt>
<pdfrwt beam="2">  1       21 0.12822207E-01 0.44256357E+03</pdfrwt>
<totfact> 0.61595200E+04</totfact>
</mgrwt>
</event>
<event>
 7    0  0.4748297E-002  0.4619629E+03  0.7546771E-02  0.1024213E+00
         21   -1    0    0  502  501  0.00000000000E+00  0.00000000000E+00  0.94075392770E+03  0.94075392770E+03  0.00000000000E+00 0.  1.
         21   -1    0    0  501  502 -0.00000000000E+00 -0.00000000000E+00 -0.56712410811E+02  0.56712410811E+02  0.00000000000E+00 0.  1.
      99926    2    1    2    0    0  0.00000000000E+00  0.00000000000E+00  0.88404151689E+03  0.99746633851E+03  0.46196286959E+03 0.  0.
      99925    2    3    3    0    0  0.11385019648E+03 -0.33897215503E+02  0.58176222038E+03  0.64942730384E+03  0.26305446861E+03 0.  0.
         25    1    4    4    0    0  0.73263564588E+02  0.96004001238E+01  0.23843290441E+03  0.27920865958E+03  0.12509000000E+03 0.  0.
         25    1    3    3    0    0 -0.11385019648E+03  0.33897215503E+02  0.30227929651E+03  0.34803903467E+03  0.12509000000E+03 0.  0.
         25    1    4    4    0    0  0.40586631889E+02 -0.43497615626E+02  0.34332931598E+03  0.37021864427E+03  0.12509000000E+03 0.  0.
<mgrwt>
<rscale>  2 0.46196287E+03</rscale>
<asrwt>0</asrwt>
<pdfrwt beam="1">  1       21 0.13834616E+00 0.46196287E+03</pdfrwt>
<pdfrwt beam="2">  1       21 0.83400610E-02 0.46196287E+03</pdfrwt>
<totfact> 0.37200911E+04</totfact>
</mgrwt>
</event>
<event>
 7    0  0.4748297E-002  0.4553752E+03  0.7546771E-02  0.1026131E+00
         21   -1    0    0  502  501  0.00000000000E+00  0.00000000000E+00  0.37673720008E+03  0.37673720008E+03  0.00000000000E+00 0.  1.
         21   -1    0    0  501  502 -0.00000000000E+00 -0.00000000000E+00 -0.13760690494E+03  0.13760690494E+03  0.00000000000E+00 0.  1.
      99926    2    1    2    0    0 -0.71054273576E-14  0.00000000000E+00  0.23913029514E+03  0.51434410502E+03  0.45537518632E+03 0.  0.
      99925    2    3    3    0    0 -0.63754324179E+02  0.27200625853E+02  0.48753095834E+02  0.27623599090E+03  0.26291628024E+03 0.  0.
         25    1    4    4    0    0 -0.16544327832E+02 -0.22736512776E+02  0.34688233652E+02  0.13282110318E+03  0.12509000000E+03 0.  0.
         25    1    3    3    0    0  0.63754324179E+02 -0.27200625853E+02  0.19037719930E+03  0.23810811413E+03  0.12509000000E+03 0.  0.
         25    1    4    4    0    0 -0.47209996347E+02  0.49937138629E+02  0.14064862182E+02  0.14341488771E+03  0.12509000000E+03 0.  0.
<mgrwt>
<rscale>  2 0.45537519E+03</rscale>
<asrwt>0</asrwt>
<pdfrwt beam="1">  1       21 0.55402529E-01 0.45537519E+03</pdfrwt>
<pdfrwt beam="2">  1       21 0.20236310E-01 0.45537519E+03</pdfrwt>
<totfact> 0.64083242E+04</totfact>
</mgrwt>
</event>
<event>
 7    0  0.4748297E-002  0.4561695E+03  0.7546771E-02  0.1025898E+00
         21   -1    0    0  502  501  0.00000000000E+00  0.00000000000E+00  0.11397149709E+04  0.11397149709E+04  0.00000000000E+00 0.  1.
         21   -1    0    0  501  502 -0.00000000000E+00 -0.00000000000E+00 -0.45645315498E+02  0.45645315498E+02  0.00000000000E+00 0.  1.
      99926    2    1    2    0    0  0.35527136788E-14  0.00000000000E+00  0.10940696554E+04  0.11853602864E+04  0.45616948351E+03 0.  0.
      99925    2    3    3    0    0  0.21092859682E+02 -0.74541382976E+02  0.90609026884E+03  0.94664479804E+03  0.26293625057E+03 0.  0.
         25    1    4    4    0    0  0.36295249062E+02 -0.70326609236E+02  0.49279281945E+03  0.51454392239E+03  0.12509000000E+03 0.  0.
         25    1    4    4    0    0 -0.15202389380E+02 -0.42147737402E+01  0.41329744939E+03  0.43210087565E+03  0.12509000000E+03 0.  0.
         25    1    3    3    0    0 -0.21092859682E+02  0.74541382976E+02  0.18797938652E+03  0.23871548831E+03  0.12509000000E+03 0.  0.
<mgrwt>
<rscale>  2 0.45616948E+03</rscale>
<asrwt>0</asrwt>
<pdfrwt beam="1">  1       21 0.16760512E+00 0.45616948E+03</pdfrwt>
<pdfrwt beam="2">  1       21 0.67125471E-02 0.45616948E+03</pdfrwt>
<totfact> 0.32327863E+04</totfact>
</mgrwt>
</event>
<event>
 7    0  0.4748297E-002  0.4515699E+03  0.7546771E-02  0.1027255E+00
         21   -1    0    0  502  501  0.00000000000E+00  0.00000000000E+00  0.68985922654E+03  0.68985922654E+03  0.00000000000E+00 0.  1.
         21   -1    0    0  501  502 -0.00000000000E+00 -0.00000000000E+00 -0.73897456495E+02  0.73897456495E+02  0.00000000000E+00 0.  1.
      99926    2    1    2    0    0  0.00000000000E+00  0.14210854715E-13  0.61596177005E+03  0.76375668304E+03  0.45156989351E+03 0.  0.
      99925    2    3    3    0    0  0.38193305701E+02 -0.77833067162E+02  0.27432365116E+03  0.38975022946E+03  0.26293546895E+03 0.  0.
         25    1    3    3    0    0 -0.38193305701E+02  0.77833067162E+02  0.34163811888E+03  0.37400645358E+03  0.12509000000E+03 0.  0.
         25    1    4    4    0    0  0.19947776443E+02 -0.45935283894E+02  0.19537826870E+03  0.23733550107E+03  0.12509000000E+03 0.  0.
         25    1    4    4    0    0  0.18245529258E+02 -0.31897783269E+02  0.78945382469E+02  0.15241472838E+03  0.12509000000E+03 0.  0.
<mgrwt>
<rscale>  2 0.45156989E+03</rscale>
<asrwt>0</asrwt>
<pdfrwt beam="1">  1       21 0.10144988E+00 0.45156989E+03</pdfrwt>
<pdfrwt beam="2">  1       21 0.10867273E-01 0.45156989E+03</pdfrwt>
<totfact> 0.50925161E+04</totfact>
</mgrwt>
</event>
<event>
 7    0  0.4748297E-002  0.4547787E+03  0.7546771E-02  0.1026307E+00
         21   -1    0    0  502  501  0.00000000000E+00  0.00000000000E+00  0.75498801655E+03  0.75498801655E+03  0.00000000000E+00 0.  1.
         21   -1    0    0  501  502 -0.00000000000E+00 -0.00000000000E+00 -0.68485738997E+02  0.68485738997E+02  0.00000000000E+00 0.  1.
      99926    2    1    2    0    0  0.35527136788E-14  0.00000000000E+00  0.68650227756E+03  0.82347375555E+03  0.45477868133E+03 0.  0.
      99925    2    3    3    0    0  0.20615954672E+02 -0.55865123024E+02  0.25836378433E+03  0.37347819220E+03  0.26303647168E+03 0.  0.
         25    1    4    4    0    0  0.49266527585E+02 -0.39395481854E+02  0.12684938168E+03  0.18899065708E+03  0.12509000000E+03 0.  0.
         25    1    4    4    0    0 -0.28650572913E+02 -0.16469641170E+02  0.13151440266E+03  0.18448753512E+03  0.12509000000E+03 0.  0.
         25    1    3    3    0    0 -0.20615954672E+02  0.55865123024E+02  0.42813849322E+03  0.44999556335E+03  0.12509000000E+03 0.  0.
<mgrwt>
<rscale>  2 0.45477868E+03</rscale>
<asrwt>0</asrwt>
<pdfrwt beam="1">  1       21 0.11102764E+00 0.45477868E+03</pdfrwt>
<pdfrwt beam="2">  1       21 0.10071433E-01 0.45477868E+03</pdfrwt>
<totfact> 0.46731387E+04</totfact>
</mgrwt>
</event>
<event>
 7    0  0.4748297E-002  0.4544788E+03  0.7546771E-02  0.1026395E+00
         21   -1    0    0  502  501  0.00000000000E+00  0.00000000000E+00  0.56223877301E+02  0.56223877301E+02  0.00000000000E+00 0.  1.
         21   -1    0    0  501  502 -0.00000000000E+00 -0.00000000000E+00 -0.91843078099E+03  0.91843078099E+03  0.00000000000E+00 0.  1.
      99926    2    1    2    0    0  0.00000000000E+00  0.00000000000E+00 -0.86220690369E+03  0.97465465829E+03  0.45447877636E+03 0.  0.
      99925    2    3    3    0    0 -0.90555719948E+02  0.54457284063E+02 -0.45941023790E+03  0.53984596901E+03  0.26307787700E+03 0.  0.
         25    1    4    4    0    0 -0.26941273973E+02  0.50747934789E+02 -0.28028402495E+03  0.31226243429E+03  0.12509000000E+03 0.  0.
         25    1    3    3    0    0  0.90555719948E+02 -0.54457284063E+02 -0.40279666579E+03  0.43480868928E+03  0.12509000000E+03 0.  0.
         25    1    4    4    0    0 -0.63614445975E+02  0.37093492743E+01 -0.17912621295E+03  0.22758353472E+03  0.12509000000E+03 0.  0.
<mgrwt>
<rscale>  2 0.45447878E+03</rscale>
<asrwt>0</asrwt>
<pdfrwt beam="1">  1       21 0.82682173E-02 0.45447878E+03</pdfrwt>
<pdfrwt beam="2">  1       21 0.13506335E+00 0.45447878E+03</pdfrwt>
<totfact> 0.40322282E+04</totfact>
</mgrwt>
</event>
<event>
 7    0  0.4748297E-002  0.4568326E+03  0.7546771E-02  0.1025704E+00
         21   -1    0    0  502  501  0.00000000000E+00  0.00000000000E+00  0.11319095925E+03  0.11319095925E+03  0.00000000000E+00 0. -1.
         21   -1    0    0  501  502 -0.00000000000E+00 -0.00000000000E+00 -0.46093790290E+03  0.46093790290E+03  0.00000000000E+00 0. -1.
      99926    2    1    2    0    0  0.00000000000E+00  0.00000000000E+00 -0.34774694365E+03  0.57412886215E+03  0.45683258809E+03 0.  0.
      99925    2    3    3    0    0  0.10104184387E+03  0.43995959864E+02 -0.25919770537E+03  0.38536028850E+03  0.26300951084E+03 0.  0.
         25    1    4    4    0    0  0.43257180286E+02 -0.66966381077E+01 -0.16190567521E+03  0.20922950168E+03  0.12509000000E+03 0.  0.
         25    1    4    4    0    0  0.57784663582E+02  0.50692597972E+02 -0.97292030153E+02  0.17613078682E+03  0.12509000000E+03 0.  0.
         25    1    3    3    0    0 -0.10104184387E+03 -0.43995959864E+02 -0.88549238284E+02  0.18876857365E+03  0.12509000000E+03 0.  0.
<mgrwt>
<rscale>  2 0.45683259E+03</rscale>
<asrwt>0</asrwt>
<pdfrwt beam="1">  1       21 0.16645729E-01 0.45683259E+03</pdfrwt>
<pdfrwt beam="2">  1       21 0.67784985E-01 0.45683259E+03</pdfrwt>
<totfact> 0.59433745E+04</totfact>
</mgrwt>
</event>
<event>
 7    0  0.4748297E-002  0.4589837E+03  0.7546771E-02  0.1025076E+00
         21   -1    0    0  502  501  0.00000000000E+00  0.00000000000E+00  0.60157423523E+03  0.60157423523E+03  0.00000000000E+00 0. -1.
         21   -1    0    0  501  502 -0.00000000000E+00 -0.00000000000E+00 -0.87547801825E+02  0.87547801825E+02  0.00000000000E+00 0. -1.
      99926    2    1    2    0    0  0.00000000000E+00  0.00000000000E+00  0.51402643341E+03  0.68912203706E+03  0.45898366825E+03 0.  0.
      99925    2    3    3    0    0  0.31096803545E+02  0.10450015479E+03  0.38547151624E+03  0.47921451368E+03  0.26300373904E+03 0.  0.
         25    1    4    4    0    0  0.60346566391E+01  0.83488903689E+02  0.25098890971E+03  0.29265979399E+03  0.12509000000E+03 0.  0.
         25    1    3    3    0    0 -0.31096803545E+02 -0.10450015479E+03  0.12855491717E+03  0.20990752338E+03  0.12509000000E+03 0.  0.
         25    1    4    4    0    0  0.25062146906E+02  0.21011251103E+02  0.13448260653E+03  0.18655471969E+03  0.12509000000E+03 0.  0.
<mgrwt>
<rscale>  2 0.45898367E+03</rscale>
<asrwt>0</asrwt>
<pdfrwt beam="1">  1       21 0.88466797E-01 0.45898367E+03</pdfrwt>
<pdfrwt beam="2">  1       21 0.12874677E-01 0.45898367E+03</pdfrwt>
<totfact> 0.51852319E+04</totfact>
</mgrwt>
</event>
<event>
 7    0  0.4748297E-002  0.4515594E+03  0.7546771E-02  0.1027258E+00
         21   -1    0    0  502  501  0.00000000000E+00  0.00000000000E+00  0.48104187808E+03  0.48104187808E+03  0.00000000000E+00 0. -1.
         21   -1    0    0  501  502 -0.00000000000E+00 -0.00000000000E+00 -0.10597095612E+03  0.10597095612E+03  0.00000000000E+00 0. -1.
      99926    2    1    2    0    0  0.00000000000E+00  0.00000000000E+00  0.37507092196E+03  0.58701283420E+03  0.45155937707E+03 0.  0.
      99925    2    3    3    0    0 -0.54888313936E+02  0.90911233036E+02  0.20017488075E+03  0.34719266693E+03  0.26304977816E+03 0.  0.
         25    1    4    4    0    0 -0.30042966613E+02  0.26910831287E+02  0.14088689467E+03  0.19267433112E+03  0.12509000000E+03 0.  0.
         25    1    3    3    0    0  0.54888313936E+02 -0.90911233036E+02  0.17489604121E+03  0.23982016727E+03  0.12509000000E+03 0.  0.
         25    1    4    4    0    0 -0.24845347324E+02  0.64000401749E+02  0.59287986077E+02  0.15451833581E+03  0.12509000000E+03 0.  0.
<mgrwt>
<rscale>  2 0.45155938E+03</rscale>
<asrwt>0</asrwt>
<pdfrwt beam="1">  1       21 0.70741452E-01 0.45155938E+03</pdfrwt>
<pdfrwt beam="2">  1       21 0.15583964E-01 0.45155938E+03</pdfrwt>
<totfact> 0.61130420E+04</totfact>
</mgrwt>
</event>
<event>
 7    0  0.4748297E-002  0.4505640E+03  0.7546771E-02  0.1027554E+00
         21   -1    0    0  502  501  0.00000000000E+00  0.00000000000E+00  0.41837947594E+02  0.41837947594E+02  0.00000000000E+00 0.  1.
         21   -1    0    0  501  502 -0.00000000000E+00 -0.00000000000E+00 -0.12130611473E+04  0.12130611473E+04  0.00000000000E+00 0.  1.
      99926    2    1    2    0    0  0.00000000000E+00  0.00000000000E+00 -0.11712231997E+04  0.12548990949E+04  0.45056404078E+03 0.  0.
      99925    2    3    3    0    0  0.13210948492E+02  0.10753786583E+03 -0.77159046485E+03  0.82235689740E+03  0.26302110087E+03 0.  0.
         25    1    4    4    0    0 -0.21559943135E+02  0.21616008738E+02 -0.34554084907E+03  0.36875204332E+03  0.12509000000E+03 0.  0.
         25    1    4    4    0    0  0.34770891627E+02  0.85921857096E+02 -0.42604961578E+03  0.45360485407E+03  0.12509000000E+03 0.  0.
         25    1    3    3    0    0 -0.13210948492E+02 -0.10753786583E+03 -0.39963273489E+03  0.43254219753E+03  0.12509000000E+03 0.  0.
<mgrwt>
<rscale>  2 0.45056404E+03</rscale>
<asrwt>0</asrwt>
<pdfrwt beam="1">  1       21 0.61526396E-02 0.45056404E+03</pdfrwt>
<pdfrwt beam="2">  1       21 0.17839134E+00 0.45056404E+03</pdfrwt>
<totfact> 0.31527800E+04</totfact>
</mgrwt>
</event>
<event>
 7    0  0.4748297E-002  0.4596142E+03  0.7546771E-02  0.1024893E+00
         21   -1    0    0  502  501  0.00000000000E+00  0.00000000000E+00  0.45747075139E+03  0.45747075139E+03  0.00000000000E+00 0.  1.
         21   -1    0    0  501  502 -0.00000000000E+00 -0.00000000000E+00 -0.11544191173E+03  0.11544191173E+03  0.00000000000E+00 0.  1.
      99926    2    1    2    0    0 -0.71054273576E-14  0.00000000000E+00  0.34202883966E+03  0.57291266311E+03  0.45961417776E+03 0.  0.
      99925    2    3    3    0    0  0.60094440202E+02 -0.10100079226E+03  0.21579469198E+03  0.35985147491E+03  0.26289395795E+03 0.  0.
         25    1    4    4    0    0  0.22001971838E+02 -0.59574892315E+02  0.60853186546E+02  0.15291786348E+03  0.12509000000E+03 0.  0.
         25    1    4    4    0    0  0.38092468364E+02 -0.41425899940E+02  0.15494150543E+03  0.20693361142E+03  0.12509000000E+03 0.  0.
         25    1    3    3    0    0 -0.60094440202E+02  0.10100079226E+03  0.12623414768E+03  0.21306118821E+03  0.12509000000E+03 0.  0.
<mgrwt>
<rscale>  2 0.45961418E+03</rscale>
<asrwt>0</asrwt>
<pdfrwt beam="1">  1       21 0.67275110E-01 0.45961418E+03</pdfrwt>
<pdfrwt beam="2">  1       21 0.16976752E-01 0.45961418E+03</pdfrwt>
<totfact> 0.58223735E+04</totfact>
</mgrwt>
</event>
<event>
 7    0  0.4748297E-002  0.4454572E+03  0.7546771E-02  0.1029085E+00
         21   -1    0    0  502  501  0.00000000000E+00  0.00000000000E+00  0.27614475095E+03  0.27614475095E+03  0.00000000000E+00 0.  1.
         21   -1    0    0  501  502 -0.00000000000E+00 -0.00000000000E+00 -0.17964505829E+03  0.17964505829E+03  0.00000000000E+00 0.  1.
      99926    2    1    2    0    0  0.00000000000E+00  0.00000000000E+00  0.96499692659E+02  0.45578980924E+03  0.44545724770E+03 0.  0.
      99925    2    3    3    0    0  0.42772484829E+02  0.71093390266E+02  0.12542331543E+03  0.30292437936E+03  0.26296086393E+03 0.  0.
         25    1    3    3    0    0 -0.42772484829E+02 -0.71093390266E+02 -0.28923622775E+02  0.15286542988E+03  0.12509000000E+03 0.  0.
         25    1    4    4    0    0  0.19010996395E+02  0.54420062597E+02  0.25178051103E+02  0.14001572610E+03  0.12509000000E+03 0.  0.
         25    1    4    4    0    0  0.23761488434E+02  0.16673327669E+02  0.10024526433E+03  0.16290865327E+03  0.12509000000E+03 0.  0.
<mgrwt>
<rscale>  2 0.44545725E+03</rscale>
<asrwt>0</asrwt>
<pdfrwt beam="1">  1       21 0.40609522E-01 0.44545725E+03</pdfrwt>
<pdfrwt beam="2">  1       21 0.26418391E-01 0.44545725E+03</pdfrwt>
<totfact> 0.73948534E+04</totfact>
</mgrwt>
</event>
<event>
 7    0  0.4748297E-002  0.4610208E+03  0.7546771E-02  0.1024486E+00
         21   -1    0    0  502  501  0.00000000000E+00  0.00000000000E+00  0.27810570405E+03  0.27810570405E+03  0.00000000000E+00 0.  1.
         21   -1    0    0  501  502 -0.00000000000E+00 -0.00000000000E+00 -0.19106058972E+03  0.19106058972E+03  0.00000000000E+00 0.  1.
      99926    2    1    2    0    0  0.00000000000E+00  0.00000000000E+00  0.87045114325E+02  0.46916629377E+03  0.46102077966E+03 0.  0.
      99925    2    3    3    0    0 -0.81309905888E+02 -0.22490765066E+02 -0.30684119787E+02  0.27779018247E+03  0.26288540272E+03 0.  0.
         25    1    3    3    0    0  0.81309905888E+02  0.22490765066E+02  0.11772923411E+03  0.19137611129E+03  0.12509000000E+03 0.  0.
         25    1    4    4    0    0 -0.27693899101E+02 -0.26751212234E+02 -0.50313625602E+02  0.14021964350E+03  0.12509000000E+03 0.  0.
         25    1    4    4    0    0 -0.53616006787E+02  0.42604471682E+01  0.19629505815E+02  0.13757053897E+03  0.12509000000E+03 0.  0.
<mgrwt>
<rscale>  2 0.46102078E+03</rscale>
<asrwt>0</asrwt>
<pdfrwt beam="1">  1       21 0.40897898E-01 0.46102078E+03</pdfrwt>
<pdfrwt beam="2">  1       21 0.28097145E-01 0.46102078E+03</pdfrwt>
<totfact> 0.64365822E+04</totfact>
</mgrwt>
</event>
<event>
 7    0  0.4748297E-002  0.4578521E+03  0.7546771E-02  0.1025406E+00
         21   -1    0    0  502  501  0.00000000000E+00  0.00000000000E+00  0.97637776249E+02  0.97637776249E+02  0.00000000000E+00 0.  1.
         21   -1    0    0  501  502 -0.00000000000E+00 -0.00000000000E+00 -0.53675068505E+03  0.53675068505E+03  0.00000000000E+00 0.  1.
      99926    2    1    2    0    0 -0.35527136788E-14  0.00000000000E+00 -0.43911290880E+03  0.63438846130E+03  0.45785213023E+03 0.  0.
      99925    2    3    3    0    0  0.16259779213E+02  0.10707702252E+03 -0.21940036552E+03  0.35934123091E+03  0.26317243523E+03 0.  0.
         25    1    4    4    0    0 -0.29474250447E+02  0.37642033471E+02 -0.11374854923E+03  0.17570399732E+03  0.12509000000E+03 0.  0.
         25    1    4    4    0    0  0.45734029660E+02  0.69434989049E+02 -0.10565181629E+03  0.18363723359E+03  0.12509000000E+03 0.  0.
         25    1    3    3    0    0 -0.16259779213E+02 -0.10707702252E+03 -0.21971254328E+03  0.27504723040E+03  0.12509000000E+03 0.  0.
<mgrwt>
<rscale>  2 0.45785213E+03</rscale>
<asrwt>0</asrwt>
<pdfrwt beam="1">  1       21 0.14358496E-01 0.45785213E+03</pdfrwt>
<pdfrwt beam="2">  1       21 0.78933928E-01 0.45785213E+03</pdfrwt>
<totfact> 0.55353262E+04</totfact>
</mgrwt>
</event>
<event>
 7    0  0.4748297E-002  0.4252952E+03  0.7546771E-02  0.1035357E+00
         21   -1    0    0  502  501  0.00000000000E+00  0.00000000000E+00  0.17851530506E+03  0.17851530506E+03  0.00000000000E+00 0.  1.
         21   -1    0    0  501  502 -0.00000000000E+00 -0.00000000000E+00 -0.25330604782E+03  0.25330604782E+03  0.00000000000E+00 0.  1.
      99926    2    1    2    0    0  0.00000000000E+00  0.00000000000E+00 -0.74790742766E+02  0.43182135288E+03  0.42529522169E+03 0.  0.
      99925    2    3    3    0    0 -0.27000003185E+02  0.76536247086E+02 -0.56479163203E+02  0.28158946766E+03  0.26365874749E+03 0.  0.
         25    1    3    3    0    0  0.27000003185E+02 -0.76536247086E+02 -0.18311579563E+02  0.15023188522E+03  0.12509000000E+03 0.  0.
         25    1    4    4    0    0  0.10899850045E+02  0.39517907104E+02 -0.62266657679E+02  0.14561976676E+03  0.12509000000E+03 0.  0.
         25    1    4    4    0    0 -0.37899853230E+02  0.37018339982E+02  0.57874944769E+01  0.13596970090E+03  0.12509000000E+03 0.  0.
<mgrwt>
<rscale>  2 0.42529522E+03</rscale>
<asrwt>0</asrwt>
<pdfrwt beam="1">  1       21 0.26252251E-01 0.42529522E+03</pdfrwt>
<pdfrwt beam="2">  1       21 0.37250889E-01 0.42529522E+03</pdfrwt>
<totfact> 0.89723558E+04</totfact>
</mgrwt>
</event>
<event>
 7    0  0.4748297E-002  0.4556320E+03  0.7546771E-02  0.1026056E+00
         21   -1    0    0  502  501  0.00000000000E+00  0.00000000000E+00  0.14323385049E+03  0.14323385049E+03  0.00000000000E+00 0. -1.
         21   -1    0    0  501  502 -0.00000000000E+00 -0.00000000000E+00 -0.36234547169E+03  0.36234547169E+03  0.00000000000E+00 0. -1.
      99926    2    1    2    0    0  0.14210854715E-13  0.71054273576E-14 -0.21911162120E+03  0.50557932218E+03  0.45563203187E+03 0.  0.
      99925    2    3    3    0    0  0.10625476402E+03  0.40213216734E+02 -0.14022026806E+03  0.31908929194E+03  0.26315218977E+03 0.  0.
         25    1    3    3    0    0 -0.10625476402E+03 -0.40213216734E+02 -0.78891353135E+02  0.18649003023E+03  0.12509000000E+03 0.  0.
         25    1    4    4    0    0  0.14349178210E+02  0.28970862780E+01 -0.75381922253E+02  0.14677954328E+03  0.12509000000E+03 0.  0.
         25    1    4    4    0    0  0.91905585812E+02  0.37316130456E+02 -0.64838345811E+02  0.17230974866E+03  0.12509000000E+03 0.  0.
<mgrwt>
<rscale>  2 0.45563203E+03</rscale>
<asrwt>0</asrwt>
<pdfrwt beam="1">  1       21 0.21063801E-01 0.45563203E+03</pdfrwt>
<pdfrwt beam="2">  1       21 0.53286099E-01 0.45563203E+03</pdfrwt>
<totfact> 0.64555989E+04</totfact>
</mgrwt>
</event>
<event>
 7    0  0.4748297E-002  0.4572967E+03  0.7546771E-02  0.1025568E+00
         21   -1    0    0  502  501  0.00000000000E+00  0.00000000000E+00  0.34854622912E+03  0.34854622912E+03  0.00000000000E+00 0. -1.
         21   -1    0    0  501  502 -0.00000000000E+00 -0.00000000000E+00 -0.14999462378E+03  0.14999462378E+03  0.00000000000E+00 0. -1.
      99926    2    1    2    0    0  0.00000000000E+00  0.00000000000E+00  0.19855160534E+03  0.49854085291E+03  0.45729666742E+03 0.  0.
      99925    2    3    3    0    0 -0.74817338826E+02  0.67301613885E+02  0.63347007016E+02  0.28864818289E+03  0.26301670815E+03 0.  0.
         25    1    4    4    0    0  0.95207137990E+00  0.46864390782E+02  0.22824311833E+02  0.13551986893E+03  0.12509000000E+03 0.  0.
         25    1    3    3    0    0  0.74817338826E+02 -0.67301613885E+02  0.13520459832E+03  0.20989267002E+03  0.12509000000E+03 0.  0.
         25    1    4    4    0    0 -0.75769410206E+02  0.20437223103E+02  0.40522695183E+02  0.15312831396E+03  0.12509000000E+03 0.  0.
<mgrwt>
<rscale>  2 0.45729667E+03</rscale>
<asrwt>0</asrwt>
<pdfrwt beam="1">  1       21 0.51256798E-01 0.45729667E+03</pdfrwt>
<pdfrwt beam="2">  1       21 0.22058033E-01 0.45729667E+03</pdfrwt>
<totfact> 0.64194897E+04</totfact>
</mgrwt>
</event>
<event>
 7    0  0.4748297E-002  0.4594029E+03  0.7546771E-02  0.1024955E+00
         21   -1    0    0  502  501  0.00000000000E+00  0.00000000000E+00  0.11587809132E+04  0.11587809132E+04  0.00000000000E+00 0. -1.
         21   -1    0    0  501  502 -0.00000000000E+00 -0.00000000000E+00 -0.45532987866E+02  0.45532987866E+02  0.00000000000E+00 0. -1.
      99926    2    1    2    0    0  0.71054273576E-14  0.00000000000E+00  0.11132479253E+04  0.12043139011E+04  0.45940290491E+03 0.  0.
      99925    2    3    3    0    0  0.60848116932E+02 -0.46095948283E+02  0.93108079629E+03  0.97051975917E+03  0.26300156642E+03 0.  0.
         25    1    4    4    0    0  0.64452743897E+02 -0.10816620512E+01  0.49428638855E+03  0.51392788229E+03  0.12509000000E+03 0.  0.
         25    1    3    3    0    0 -0.60848116932E+02  0.46095948283E+02  0.18216712906E+03  0.23379414191E+03  0.12509000000E+03 0.  0.
         25    1    4    4    0    0 -0.36046269652E+01 -0.45014286232E+02  0.43679440774E+03  0.45659187688E+03  0.12509000000E+03 0.  0.
<mgrwt>
<rscale>  2 0.45940290E+03</rscale>
<asrwt>0</asrwt>
<pdfrwt beam="1">  1       21 0.17040894E+00 0.45940290E+03</pdfrwt>
<pdfrwt beam="2">  1       21 0.66960284E-02 0.45940290E+03</pdfrwt>
<totfact> 0.30944517E+04</totfact>
</mgrwt>
</event>
<event>
 7    0  0.4748297E-002  0.4667580E+03  0.7546771E-02  0.1022839E+00
         21   -1    0    0  502  501  0.00000000000E+00  0.00000000000E+00  0.10629319357E+03  0.10629319357E+03  0.00000000000E+00 0.  1.
         21   -1    0    0  501  502 -0.00000000000E+00 -0.00000000000E+00 -0.51241063996E+03  0.51241063996E+03  0.00000000000E+00 0.  1.
      99926    2    1    2    0    0 -0.14210854715E-13 -0.71054273576E-14 -0.40611744639E+03  0.61870383353E+03  0.46675802443E+03 0.  0.
      99925    2    3    3    0    0 -0.82220715847E+02 -0.35404912656E+02 -0.13937302746E+03  0.31078526137E+03  0.26296175377E+03 0.  0.
         25    1    3    3    0    0  0.82220715847E+02  0.35404912656E+02 -0.26674441893E+03  0.30791857216E+03  0.12509000000E+03 0.  0.
         25    1    4    4    0    0 -0.82488746393E+02 -0.20829454487E+02 -0.85892915102E+02  0.17396367558E+03  0.12509000000E+03 0.  0.
         25    1    4    4    0    0  0.26803054591E+00 -0.14575458169E+02 -0.53480112355E+02  0.13682158579E+03  0.12509000000E+03 0.  0.
<mgrwt>
<rscale>  2 0.46675802E+03</rscale>
<asrwt>0</asrwt>
<pdfrwt beam="1">  1       21 0.15631352E-01 0.46675802E+03</pdfrwt>
<pdfrwt beam="2">  1       21 0.75354505E-01 0.46675802E+03</pdfrwt>
<totfact> 0.52494497E+04</totfact>
</mgrwt>
</event>
<event>
 7    0  0.4748297E-002  0.4537131E+03  0.7546771E-02  0.1026621E+00
         21   -1    0    0  502  501  0.00000000000E+00  0.00000000000E+00  0.44578753690E+03  0.44578753690E+03  0.00000000000E+00 0. -1.
         21   -1    0    0  501  502 -0.00000000000E+00 -0.00000000000E+00 -0.11544491223E+03  0.11544491223E+03  0.00000000000E+00 0. -1.
      99926    2    1    2    0    0  0.71054273576E-14  0.16653345369E-15  0.33034262467E+03  0.56123244914E+03  0.45371313877E+03 0.  0.
      99925    2    3    3    0    0  0.44748858414E+02  0.13455531566E+00  0.81207194212E+02  0.27888789147E+03  0.26302351450E+03 0.  0.
         25    1    4    4    0    0 -0.17208918309E+02 -0.40047247943E+01  0.27693330170E+02  0.12933140889E+03  0.12509000000E+03 0.  0.
         25    1    4    4    0    0  0.61957776722E+02  0.41392801099E+01  0.53513864042E+02  0.14955648258E+03  0.12509000000E+03 0.  0.
         25    1    3    3    0    0 -0.44748858414E+02 -0.13455531566E+00  0.24913543046E+03  0.28234455767E+03  0.12509000000E+03 0.  0.
<mgrwt>
<rscale>  2 0.45371314E+03</rscale>
<asrwt>0</asrwt>
<pdfrwt beam="1">  1       21 0.65556990E-01 0.45371314E+03</pdfrwt>
<pdfrwt beam="2">  1       21 0.16977193E-01 0.45371314E+03</pdfrwt>
<totfact> 0.61756506E+04</totfact>
</mgrwt>
</event>
<event>
 7    0  0.4748297E-002  0.4864122E+03  0.7546771E-02  0.1017388E+00
         21   -1    0    0  502  501  0.00000000000E+00  0.00000000000E+00  0.42000443541E+03  0.42000443541E+03  0.00000000000E+00 0. -1.
         21   -1    0    0  501  502 -0.00000000000E+00 -0.00000000000E+00 -0.14082998447E+03  0.14082998447E+03  0.00000000000E+00 0. -1.
      99926    2    1    2    0    0 -0.35527136788E-14 -0.28421709430E-13  0.27917445094E+03  0.56083441989E+03  0.48641224540E+03 0.  0.
      99925    2    3    3    0    0  0.21316516854E+02  0.13224923080E+03  0.12190786722E+03  0.31932967999E+03  0.26299365676E+03 0.  0.
         25    1    3    3    0    0 -0.21316516854E+02 -0.13224923080E+03  0.15726658372E+03  0.24150473989E+03  0.12509000000E+03 0.  0.
         25    1    4    4    0    0  0.39769380226E+02  0.76396466019E+02  0.93073912510E+02  0.17812435239E+03  0.12509000000E+03 0.  0.
         25    1    4    4    0    0 -0.18452863372E+02  0.55852764777E+02  0.28833954714E+02  0.14120532761E+03  0.12509000000E+03 0.  0.
<mgrwt>
<rscale>  2 0.48641225E+03</rscale>
<asrwt>0</asrwt>
<pdfrwt beam="1">  1       21 0.61765358E-01 0.48641225E+03</pdfrwt>
<pdfrwt beam="2">  1       21 0.20710292E-01 0.48641225E+03</pdfrwt>
<totfact> 0.48046686E+04</totfact>
</mgrwt>
</event>
<event>
 7    0  0.4748297E-002  0.4491066E+03  0.7546771E-02  0.1027989E+00
         21   -1    0    0  502  501  0.00000000000E+00  0.00000000000E+00  0.25107797635E+02  0.25107797635E+02  0.00000000000E+00 0.  1.
         21   -1    0    0  501  502 -0.00000000000E+00 -0.00000000000E+00 -0.20083079432E+04  0.20083079432E+04  0.00000000000E+00 0.  1.
      99926    2    1    2    0    0  0.00000000000E+00 -0.71054273576E-14 -0.19832001455E+04  0.20334157408E+04  0.44910662176E+03 0.  0.
      99925    2    3    3    0    0 -0.24007916279E+02 -0.58655450868E+02 -0.16485517445E+04  0.16705743121E+04  0.26282852971E+03 0.  0.
         25    1    3    3    0    0  0.24007916279E+02  0.58655450868E+02 -0.33464840102E+03  0.36284142867E+03  0.12509000000E+03 0.  0.
         25    1    4    4    0    0 -0.27308528255E+02 -0.41524790011E+02 -0.62977855911E+03  0.64400202291E+03  0.12509000000E+03 0.  0.
         25    1    4    4    0    0  0.33006119761E+01 -0.17130660857E+02 -0.10187731854E+04  0.10265722892E+04  0.12509000000E+03 0.  0.
<mgrwt>
<rscale>  2 0.44910662E+03</rscale>
<asrwt>0</asrwt>
<pdfrwt beam="1">  1       21 0.36923254E-02 0.44910662E+03</pdfrwt>
<pdfrwt beam="2">  1       21 0.29533923E+00 0.44910662E+03</pdfrwt>
<totfact> 0.13792059E+04</totfact>
</mgrwt>
</event>
<event>
 7    0  0.4748297E-002  0.4529522E+03  0.7546771E-02  0.1026845E+00
         21   -1    0    0  502  501  0.00000000000E+00  0.00000000000E+00  0.29448229333E+03  0.29448229333E+03  0.00000000000E+00 0. -1.
         21   -1    0    0  501  502 -0.00000000000E+00 -0.00000000000E+00 -0.17417486473E+03  0.17417486473E+03  0.00000000000E+00 0. -1.
      99926    2    1    2    0    0  0.00000000000E+00  0.00000000000E+00  0.12030742860E+03  0.46865715806E+03  0.45295215467E+03 0.  0.
      99925    2    3    3    0    0  0.10166930730E+03 -0.22654006290E+02  0.35144061627E+02  0.28494499400E+03  0.26288532194E+03 0.  0.
         25    1    4    4    0    0  0.78135940357E+02  0.19031766708E+02  0.22665609874E+02  0.15042829285E+03  0.12509000000E+03 0.  0.
         25    1    3    3    0    0 -0.10166930730E+03  0.22654006290E+02  0.85163366977E+02  0.18371216406E+03  0.12509000000E+03 0.  0.
         25    1    4    4    0    0  0.23533366940E+02 -0.41685772999E+02  0.12478451753E+02  0.13451670115E+03  0.12509000000E+03 0.  0.
<mgrwt>
<rscale>  2 0.45295215E+03</rscale>
<asrwt>0</asrwt>
<pdfrwt beam="1">  1       21 0.43306220E-01 0.45295215E+03</pdfrwt>
<pdfrwt beam="2">  1       21 0.25613951E-01 0.45295215E+03</pdfrwt>
<totfact> 0.68644128E+04</totfact>
</mgrwt>
</event>
<event>
 7    0  0.4748297E-002  0.4681751E+03  0.7546771E-02  0.1022437E+00
         21   -1    0    0  502  501  0.00000000000E+00  0.00000000000E+00  0.32767846040E+02  0.32767846040E+02  0.00000000000E+00 0. -1.
         21   -1    0    0  501  502 -0.00000000000E+00 -0.00000000000E+00 -0.16722790994E+04  0.16722790994E+04  0.00000000000E+00 0. -1.
      99926    2    1    2    0    0 -0.14210854715E-13  0.17763568394E-14 -0.16395112534E+04  0.17050469454E+04  0.46817511282E+03 0.  0.
      99925    2    3    3    0    0 -0.83062912368E+02 -0.12723435207E+02 -0.68242158445E+03  0.73616641841E+03  0.26302175474E+03 0.  0.
         25    1    4    4    0    0 -0.75613126410E+02  0.17386632559E+02 -0.35735186133E+03  0.38648091903E+03  0.12509000000E+03 0.  0.
         25    1    4    4    0    0 -0.74497859584E+01 -0.30110067766E+02 -0.32506972312E+03  0.34968549939E+03  0.12509000000E+03 0.  0.
         25    1    3    3    0    0  0.83062912368E+02  0.12723435207E+02 -0.95708966891E+03  0.96888052702E+03  0.12509000000E+03 0.  0.
<mgrwt>
<rscale>  2 0.46817511E+03</rscale>
<asrwt>0</asrwt>
<pdfrwt beam="1">  1       21 0.48187995E-02 0.46817511E+03</pdfrwt>
<pdfrwt beam="2">  1       21 0.24592347E+00 0.46817511E+03</pdfrwt>
<totfact> 0.17316687E+04</totfact>
</mgrwt>
</event>
<event>
 7    0  0.4748297E-002  0.4403943E+03  0.7546771E-02  0.1030626E+00
         21   -1    0    0  502  501  0.00000000000E+00  0.00000000000E+00  0.33968146159E+03  0.33968146159E+03  0.00000000000E+00 0. -1.
         21   -1    0    0  501  502 -0.00000000000E+00 -0.00000000000E+00 -0.14274189849E+03  0.14274189849E+03  0.00000000000E+00 0. -1.
      99926    2    1    2    0    0  0.14210854715E-13  0.00000000000E+00  0.19693956310E+03  0.48242336008E+03  0.44039426294E+03 0.  0.
      99925    2    3    3    0    0 -0.66062362418E+02  0.35049621069E+02  0.19644639262E+03  0.33668227808E+03  0.26300391543E+03 0.  0.
         25    1    3    3    0    0  0.66062362418E+02 -0.35049621069E+02  0.49317047291E+00  0.14574108200E+03  0.12509000000E+03 0.  0.
         25    1    4    4    0    0  0.47567342413E+01  0.11255715704E+02  0.70604135900E+02  0.14415883519E+03  0.12509000000E+03 0.  0.
         25    1    4    4    0    0 -0.70819096659E+02  0.23793905365E+02  0.12584225672E+03  0.19252344289E+03  0.12509000000E+03 0.  0.
<mgrwt>
<rscale>  2 0.44039426E+03</rscale>
<asrwt>0</asrwt>
<pdfrwt beam="1">  1       21 0.49953156E-01 0.44039426E+03</pdfrwt>
<pdfrwt beam="2">  1       21 0.20991456E-01 0.44039426E+03</pdfrwt>
<totfact> 0.74831573E+04</totfact>
</mgrwt>
</event>
<event>
 7    0  0.4748297E-002  0.4546418E+03  0.7546771E-02  0.1026347E+00
         21   -1    0    0  502  501  0.00000000000E+00  0.00000000000E+00  0.51057561875E+03  0.51057561875E+03  0.00000000000E+00 0. -1.
         21   -1    0    0  501  502 -0.00000000000E+00 -0.00000000000E+00 -0.10120890091E+03  0.10120890091E+03  0.00000000000E+00 0. -1.
      99926    2    1    2    0    0  0.00000000000E+00  0.00000000000E+00  0.40936671784E+03  0.61178451965E+03  0.45464182475E+03 0.  0.
      99925    2    3    3    0    0  0.49125751780E+02  0.97529253177E+02  0.21967636451E+03  0.35968288745E+03  0.26303760128E+03 0.  0.
         25    1    4    4    0    0  0.55103339940E+01  0.24261912131E+02  0.13705415418E+03  0.18721739620E+03  0.12509000000E+03 0.  0.
         25    1    4    4    0    0  0.43615417786E+02  0.73267341046E+02  0.82622210330E+02  0.17246549125E+03  0.12509000000E+03 0.  0.
         25    1    3    3    0    0 -0.49125751780E+02 -0.97529253177E+02  0.18969035333E+03  0.25210163221E+03  0.12509000000E+03 0.  0.
<mgrwt>
<rscale>  2 0.45464182E+03</rscale>
<asrwt>0</asrwt>
<pdfrwt beam="1">  1       21 0.75084649E-01 0.45464182E+03</pdfrwt>
<pdfrwt beam="2">  1       21 0.14883662E-01 0.45464182E+03</pdfrwt>
<totfact> 0.58122961E+04</totfact>
</mgrwt>
</event>
<event>
 7    0  0.4748297E-002  0.4523089E+03  0.7546771E-02  0.1027036E+00
         21   -1    0    0  502  501  0.00000000000E+00  0.00000000000E+00  0.11179786809E+04  0.11179786809E+04  0.00000000000E+00 0.  1.
         21   -1    0    0  501  502 -0.00000000000E+00 -0.00000000000E+00 -0.45748488338E+02  0.45748488338E+02  0.00000000000E+00 0.  1.
      99926    2    1    2    0    0  0.00000000000E+00  0.00000000000E+00  0.10722301926E+04  0.11637271692E+04  0.45230889730E+03 0.  0.
      99925    2    3    3    0    0  0.95082627941E+02  0.14795367284E+02  0.53598625183E+03  0.60474176594E+03  0.26300519442E+03 0.  0.
         25    1    4    4    0    0  0.52689946002E+02 -0.86008081742E+01  0.18997713759E+03  0.23364294387E+03  0.12509000000E+03 0.  0.
         25    1    4    4    0    0  0.42392681939E+02  0.23396175458E+02  0.34600911424E+03  0.37109882207E+03  0.12509000000E+03 0.  0.
         25    1    3    3    0    0 -0.95082627941E+02 -0.14795367284E+02  0.53624394074E+03  0.55898540330E+03  0.12509000000E+03 0.  0.
<mgrwt>
<rscale>  2 0.45230890E+03</rscale>
<asrwt>0</asrwt>
<pdfrwt beam="1">  1       21 0.16440861E+00 0.45230890E+03</pdfrwt>
<pdfrwt beam="2">  1       21 0.67277196E-02 0.45230890E+03</pdfrwt>
<totfact> 0.34035508E+04</totfact>
</mgrwt>
</event>
<event>
 7    0  0.4748297E-002  0.4254392E+03  0.7546771E-02  0.1035310E+00
         21   -1    0    0  502  501  0.00000000000E+00  0.00000000000E+00  0.40947617702E+02  0.40947617702E+02  0.00000000000E+00 0.  1.
         21   -1    0    0  501  502 -0.00000000000E+00 -0.00000000000E+00 -0.11050610603E+04  0.11050610603E+04  0.00000000000E+00 0.  1.
      99926    2    1    2    0    0  0.00000000000E+00 -0.71054273576E-14 -0.10641134426E+04  0.11460086780E+04  0.42543915115E+03 0.  0.
      99925    2    3    3    0    0 -0.54508351814E+02 -0.58892422764E+02 -0.74056923705E+03  0.78996396322E+03  0.26298439202E+03 0.  0.
         25    1    4    4    0    0 -0.49877081955E+02 -0.42500053416E+02 -0.48136065297E+03  0.50164685205E+03  0.12509000000E+03 0.  0.
         25    1    4    4    0    0 -0.46312698597E+01 -0.16392369348E+02 -0.25920858408E+03  0.28831711117E+03  0.12509000000E+03 0.  0.
         25    1    3    3    0    0  0.54508351814E+02  0.58892422764E+02 -0.32354420551E+03  0.35604471474E+03  0.12509000000E+03 0.  0.
<mgrwt>
<rscale>  2 0.42543915E+03</rscale>
<asrwt>0</asrwt>
<pdfrwt beam="1">  1       21 0.60217087E-02 0.42543915E+03</pdfrwt>
<pdfrwt beam="2">  1       21 0.16250897E+00 0.42543915E+03</pdfrwt>
<totfact> 0.43000777E+04</totfact>
</mgrwt>
</event>
<event>
 7    0  0.4748297E-002  0.4269152E+03  0.7546771E-02  0.1034839E+00
         21   -1    0    0  502  501  0.00000000000E+00  0.00000000000E+00  0.11875008266E+03  0.11875008266E+03  0.00000000000E+00 0.  1.
         21   -1    0    0  501  502 -0.00000000000E+00 -0.00000000000E+00 -0.38369780866E+03  0.38369780866E+03  0.00000000000E+00 0.  1.
      99926    2    1    2    0    0  0.00000000000E+00  0.00000000000E+00 -0.26494772600E+03  0.50244789132E+03  0.42691519764E+03 0.  0.
      99925    2    3    3    0    0  0.79045197318E+02 -0.24263542563E+02 -0.19006814066E+03  0.33484322815E+03  0.26297761621E+03 0.  0.
         25    1    3    3    0    0 -0.79045197318E+02  0.24263542563E+02 -0.74879585347E+02  0.16760466318E+03  0.12509000000E+03 0.  0.
         25    1    4    4    0    0  0.36154314724E+02 -0.43098591652E+02 -0.64699038730E+02  0.15165123405E+03  0.12509000000E+03 0.  0.
         25    1    4    4    0    0  0.42890882594E+02  0.18835049089E+02 -0.12536910193E+03  0.18319199410E+03  0.12509000000E+03 0.  0.
<mgrwt>
<rscale>  2 0.42691520E+03</rscale>
<asrwt>0</asrwt>
<pdfrwt beam="1">  1       21 0.17463247E-01 0.42691520E+03</pdfrwt>
<pdfrwt beam="2">  1       21 0.56426149E-01 0.42691520E+03</pdfrwt>
<totfact> 0.81869934E+04</totfact>
</mgrwt>
</event>
<event>
 7    0  0.4748297E-002  0.4563734E+03  0.7546771E-02  0.1025838E+00
         21   -1    0    0  502  501  0.00000000000E+00  0.00000000000E+00  0.26050174400E+03  0.26050174400E+03  0.00000000000E+00 0. -1.
         21   -1    0    0  501  502 -0.00000000000E+00 -0.00000000000E+00 -0.19988033557E+03  0.19988033557E+03  0.00000000000E+00 0. -1.
      99926    2    1    2    0    0 -0.14210854715E-13 -0.71054273576E-14  0.60621408429E+02  0.46038207958E+03  0.45637342609E+03 0.  0.
      99925    2    3    3    0    0  0.76570643861E+02  0.49586181257E+02 -0.31724770176E+02  0.28011234369E+03  0.26293461388E+03 0.  0.
         25    1    4    4    0    0  0.42341042711E+02  0.61451833113E+02 -0.35136752471E+02  0.14983721555E+03  0.12509000000E+03 0.  0.
         25    1    3    3    0    0 -0.76570643861E+02 -0.49586181257E+02  0.92346178605E+02  0.18026973588E+03  0.12509000000E+03 0.  0.
         25    1    4    4    0    0  0.34229601150E+02 -0.11865651856E+02  0.34119822951E+01  0.13027512814E+03  0.12509000000E+03 0.  0.
<mgrwt>
<rscale>  2 0.45637343E+03</rscale>
<asrwt>0</asrwt>
<pdfrwt beam="1">  1       21 0.38309080E-01 0.45637343E+03</pdfrwt>
<pdfrwt beam="2">  1       21 0.29394167E-01 0.45637343E+03</pdfrwt>
<totfact> 0.67411350E+04</totfact>
</mgrwt>
</event>
<event>
 7    0  0.4748297E-002  0.4507940E+03  0.7546771E-02  0.1027486E+00
         21   -1    0    0  502  501  0.00000000000E+00  0.00000000000E+00  0.22730311775E+02  0.22730311775E+02  0.00000000000E+00 0.  1.
         21   -1    0    0  501  502 -0.00000000000E+00 -0.00000000000E+00 -0.22350687583E+04  0.22350687583E+04  0.00000000000E+00 0.  1.
      99926    2    1    2    0    0 -0.35527136788E-14  0.00000000000E+00 -0.22123384465E+04  0.22577990701E+04  0.45079400934E+03 0.  0.
      99925    2    3    3    0    0  0.21765053575E+02 -0.58314511451E+02 -0.94876170841E+03  0.98652098051E+03  0.26306000426E+03 0.  0.
         25    1    4    4    0    0  0.25890434344E+01 -0.60902702462E+02 -0.58652145080E+03  0.60280242424E+03  0.12509000000E+03 0.  0.
         25    1    3    3    0    0 -0.21765053575E+02  0.58314511451E+02 -0.12635767381E+04  0.12712780895E+04  0.12509000000E+03 0.  0.
         25    1    4    4    0    0  0.19176010141E+02  0.25881910108E+01 -0.36224025760E+03  0.38371855627E+03  0.12509000000E+03 0.  0.
<mgrwt>
<rscale>  2 0.45079401E+03</rscale>
<asrwt>0</asrwt>
<pdfrwt beam="1">  1       21 0.33426940E-02 0.45079401E+03</pdfrwt>
<pdfrwt beam="2">  1       21 0.32868647E+00 0.45079401E+03</pdfrwt>
<totfact> 0.10270336E+04</totfact>
</mgrwt>
</event>
<event>
 7    0  0.4748297E-002  0.4468231E+03  0.7546771E-02  0.1028674E+00
         21   -1    0    0  502  501  0.00000000000E+00  0.00000000000E+00  0.15082637306E+03  0.15082637306E+03  0.00000000000E+00 0.  1.
         21   -1    0    0  501  502 -0.00000000000E+00 -0.00000000000E+00 -0.33092833732E+03  0.33092833732E+03  0.00000000000E+00 0.  1.
      99926    2    1    2    0    0  0.00000000000E+00  0.17763568394E-14 -0.18010196427E+03  0.48175471038E+03  0.44682310083E+03 0.  0.
      99925    2    3    3    0    0  0.13338115273E+02 -0.11051418851E+02 -0.22629345209E+03  0.34728835464E+03  0.26286961717E+03 0.  0.
         25    1    4    4    0    0 -0.63141932696E+01 -0.24364272782E+02 -0.15706609482E+03  0.20236292414E+03  0.12509000000E+03 0.  0.
         25    1    3    3    0    0 -0.13338115273E+02  0.11051418851E+02  0.46191487825E+02  0.13446635574E+03  0.12509000000E+03 0.  0.
         25    1    4    4    0    0  0.19652308543E+02  0.13312853931E+02 -0.69227357274E+02  0.14492543050E+03  0.12509000000E+03 0.  0.
<mgrwt>
<rscale>  2 0.44682310E+03</rscale>
<asrwt>0</asrwt>
<pdfrwt beam="1">  1       21 0.22180349E-01 0.44682310E+03</pdfrwt>
<pdfrwt beam="2">  1       21 0.48665932E-01 0.44682310E+03</pdfrwt>
<totfact> 0.71075405E+04</totfact>
</mgrwt>
</event>
<event>
 7    0  0.4748297E-002  0.4513878E+03  0.7546771E-02  0.1027309E+00
         21   -1    0    0  502  501  0.00000000000E+00  0.00000000000E+00  0.10977654760E+03  0.10977654760E+03  0.00000000000E+00 0.  1.
         21   -1    0    0  501  502 -0.00000000000E+00 -0.00000000000E+00 -0.46401289357E+03  0.46401289357E+03  0.00000000000E+00 0.  1.
      99926    2    1    2    0    0  0.00000000000E+00  0.00000000000E+00 -0.35423634597E+03  0.57378944117E+03  0.45138778671E+03 0.  0.
      99925    2    3    3    0    0 -0.13150395851E+02  0.10564429226E+03 -0.25431435116E+03  0.38152513729E+03  0.26372711613E+03 0.  0.
         25    1    4    4    0    0 -0.46039496956E+02  0.59309401915E+02 -0.14785420338E+03  0.20771522330E+03  0.12509000000E+03 0.  0.
         25    1    3    3    0    0  0.13150395851E+02 -0.10564429226E+03 -0.99921994802E+02  0.19226430387E+03  0.12509000000E+03 0.  0.
         25    1    4    4    0    0  0.32889101105E+02  0.46334890347E+02 -0.10646014779E+03  0.17380991399E+03  0.12509000000E+03 0.  0.
<mgrwt>
<rscale>  2 0.45138779E+03</rscale>
<asrwt>0</asrwt>
<pdfrwt beam="1">  1       21 0.16143610E-01 0.45138779E+03</pdfrwt>
<pdfrwt beam="2">  1       21 0.68237190E-01 0.45138779E+03</pdfrwt>
<totfact> 0.62075379E+04</totfact>
</mgrwt>
</event>
<event>
 7    0  0.4748297E-002  0.4552510E+03  0.7546771E-02  0.1026168E+00
         21   -1    0    0  502  501  0.00000000000E+00  0.00000000000E+00  0.11405767223E+03  0.11405767223E+03  0.00000000000E+00 0.  1.
         21   -1    0    0  501  502 -0.00000000000E+00 -0.00000000000E+00 -0.45427347132E+03  0.45427347132E+03  0.00000000000E+00 0.  1.
      99926    2    1    2    0    0  0.00000000000E+00  0.00000000000E+00 -0.34021579909E+03  0.56833114356E+03  0.45525102832E+03 0.  0.
      99925    2    3    3    0    0 -0.93408720066E+02 -0.56320995382E+02 -0.17584721934E+03  0.33474650876E+03  0.26312684597E+03 0.  0.
         25    1    3    3    0    0  0.93408720066E+02  0.56320995382E+02 -0.16436857975E+03  0.23358463480E+03  0.12509000000E+03 0.  0.
         25    1    4    4    0    0 -0.39281229166E+02 -0.29275042962E+02 -0.39401803010E+02  0.14000019031E+03  0.12509000000E+03 0.  0.
         25    1    4    4    0    0 -0.54127490900E+02 -0.27045952421E+02 -0.13644541633E+03  0.19474631845E+03  0.12509000000E+03 0.  0.
<mgrwt>
<rscale>  2 0.45525103E+03</rscale>
<asrwt>0</asrwt>
<pdfrwt beam="1">  1       21 0.16773187E-01 0.45525103E+03</pdfrwt>
<pdfrwt beam="2">  1       21 0.66804922E-01 0.45525103E+03</pdfrwt>
<totfact> 0.60550887E+04</totfact>
</mgrwt>
</event>
<event>
 7    0  0.4748297E-002  0.4308554E+03  0.7546771E-02  0.1033590E+00
         21   -1    0    0  502  501  0.00000000000E+00  0.00000000000E+00  0.44260087532E+03  0.44260087532E+03  0.00000000000E+00 0.  1.
         21   -1    0    0  501  502 -0.00000000000E+00 -0.00000000000E+00 -0.10485541429E+03  0.10485541429E+03  0.00000000000E+00 0.  1.
      99926    2    1    2    0    0  0.35527136788E-14  0.00000000000E+00  0.33774546103E+03  0.54745628961E+03  0.43085541959E+03 0.  0.
      99925    2    3    3    0    0  0.22132017321E+02  0.45447225452E+02  0.30998275283E+03  0.40971177045E+03  0.26309532740E+03 0.  0.
         25    1    4    4    0    0  0.50778812277E+02  0.28654006411E+02  0.14777637380E+03  0.20220015977E+03  0.12509000000E+03 0.  0.
         25    1    4    4    0    0 -0.28646794956E+02  0.16793219041E+02  0.16220637903E+03  0.20751161068E+03  0.12509000000E+03 0.  0.
         25    1    3    3    0    0 -0.22132017321E+02 -0.45447225452E+02  0.27762708197E+02  0.13774451916E+03  0.12509000000E+03 0.  0.
<mgrwt>
<rscale>  2 0.43085542E+03</rscale>
<asrwt>0</asrwt>
<pdfrwt beam="1">  1       21 0.65088363E-01 0.43085542E+03</pdfrwt>
<pdfrwt beam="2">  1       21 0.15419914E-01 0.43085542E+03</pdfrwt>
<totfact> 0.75447991E+04</totfact>
</mgrwt>
</event>
<event>
 7    0  0.4748297E-002  0.4546921E+03  0.7546771E-02  0.1026332E+00
         21   -1    0    0  502  501  0.00000000000E+00  0.00000000000E+00  0.13160131546E+03  0.13160131546E+03  0.00000000000E+00 0. -1.
         21   -1    0    0  501  502 -0.00000000000E+00 -0.00000000000E+00 -0.39274860622E+03  0.39274860622E+03  0.00000000000E+00 0. -1.
      99926    2    1    2    0    0  0.71054273576E-14  0.00000000000E+00 -0.26114729076E+03  0.52434992167E+03  0.45469212978E+03 0.  0.
      99925    2    3    3    0    0 -0.39235835478E+02 -0.10542948302E+03 -0.15417607154E+03  0.32498799823E+03  0.26304393413E+03 0.  0.
         25    1    3    3    0    0  0.39235835478E+02  0.10542948302E+03 -0.10697121923E+03  0.19936192344E+03  0.12509000000E+03 0.  0.
         25    1    4    4    0    0  0.12146762581E+02 -0.50636380295E+02 -0.45068006875E+02  0.14279432830E+03  0.12509000000E+03 0.  0.
         25    1    4    4    0    0 -0.51382598059E+02 -0.54793102727E+02 -0.10910806466E+03  0.18219366993E+03  0.12509000000E+03 0.  0.
<mgrwt>
<rscale>  2 0.45469213E+03</rscale>
<asrwt>0</asrwt>
<pdfrwt beam="1">  1       21 0.19353135E-01 0.45469213E+03</pdfrwt>
<pdfrwt beam="2">  1       21 0.57757147E-01 0.45469213E+03</pdfrwt>
<totfact> 0.63746043E+04</totfact>
</mgrwt>
</event>
<event>
 7    0  0.4748297E-002  0.4584967E+03  0.7546771E-02  0.1025218E+00
         21   -1    0    0  502  501  0.00000000000E+00  0.00000000000E+00  0.18930783217E+03  0.18930783217E+03  0.00000000000E+00 0. -1.
         21   -1    0    0  501  502 -0.00000000000E+00 -0.00000000000E+00 -0.27761555751E+03  0.27761555751E+03  0.00000000000E+00 0. -1.
      99926    2    1    2    0    0  0.00000000000E+00  0.00000000000E+00 -0.88307725340E+02  0.46692338967E+03  0.45849667117E+03 0.  0.
      99925    2    3    3    0    0 -0.54579679165E+02  0.10282885611E+03 -0.59786306120E+02  0.29367878086E+03  0.26290703472E+03 0.  0.
         25    1    3    3    0    0  0.54579679165E+02 -0.10282885611E+03 -0.28521419220E+02  0.17324460881E+03  0.12509000000E+03 0.  0.
         25    1    4    4    0    0 -0.21373306640E+02  0.45436155402E+02 -0.69716828787E+02  0.15175377020E+03  0.12509000000E+03 0.  0.
         25    1    4    4    0    0 -0.33206372525E+02  0.57392700711E+02  0.99305226669E+01  0.14192501066E+03  0.12509000000E+03 0.  0.
<mgrwt>
<rscale>  2 0.45849667E+03</rscale>
<asrwt>0</asrwt>
<pdfrwt beam="1">  1       21 0.27839387E-01 0.45849667E+03</pdfrwt>
<pdfrwt beam="2">  1       21 0.40825817E-01 0.45849667E+03</pdfrwt>
<totfact> 0.65819041E+04</totfact>
</mgrwt>
</event>
<event>
 7    0  0.4748297E-002  0.4393804E+03  0.7546771E-02  0.1030937E+00
         21   -1    0    0  502  501  0.00000000000E+00  0.00000000000E+00  0.71634775048E+02  0.71634775048E+02  0.00000000000E+00 0. -1.
         21   -1    0    0  501  502 -0.00000000000E+00 -0.00000000000E+00 -0.67374790337E+03  0.67374790337E+03  0.00000000000E+00 0. -1.
      99926    2    1    2    0    0  0.00000000000E+00  0.00000000000E+00 -0.60211312832E+03  0.74538267842E+03  0.43938037961E+03 0.  0.
      99925    2    3    3    0    0 -0.77813989777E+02 -0.54964679723E+02 -0.33668591961E+03  0.43687782555E+03  0.26158878601E+03 0.  0.
         25    1    4    4    0    0 -0.72832960334E+02 -0.13357398790E+02 -0.15696506258E+03  0.21393596983E+03  0.12509000000E+03 0.  0.
         25    1    3    3    0    0  0.77813989777E+02  0.54964679723E+02 -0.26542720871E+03  0.30850485287E+03  0.12509000000E+03 0.  0.
         25    1    4    4    0    0 -0.49810294433E+01 -0.41607280933E+02 -0.17972085703E+03  0.22294185572E+03  0.12509000000E+03 0.  0.
<mgrwt>
<rscale>  2 0.43938038E+03</rscale>
<asrwt>0</asrwt>
<pdfrwt beam="1">  1       21 0.10534525E-01 0.43938038E+03</pdfrwt>
<pdfrwt beam="2">  1       21 0.99080577E-01 0.43938038E+03</pdfrwt>
<totfact> 0.57214861E+04</totfact>
</mgrwt>
</event>
<event>
 7    0  0.4748297E-002  0.4443572E+03  0.7546771E-02  0.1029418E+00
         21   -1    0    0  502  501  0.00000000000E+00  0.00000000000E+00  0.35431536490E+03  0.35431536490E+03  0.00000000000E+00 0.  1.
         21   -1    0    0  501  502 -0.00000000000E+00 -0.00000000000E+00 -0.13932034040E+03  0.13932034040E+03  0.00000000000E+00 0.  1.
      99926    2    1    2    0    0  0.00000000000E+00  0.00000000000E+00  0.21499502449E+03  0.49363570530E+03  0.44435723128E+03 0.  0.
      99925    2    3    3    0    0  0.52904317336E+02  0.35808492922E+02  0.22619920511E+03  0.35273092638E+03  0.26300553431E+03 0.  0.
         25    1    4    4    0    0  0.54783472270E+02  0.23837162284E+01  0.83716669596E+02  0.16019644130E+03  0.12509000000E+03 0.  0.
         25    1    4    4    0    0 -0.18791549345E+01  0.33424776694E+02  0.14248253551E+03  0.19253448508E+03  0.12509000000E+03 0.  0.
         25    1    3    3    0    0 -0.52904317336E+02 -0.35808492922E+02 -0.11204180614E+02  0.14090477892E+03  0.12509000000E+03 0.  0.
<mgrwt>
<rscale>  2 0.44435723E+03</rscale>
<asrwt>0</asrwt>
<pdfrwt beam="1">  1       21 0.52105200E-01 0.44435723E+03</pdfrwt>
<pdfrwt beam="2">  1       21 0.20488285E-01 0.44435723E+03</pdfrwt>
<totfact> 0.71578837E+04</totfact>
</mgrwt>
</event>
<event>
 7    0  0.4748297E-002  0.4544404E+03  0.7546771E-02  0.1026406E+00
         21   -1    0    0  502  501  0.00000000000E+00  0.00000000000E+00  0.34632005238E+03  0.34632005238E+03  0.00000000000E+00 0.  1.
         21   -1    0    0  501  502 -0.00000000000E+00 -0.00000000000E+00 -0.14907891151E+03  0.14907891151E+03  0.00000000000E+00 0.  1.
      99926    2    1    2    0    0  0.00000000000E+00  0.00000000000E+00  0.19724114087E+03  0.49539896390E+03  0.45444038749E+03 0.  0.
      99925    2    3    3    0    0 -0.34928938897E+02  0.57427097563E+02  0.22261482010E+03  0.35114490328E+03  0.26311116028E+03 0.  0.
         25    1    4    4    0    0 -0.77267486557E+01  0.31462444334E+02  0.59727421751E+02  0.14235329662E+03  0.12509000000E+03 0.  0.
         25    1    4    4    0    0 -0.27202190241E+02  0.25964653229E+02  0.16288739835E+03  0.20879160666E+03  0.12509000000E+03 0.  0.
         25    1    3    3    0    0  0.34928938897E+02 -0.57427097563E+02 -0.25373679233E+02  0.14425406062E+03  0.12509000000E+03 0.  0.
<mgrwt>
<rscale>  2 0.45444039E+03</rscale>
<asrwt>0</asrwt>
<pdfrwt beam="1">  1       21 0.50929419E-01 0.45444039E+03</pdfrwt>
<pdfrwt beam="2">  1       21 0.21923369E-01 0.45444039E+03</pdfrwt>
<totfact> 0.65887334E+04</totfact>
</mgrwt>
</event>
<event>
 7    0  0.4748297E-002  0.4489717E+03  0.7546771E-02  0.1028029E+00
         21   -1    0    0  502  501  0.00000000000E+00  0.00000000000E+00  0.10419643603E+03  0.10419643603E+03  0.00000000000E+00 0. -1.
         21   -1    0    0  501  502 -0.00000000000E+00 -0.00000000000E+00 -0.48364316096E+03  0.48364316096E+03  0.00000000000E+00 0. -1.
      99926    2    1    2    0    0  0.00000000000E+00  0.00000000000E+00 -0.37944672493E+03  0.58783959699E+03  0.44897168590E+03 0.  0.
      99925    2    3    3    0    0 -0.40901823328E+02  0.92126941544E+02 -0.28856322541E+03  0.40326535422E+03  0.26304729299E+03 0.  0.
         25    1    4    4    0    0 -0.61121678667E+02  0.41934496706E+02 -0.14788667150E+03  0.20739415933E+03  0.12509000000E+03 0.  0.
         25    1    3    3    0    0  0.40901823328E+02 -0.92126941544E+02 -0.90883499516E+02  0.18457424277E+03  0.12509000000E+03 0.  0.
         25    1    4    4    0    0  0.20219855339E+02  0.50192444838E+02 -0.14067655391E+03  0.19587119489E+03  0.12509000000E+03 0.  0.
<mgrwt>
<rscale>  2 0.44897169E+03</rscale>
<asrwt>0</asrwt>
<pdfrwt beam="1">  1       21 0.15323005E-01 0.44897169E+03</pdfrwt>
<pdfrwt beam="2">  1       21 0.71123994E-01 0.44897169E+03</pdfrwt>
<totfact> 0.62351228E+04</totfact>
</mgrwt>
</event>
<event>
 6    0  0.4748297E-002  0.4531318E+03  0.7546771E-02  0.1026792E+00
         21   -1    0    0  502  501  0.00000000000E+00  0.00000000000E+00  0.11194053670E+03  0.11194053670E+03  0.00000000000E+00 0. -1.
         21   -1    0    0  501  502 -0.00000000000E+00 -0.00000000000E+00 -0.45856578488E+03  0.45856578488E+03  0.00000000000E+00 0. -1.
      99926    2    1    2    0    0  0.00000000000E+00  0.00000000000E+00 -0.34662524818E+03  0.57050632157E+03  0.45313176922E+03 0.  0.
         25    1    3    3    0    0 -0.23745020993E+02  0.40271441210E+02 -0.17268338011E+03  0.21829492176E+03  0.12509000000E+03 0.  0.
         25    1    3    3    0    0  0.25109877298E+02 -0.91053738363E+02 -0.39427267860E+02  0.16162706073E+03  0.12509000000E+03 0.  0.
         25    1    3    3    0    0 -0.13648563052E+01  0.50782297154E+02 -0.13451460021E+03  0.19058433909E+03  0.12509000000E+03 0.  0.
<mgrwt>
<rscale>  2 0.45313177E+03</rscale>
<asrwt>0</asrwt>
<pdfrwt beam="1">  1       21 0.16461843E-01 0.45313177E+03</pdfrwt>
<pdfrwt beam="2">  1       21 0.67436145E-01 0.45313177E+03</pdfrwt>
<totfact> 0.61433999E+04</totfact>
</mgrwt>
</event>
<event>
 7    0  0.4748297E-002  0.4606422E+03  0.7546771E-02  0.1024595E+00
         21   -1    0    0  502  501  0.00000000000E+00  0.00000000000E+00  0.37943479356E+03  0.37943479356E+03  0.00000000000E+00 0.  1.
         21   -1    0    0  501  502 -0.00000000000E+00 -0.00000000000E+00 -0.13980741586E+03  0.13980741586E+03  0.00000000000E+00 0.  1.
      99926    2    1    2    0    0  0.00000000000E+00  0.35527136788E-14  0.23962737770E+03  0.51924220941E+03  0.46064215167E+03 0.  0.
      99925    2    3    3    0    0  0.11450225478E+03 -0.19098824096E+02  0.17770908584E+03  0.33770181611E+03  0.26265274791E+03 0.  0.
         25    1    3    3    0    0 -0.11450225478E+03  0.19098824096E+02  0.61918291860E+02  0.18154039330E+03  0.12509000000E+03 0.  0.
         25    1    4    4    0    0  0.82201641937E+02 -0.42397776874E+02  0.88493304415E+02  0.17897836307E+03  0.12509000000E+03 0.  0.
         25    1    4    4    0    0  0.32300612846E+02  0.23298952778E+02  0.89215781426E+02  0.15872345304E+03  0.12509000000E+03 0.  0.
<mgrwt>
<rscale>  2 0.46064215E+03</rscale>
<asrwt>0</asrwt>
<pdfrwt beam="1">  1       21 0.55799234E-01 0.46064215E+03</pdfrwt>
<pdfrwt beam="2">  1       21 0.20559914E-01 0.46064215E+03</pdfrwt>
<totfact> 0.61154848E+04</totfact>
</mgrwt>
</event>
<event>
 7    0  0.4748297E-002  0.4597360E+03  0.7546771E-02  0.1024858E+00
         21   -1    0    0  502  501  0.00000000000E+00  0.00000000000E+00  0.22525242222E+03  0.22525242222E+03  0.00000000000E+00 0.  1.
         21   -1    0    0  501  502 -0.00000000000E+00 -0.00000000000E+00 -0.23457817484E+03  0.23457817484E+03  0.00000000000E+00 0.  1.
      99926    2    1    2    0    0  0.00000000000E+00  0.00000000000E+00 -0.93257526183E+01  0.45983059706E+03  0.45973602027E+03 0.  0.
      99925    2    3    3    0    0 -0.10092792157E+03 -0.40323317389E+01  0.54488326760E+02  0.28684952908E+03  0.26288965276E+03 0.  0.
         25    1    4    4    0    0 -0.50496111960E+02  0.11070988300E+02  0.66115221769E+02  0.15063583490E+03  0.12509000000E+03 0.  0.
         25    1    4    4    0    0 -0.50431809612E+02 -0.15103320039E+02 -0.11626895009E+02  0.13621369419E+03  0.12509000000E+03 0.  0.
         25    1    3    3    0    0  0.10092792157E+03  0.40323317389E+01 -0.63814079379E+02  0.17298106798E+03  0.12509000000E+03 0.  0.
<mgrwt>
<rscale>  2 0.45973602E+03</rscale>
<asrwt>0</asrwt>
<pdfrwt beam="1">  1       21 0.33125356E-01 0.45973602E+03</pdfrwt>
<pdfrwt beam="2">  1       21 0.34496790E-01 0.45973602E+03</pdfrwt>
<totfact> 0.65676238E+04</totfact>
</mgrwt>
</event>
<event>
 7    0  0.4748297E-002  0.4503093E+03  0.7546771E-02  0.1027630E+00
         21   -1    0    0  502  501  0.00000000000E+00  0.00000000000E+00  0.17145505250E+03  0.17145505250E+03  0.00000000000E+00 0.  1.
         21   -1    0    0  501  502 -0.00000000000E+00 -0.00000000000E+00 -0.29567286926E+03  0.29567286926E+03  0.00000000000E+00 0.  1.
      99926    2    1    2    0    0  0.00000000000E+00  0.00000000000E+00 -0.12421781676E+03  0.46712792176E+03  0.45030925961E+03 0.  0.
      99925    2    3    3    0    0  0.70229434124E+02  0.79754243770E+02 -0.55537889038E+02  0.28920278754E+03  0.26317462336E+03 0.  0.
         25    1    3    3    0    0 -0.70229434124E+02 -0.79754243770E+02 -0.68679927718E+02  0.17792513422E+03  0.12509000000E+03 0.  0.
         25    1    4    4    0    0  0.11949317137E+02  0.72212837330E+02 -0.38446961489E+02  0.14994384617E+03  0.12509000000E+03 0.  0.
         25    1    4    4    0    0  0.58280116987E+02  0.75414064404E+01 -0.17090927550E+02  0.13925894137E+03  0.12509000000E+03 0.  0.
<mgrwt>
<rscale>  2 0.45030926E+03</rscale>
<asrwt>0</asrwt>
<pdfrwt beam="1">  1       21 0.25213979E-01 0.45030926E+03</pdfrwt>
<pdfrwt beam="2">  1       21 0.43481304E-01 0.45030926E+03</pdfrwt>
<totfact> 0.70227100E+04</totfact>
</mgrwt>
</event>
<event>
 7    0  0.4748297E-002  0.4475844E+03  0.7546771E-02  0.1028445E+00
         21   -1    0    0  502  501  0.00000000000E+00  0.00000000000E+00  0.42207839219E+03  0.42207839219E+03  0.00000000000E+00 0. -1.
         21   -1    0    0  501  502 -0.00000000000E+00 -0.00000000000E+00 -0.11865795731E+03  0.11865795731E+03  0.00000000000E+00 0. -1.
      99926    2    1    2    0    0 -0.71054273576E-14  0.35527136788E-14  0.30342043487E+03  0.54073634950E+03  0.44758444943E+03 0.  0.
      99925    2    3    3    0    0 -0.34334229106E+02  0.31173266673E+02  0.77049942003E+02  0.27797843813E+03  0.26302985888E+03 0.  0.
         25    1    4    4    0    0 -0.26134099494E+01  0.33735059162E+02  0.73233398227E+02  0.14884731386E+03  0.12509000000E+03 0.  0.
         25    1    3    3    0    0  0.34334229106E+02 -0.31173266673E+02  0.22637049287E+03  0.26275791137E+03  0.12509000000E+03 0.  0.
         25    1    4    4    0    0 -0.31720819157E+02 -0.25617924899E+01  0.38165437763E+01  0.12913112427E+03  0.12509000000E+03 0.  0.
<mgrwt>
<rscale>  2 0.44758445E+03</rscale>
<asrwt>0</asrwt>
<pdfrwt beam="1">  1       21 0.62070351E-01 0.44758445E+03</pdfrwt>
<pdfrwt beam="2">  1       21 0.17449700E-01 0.44758445E+03</pdfrwt>
<totfact> 0.66288102E+04</totfact>
</mgrwt>
</event>
<event>
 7    0  0.4748297E-002  0.4503566E+03  0.7546771E-02  0.1027616E+00
         21   -1    0    0  502  501  0.00000000000E+00  0.00000000000E+00  0.94991943851E+02  0.94991943851E+02  0.00000000000E+00 0.  1.
         21   -1    0    0  501  502 -0.00000000000E+00 -0.00000000000E+00 -0.53378480260E+03  0.53378480260E+03  0.00000000000E+00 0.  1.
      99926    2    1    2    0    0  0.00000000000E+00  0.00000000000E+00 -0.43879285875E+03  0.62877674645E+03  0.45035655207E+03 0.  0.
      99925    2    3    3    0    0  0.10819353904E+03 -0.93738757324E+01 -0.26909003784E+03  0.39162644187E+03  0.26299830811E+03 0.  0.
         25    1    4    4    0    0  0.46290550917E+02  0.28613964126E+02 -0.10019736593E+03  0.16925895630E+03  0.12509000000E+03 0.  0.
         25    1    4    4    0    0  0.61902988128E+02 -0.37987839858E+02 -0.16889267191E+03  0.22236748558E+03  0.12509000000E+03 0.  0.
         25    1    3    3    0    0 -0.10819353904E+03  0.93738757324E+01 -0.16970282091E+03  0.23715030458E+03  0.12509000000E+03 0.  0.
<mgrwt>
<rscale>  2 0.45035655E+03</rscale>
<asrwt>0</asrwt>
<pdfrwt beam="1">  1       21 0.13969404E-01 0.45035655E+03</pdfrwt>
<pdfrwt beam="2">  1       21 0.78497764E-01 0.45035655E+03</pdfrwt>
<totfact> 0.59076959E+04</totfact>
</mgrwt>
</event>
<event>
 7    0  0.4748297E-002  0.4522313E+03  0.7546771E-02  0.1027059E+00
         21   -1    0    0  502  501  0.00000000000E+00  0.00000000000E+00  0.23568594271E+03  0.23568594271E+03  0.00000000000E+00 0. -1.
         21   -1    0    0  501  502 -0.00000000000E+00 -0.00000000000E+00 -0.21693392621E+03  0.21693392621E+03  0.00000000000E+00 0. -1.
      99926    2    1    2    0    0 -0.71054273576E-14  0.00000000000E+00  0.18752016496E+02  0.45261986892E+03  0.45223125458E+03 0.  0.
      99925    2    3    3    0    0  0.63011938563E+02 -0.89165228670E+02  0.28955676723E+02  0.28626913948E+03  0.26304115001E+03 0.  0.
         25    1    4    4    0    0  0.50512078038E+02 -0.84003095714E+02  0.19132422067E+02  0.16006732268E+03  0.12509000000E+03 0.  0.
         25    1    3    3    0    0 -0.63011938563E+02  0.89165228670E+02 -0.10203660227E+02  0.16635072945E+03  0.12509000000E+03 0.  0.
         25    1    4    4    0    0  0.12499860524E+02 -0.51621329558E+01  0.98232546560E+01  0.12620181679E+03  0.12509000000E+03 0.  0.
<mgrwt>
<rscale>  2 0.45223125E+03</rscale>
<asrwt>0</asrwt>
<pdfrwt beam="1">  1       21 0.34659698E-01 0.45223125E+03</pdfrwt>
<pdfrwt beam="2">  1       21 0.31902048E-01 0.45223125E+03</pdfrwt>
<totfact> 0.70259898E+04</totfact>
</mgrwt>
</event>
<event>
 7    0  0.4748297E-002  0.4559446E+03  0.7546771E-02  0.1025964E+00
         21   -1    0    0  502  501  0.00000000000E+00  0.00000000000E+00  0.25484843729E+03  0.25484843729E+03  0.00000000000E+00 0. -1.
         21   -1    0    0  501  502 -0.00000000000E+00 -0.00000000000E+00 -0.20393052314E+03  0.20393052314E+03  0.00000000000E+00 0. -1.
      99926    2    1    2    0    0  0.71054273576E-14  0.00000000000E+00  0.50917914153E+02  0.45877896042E+03  0.45594462443E+03 0.  0.
      99925    2    3    3    0    0  0.48701221488E+02  0.99171196142E+02  0.60592977556E+02  0.29160285546E+03  0.26297144572E+03 0.  0.
         25    1    3    3    0    0 -0.48701221488E+02 -0.99171196142E+02 -0.96750634031E+01  0.16717610496E+03  0.12509000000E+03 0.  0.
         25    1    4    4    0    0  0.29533196977E+02  0.88695515912E+02  0.15835426957E+02  0.15696296733E+03  0.12509000000E+03 0.  0.
         25    1    4    4    0    0  0.19168024511E+02  0.10475680230E+02  0.44757550599E+02  0.13463988813E+03  0.12509000000E+03 0.  0.
<mgrwt>
<rscale>  2 0.45594462E+03</rscale>
<asrwt>0</asrwt>
<pdfrwt beam="1">  1       21 0.37477712E-01 0.45594462E+03</pdfrwt>
<pdfrwt beam="2">  1       21 0.29989783E-01 0.45594462E+03</pdfrwt>
<totfact> 0.67757660E+04</totfact>
</mgrwt>
</event>
<event>
 7    0  0.4748297E-002  0.4479674E+03  0.7546771E-02  0.1028330E+00
         21   -1    0    0  502  501  0.00000000000E+00  0.00000000000E+00  0.81938079501E+02  0.81938079501E+02  0.00000000000E+00 0.  1.
         21   -1    0    0  501  502 -0.00000000000E+00 -0.00000000000E+00 -0.61227585610E+03  0.61227585610E+03  0.00000000000E+00 0.  1.
      99926    2    1    2    0    0  0.00000000000E+00  0.17763568394E-14 -0.53033777660E+03  0.69421393560E+03  0.44796744424E+03 0.  0.
      99925    2    3    3    0    0 -0.22255554698E+02 -0.10080379867E+02 -0.49651509701E+03  0.56234883208E+03  0.26289169558E+03 0.  0.
         25    1    3    3    0    0  0.22255554698E+02  0.10080379867E+02 -0.33822679587E+02  0.13186510353E+03  0.12509000000E+03 0.  0.
         25    1    4    4    0    0  0.12938947723E+02  0.12948776241E+02 -0.18540452818E+03  0.22440462193E+03  0.12509000000E+03 0.  0.
         25    1    4    4    0    0 -0.35194502421E+02 -0.23029156108E+02 -0.31111056883E+03  0.33794421015E+03  0.12509000000E+03 0.  0.
<mgrwt>
<rscale>  2 0.44796744E+03</rscale>
<asrwt>0</asrwt>
<pdfrwt beam="1">  1       21 0.12049718E-01 0.44796744E+03</pdfrwt>
<pdfrwt beam="2">  1       21 0.90040564E-01 0.44796744E+03</pdfrwt>
<totfact> 0.56268806E+04</totfact>
</mgrwt>
</event>
<event>
 7    0  0.4748297E-002  0.4511250E+03  0.7546771E-02  0.1027387E+00
         21   -1    0    0  502  501  0.00000000000E+00  0.00000000000E+00  0.65950358560E+02  0.65950358560E+02  0.00000000000E+00 0.  1.
         21   -1    0    0  501  502 -0.00000000000E+00 -0.00000000000E+00 -0.77146567368E+03  0.77146567368E+03  0.00000000000E+00 0.  1.
      99926    2    1    2    0    0  0.35527136788E-14  0.00000000000E+00 -0.70551531512E+03  0.83741603224E+03  0.45112498400E+03 0.  0.
      99925    2    3    3    0    0 -0.21886835661E+02  0.37513958438E+02 -0.25883033090E+03  0.37151763787E+03  0.26295605032E+03 0.  0.
         25    1    4    4    0    0  0.28532650687E+01 -0.19832061838E+02 -0.12528531054E+03  0.17817230125E+03  0.12509000000E+03 0.  0.
         25    1    4    4    0    0 -0.24740100729E+02  0.57346020275E+02 -0.13354502037E+03  0.19334533661E+03  0.12509000000E+03 0.  0.
         25    1    3    3    0    0  0.21886835661E+02 -0.37513958438E+02 -0.44668498422E+03  0.46589839438E+03  0.12509000000E+03 0.  0.
<mgrwt>
<rscale>  2 0.45112498E+03</rscale>
<asrwt>0</asrwt>
<pdfrwt beam="1">  1       21 0.96985834E-02 0.45112498E+03</pdfrwt>
<pdfrwt beam="2">  1       21 0.11345082E+00 0.45112498E+03</pdfrwt>
<totfact> 0.47433346E+04</totfact>
</mgrwt>
</event>
<event>
 7    0  0.4748297E-002  0.4652122E+03  0.7546771E-02  0.1023280E+00
         21   -1    0    0  502  501  0.00000000000E+00  0.00000000000E+00  0.23620450050E+02  0.23620450050E+02  0.00000000000E+00 0. -1.
         21   -1    0    0  501  502 -0.00000000000E+00 -0.00000000000E+00 -0.22906250406E+04  0.22906250406E+04  0.00000000000E+00 0. -1.
      99926    2    1    2    0    0 -0.14210854715E-13  0.71054273576E-14 -0.22670045905E+04  0.23142454906E+04  0.46521218537E+03 0.  0.
      99925    2    3    3    0    0 -0.85473923493E+02  0.41021286971E+02 -0.17997452998E+04  0.18213283673E+04  0.26299304148E+03 0.  0.
         25    1    4    4    0    0 -0.59115484640E+02 -0.78928969156E+01 -0.74980257112E+03  0.76250137187E+03  0.12509000000E+03 0.  0.
         25    1    4    4    0    0 -0.26358438853E+02  0.48914183886E+02 -0.10499427286E+04  0.10588269954E+04  0.12509000000E+03 0.  0.
         25    1    3    3    0    0  0.85473923493E+02 -0.41021286971E+02 -0.46725929078E+03  0.49291712336E+03  0.12509000000E+03 0.  0.
<mgrwt>
<rscale>  2 0.46521219E+03</rscale>
<asrwt>0</asrwt>
<pdfrwt beam="1">  1       21 0.34735980E-02 0.46521219E+03</pdfrwt>
<pdfrwt beam="2">  1       21 0.33685639E+00 0.46521219E+03</pdfrwt>
<totfact> 0.85273561E+03</totfact>
</mgrwt>
</event>
<event>
 7    0  0.4748297E-002  0.4570354E+03  0.7546771E-02  0.1025645E+00
         21   -1    0    0  502  501  0.00000000000E+00  0.00000000000E+00  0.10265803368E+03  0.10265803368E+03  0.00000000000E+00 0. -1.
         21   -1    0    0  501  502 -0.00000000000E+00 -0.00000000000E+00 -0.50868236134E+03  0.50868236134E+03  0.00000000000E+00 0. -1.
      99926    2    1    2    0    0  0.00000000000E+00 -0.71054273576E-14 -0.40602432767E+03  0.61134039502E+03  0.45703536397E+03 0.  0.
      99925    2    3    3    0    0  0.69107166570E+02  0.50469636155E+02 -0.15221542436E+03  0.31572332490E+03  0.26303744568E+03 0.  0.
         25    1    4    4    0    0 -0.17242251355E+01  0.11572559774E+02 -0.88864151333E+02  0.15388710987E+03  0.12509000000E+03 0.  0.
         25    1    3    3    0    0 -0.69107166570E+02 -0.50469636155E+02 -0.25380890331E+03  0.29561707011E+03  0.12509000000E+03 0.  0.
         25    1    4    4    0    0  0.70831391706E+02  0.38897076381E+02 -0.63351273028E+02  0.16183621503E+03  0.12509000000E+03 0.  0.
<mgrwt>
<rscale>  2 0.45703536E+03</rscale>
<asrwt>0</asrwt>
<pdfrwt beam="1">  1       21 0.15096770E-01 0.45703536E+03</pdfrwt>
<pdfrwt beam="2">  1       21 0.74806230E-01 0.45703536E+03</pdfrwt>
<totfact> 0.57062683E+04</totfact>
</mgrwt>
</event>
<event>
 7    0  0.4748297E-002  0.4472277E+03  0.7546771E-02  0.1028552E+00
         21   -1    0    0  502  501  0.00000000000E+00  0.00000000000E+00  0.15396394613E+03  0.15396394613E+03  0.00000000000E+00 0.  1.
         21   -1    0    0  501  502 -0.00000000000E+00 -0.00000000000E+00 -0.32477179516E+03  0.32477179516E+03  0.00000000000E+00 0.  1.
      99926    2    1    2    0    0  0.00000000000E+00  0.14210854715E-13 -0.17080784902E+03  0.47873574129E+03  0.44722766988E+03 0.  0.
      99925    2    3    3    0    0  0.53705193486E+02  0.89759125927E+02 -0.12439957675E+03  0.30920054044E+03  0.26303758480E+03 0.  0.
         25    1    3    3    0    0 -0.53705193486E+02 -0.89759125927E+02 -0.46408272273E+02  0.16953520086E+03  0.12509000000E+03 0.  0.
         25    1    4    4    0    0  0.12693615138E+02  0.68398512472E+02 -0.31186425243E+02  0.14649090618E+03  0.12509000000E+03 0.  0.
         25    1    4    4    0    0  0.41011578348E+02  0.21360613455E+02 -0.93213151508E+02  0.16270963426E+03  0.12509000000E+03 0.  0.
<mgrwt>
<rscale>  2 0.44722767E+03</rscale>
<asrwt>0</asrwt>
<pdfrwt beam="1">  1       21 0.22641757E-01 0.44722767E+03</pdfrwt>
<pdfrwt beam="2">  1       21 0.47760558E-01 0.44722767E+03</pdfrwt>
<totfact> 0.71077330E+04</totfact>
</mgrwt>
</event>
<event>
 7    0  0.4748297E-002  0.4423627E+03  0.7546771E-02  0.1030024E+00
         21   -1    0    0  502  501  0.00000000000E+00  0.00000000000E+00  0.85112720785E+02  0.85112720785E+02  0.00000000000E+00 0.  1.
         21   -1    0    0  501  502 -0.00000000000E+00 -0.00000000000E+00 -0.57478105468E+03  0.57478105468E+03  0.00000000000E+00 0.  1.
      99926    2    1    2    0    0  0.00000000000E+00  0.00000000000E+00 -0.48966833390E+03  0.65989377547E+03  0.44236265403E+03 0.  0.
      99925    2    3    3    0    0  0.41911441324E+02 -0.63468797241E+02 -0.41067336246E+03  0.49354302930E+03  0.26295865455E+03 0.  0.
         25    1    3    3    0    0 -0.41911441324E+02  0.63468797241E+02 -0.78994971441E+02  0.16635074617E+03  0.12509000000E+03 0.  0.
         25    1    4    4    0    0  0.10643277630E+02 -0.62226006127E+02 -0.16819899533E+03  0.21891497282E+03  0.12509000000E+03 0.  0.
         25    1    4    4    0    0  0.31268163695E+02 -0.12427911138E+01 -0.24247436713E+03  0.27462805648E+03  0.12509000000E+03 0.  0.
<mgrwt>
<rscale>  2 0.44236265E+03</rscale>
<asrwt>0</asrwt>
<pdfrwt beam="1">  1       21 0.12516576E-01 0.44236265E+03</pdfrwt>
<pdfrwt beam="2">  1       21 0.84526627E-01 0.44236265E+03</pdfrwt>
<totfact> 0.60985960E+04</totfact>
</mgrwt>
</event>
<event>
 7    0  0.4748297E-002  0.4602678E+03  0.7546771E-02  0.1024704E+00
         21   -1    0    0  502  501  0.00000000000E+00  0.00000000000E+00  0.76375508533E+03  0.76375508533E+03  0.00000000000E+00 0.  1.
         21   -1    0    0  501  502 -0.00000000000E+00 -0.00000000000E+00 -0.69343720111E+02  0.69343720111E+02  0.00000000000E+00 0.  1.
      99926    2    1    2    0    0 -0.14210854715E-13 -0.14210854715E-13  0.69441136522E+03  0.83309880544E+03  0.46026783016E+03 0.  0.
      99925    2    3    3    0    0  0.66050589033E+02  0.93803798163E+02  0.48430601952E+03  0.56299956951E+03  0.26316223486E+03 0.  0.
         25    1    3    3    0    0 -0.66050589033E+02 -0.93803798163E+02  0.21010534570E+03  0.27009923594E+03  0.12509000000E+03 0.  0.
         25    1    4    4    0    0  0.26961910204E+02  0.57408676556E+02  0.16905566177E+03  0.21965888469E+03  0.12509000000E+03 0.  0.
         25    1    4    4    0    0  0.39088678829E+02  0.36395121608E+02  0.31525035775E+03  0.34334068482E+03  0.12509000000E+03 0.  0.
<mgrwt>
<rscale>  2 0.46026783E+03</rscale>
<asrwt>0</asrwt>
<pdfrwt beam="1">  1       21 0.11231692E+00 0.46026783E+03</pdfrwt>
<pdfrwt beam="2">  1       21 0.10197606E-01 0.46026783E+03</pdfrwt>
<totfact> 0.44343775E+04</totfact>
</mgrwt>
</event>
<event>
 7    0  0.4748297E-002  0.4538826E+03  0.7546771E-02  0.1026571E+00
         21   -1    0    0  502  501  0.00000000000E+00  0.00000000000E+00  0.17800194386E+03  0.17800194386E+03  0.00000000000E+00 0. -1.
         21   -1    0    0  501  502 -0.00000000000E+00 -0.00000000000E+00 -0.28933590833E+03  0.28933590833E+03  0.00000000000E+00 0. -1.
      99926    2    1    2    0    0  0.00000000000E+00  0.00000000000E+00 -0.11133396447E+03  0.46733785218E+03  0.45388260204E+03 0.  0.
      99925    2    3    3    0    0  0.40019510769E+02  0.97012783445E+02 -0.29481813371E+02  0.28468976395E+03  0.26299437824E+03 0.  0.
         25    1    3    3    0    0 -0.40019510769E+02 -0.97012783445E+02 -0.81852151102E+02  0.18264808823E+03  0.12509000000E+03 0.  0.
         25    1    4    4    0    0  0.28256151825E+01  0.16325505922E+02 -0.35688887726E+02  0.13113241801E+03  0.12509000000E+03 0.  0.
         25    1    4    4    0    0  0.37193895586E+02  0.80687277523E+02  0.62070743550E+01  0.15355734595E+03  0.12509000000E+03 0.  0.
<mgrwt>
<rscale>  2 0.45388260E+03</rscale>
<asrwt>0</asrwt>
<pdfrwt beam="1">  1       21 0.26176757E-01 0.45388260E+03</pdfrwt>
<pdfrwt beam="2">  1       21 0.42549398E-01 0.45388260E+03</pdfrwt>
<totfact> 0.68237151E+04</totfact>
</mgrwt>
</event>
<event>
 7    0  0.4748297E-002  0.4549919E+03  0.7546771E-02  0.1026244E+00
         21   -1    0    0  502  501  0.00000000000E+00  0.00000000000E+00  0.23584162897E+03  0.23584162897E+03  0.00000000000E+00 0. -1.
         21   -1    0    0  501  502 -0.00000000000E+00 -0.00000000000E+00 -0.21944560291E+03  0.21944560291E+03  0.00000000000E+00 0. -1.
      99926    2    1    2    0    0  0.00000000000E+00 -0.14210854715E-13  0.16396026062E+02  0.45528723188E+03  0.45499190525E+03 0.  0.
      99925    2    3    3    0    0  0.79771111296E+02  0.80437461286E+02  0.11769671308E+02  0.28646031864E+03  0.26284477095E+03 0.  0.
         25    1    4    4    0    0  0.65576742752E+01  0.58773087677E+02 -0.79295973429E+01  0.13859172248E+03  0.12509000000E+03 0.  0.
         25    1    4    4    0    0  0.73213437021E+02  0.21664373609E+02  0.19699268651E+02  0.14786859616E+03  0.12509000000E+03 0.  0.
         25    1    3    3    0    0 -0.79771111296E+02 -0.80437461286E+02  0.46263547538E+01  0.16882691324E+03  0.12509000000E+03 0.  0.
<mgrwt>
<rscale>  2 0.45499191E+03</rscale>
<asrwt>0</asrwt>
<pdfrwt beam="1">  1       21 0.34682592E-01 0.45499191E+03</pdfrwt>
<pdfrwt beam="2">  1       21 0.32271412E-01 0.45499191E+03</pdfrwt>
<totfact> 0.68529197E+04</totfact>
</mgrwt>
</event>
<event>
 7    0  0.4748297E-002  0.4126118E+03  0.7546771E-02  0.1039498E+00
         21   -1    0    0  502  501  0.00000000000E+00  0.00000000000E+00  0.40671310198E+03  0.40671310198E+03  0.00000000000E+00 0.  1.
         21   -1    0    0  501  502 -0.00000000000E+00 -0.00000000000E+00 -0.10464902487E+03  0.10464902487E+03  0.00000000000E+00 0.  1.
      99926    2    1    2    0    0 -0.15543122345E-14 -0.71054273576E-14  0.30206407711E+03  0.51136212686E+03  0.41261182496E+03 0.  0.
      99925    2    3    3    0    0  0.16625542317E+01  0.62984313857E+02  0.22080290439E+03  0.34943413616E+03  0.26340179393E+03 0.  0.
         25    1    4    4    0    0 -0.31194184017E+02  0.44259739196E+02  0.14198895543E+03  0.19682574322E+03  0.12509000000E+03 0.  0.
         25    1    3    3    0    0 -0.16625542317E+01 -0.62984313857E+02  0.81261172720E+02  0.16192799069E+03  0.12509000000E+03 0.  0.
         25    1    4    4    0    0  0.32856738249E+02  0.18724574662E+02  0.78813948959E+02  0.15260839294E+03  0.12509000000E+03 0.  0.
<mgrwt>
<rscale>  2 0.41261182E+03</rscale>
<asrwt>0</asrwt>
<pdfrwt beam="1">  1       21 0.59810750E-01 0.41261182E+03</pdfrwt>
<pdfrwt beam="2">  1       21 0.15389563E-01 0.41261182E+03</pdfrwt>
<totfact> 0.91579579E+04</totfact>
</mgrwt>
</event>
<event>
 7    0  0.4748297E-002  0.4232796E+03  0.7546771E-02  0.1036004E+00
         21   -1    0    0  502  501  0.00000000000E+00  0.00000000000E+00  0.43072349976E+03  0.43072349976E+03  0.00000000000E+00 0.  1.
         21   -1    0    0  501  502 -0.00000000000E+00 -0.00000000000E+00 -0.10399111148E+03  0.10399111148E+03  0.00000000000E+00 0.  1.
      99926    2    1    2    0    0  0.00000000000E+00  0.00000000000E+00  0.32673238828E+03  0.53471461125E+03  0.42327964979E+03 0.  0.
      99925    2    3    3    0    0  0.44645975787E+02  0.27710394924E+02  0.28802911283E+03  0.39362392845E+03  0.26309294569E+03 0.  0.
         25    1    3    3    0    0 -0.44645975787E+02 -0.27710394924E+02  0.38703275446E+02  0.14109068279E+03  0.12509000000E+03 0.  0.
         25    1    4    4    0    0  0.60072982017E+02 -0.17879191776E+01  0.14462968646E+03  0.20044254571E+03  0.12509000000E+03 0.  0.
         25    1    4    4    0    0 -0.15427006230E+02  0.29498314102E+02  0.14339942637E+03  0.19318138275E+03  0.12509000000E+03 0.  0.
<mgrwt>
<rscale>  2 0.42327965E+03</rscale>
<asrwt>0</asrwt>
<pdfrwt beam="1">  1       21 0.63341690E-01 0.42327965E+03</pdfrwt>
<pdfrwt beam="2">  1       21 0.15292811E-01 0.42327965E+03</pdfrwt>
<totfact> 0.81502927E+04</totfact>
</mgrwt>
</event>
<event>
 7    0  0.4748297E-002  0.4529026E+03  0.7546771E-02  0.1026860E+00
         21   -1    0    0  502  501  0.00000000000E+00  0.00000000000E+00  0.12578778570E+04  0.12578778570E+04  0.00000000000E+00 0.  1.
         21   -1    0    0  501  502 -0.00000000000E+00 -0.00000000000E+00 -0.40767225398E+02  0.40767225398E+02  0.00000000000E+00 0.  1.
      99926    2    1    2    0    0  0.00000000000E+00  0.00000000000E+00  0.12171106316E+04  0.12986450824E+04  0.45290259492E+03 0.  0.
      99925    2    3    3    0    0  0.54912454795E+02 -0.96199061044E+02  0.73811295471E+03  0.79134249064E+03  0.26294974149E+03 0.  0.
         25    1    3    3    0    0 -0.54912454795E+02  0.96199061044E+02  0.47899767694E+03  0.50730259181E+03  0.12509000000E+03 0.  0.
         25    1    4    4    0    0  0.95367916648E+01 -0.22290892022E+02  0.25925090520E+03  0.28887086078E+03  0.12509000000E+03 0.  0.
         25    1    4    4    0    0  0.45375663131E+02 -0.73908169022E+02  0.47886204951E+03  0.50247162986E+03  0.12509000000E+03 0.  0.
<mgrwt>
<rscale>  2 0.45290259E+03</rscale>
<asrwt>0</asrwt>
<pdfrwt beam="1">  1       21 0.18498201E+00 0.45290259E+03</pdfrwt>
<pdfrwt beam="2">  1       21 0.59951810E-02 0.45290259E+03</pdfrwt>
<totfact> 0.29634523E+04</totfact>
</mgrwt>
</event>
<event>
 7    0  0.4748297E-002  0.4640671E+03  0.7546771E-02  0.1023608E+00
         21   -1    0    0  502  501  0.00000000000E+00  0.00000000000E+00  0.65521075182E+03  0.65521075182E+03  0.00000000000E+00 0.  1.
         21   -1    0    0  501  502 -0.00000000000E+00 -0.00000000000E+00 -0.82171357993E+02  0.82171357993E+02  0.00000000000E+00 0.  1.
      99926    2    1    2    0    0 -0.71054273576E-14 -0.35527136788E-14  0.57303939382E+03  0.73738210981E+03  0.46406705226E+03 0.  0.
      99925    2    3    3    0    0  0.43636503067E+02  0.16037708732E+02  0.17944732481E+03  0.32178184827E+03  0.26302255225E+03 0.  0.
         25    1    4    4    0    0  0.62428517906E+02  0.43315859358E+01  0.10018069629E+03  0.17204581510E+03  0.12509000000E+03 0.  0.
         25    1    3    3    0    0 -0.43636503067E+02 -0.16037708732E+02  0.39359206901E+03  0.41560026154E+03  0.12509000000E+03 0.  0.
         25    1    4    4    0    0 -0.18792014839E+02  0.11706122796E+02  0.79266628521E+02  0.14973603317E+03  0.12509000000E+03 0.  0.
<mgrwt>
<rscale>  2 0.46406705E+03</rscale>
<asrwt>0</asrwt>
<pdfrwt beam="1">  1       21 0.96354519E-01 0.46406705E+03</pdfrwt>
<pdfrwt beam="2">  1       21 0.12084024E-01 0.46406705E+03</pdfrwt>
<totfact> 0.47446087E+04</totfact>
</mgrwt>
</event>
<event>
 7    0  0.4748297E-002  0.4557738E+03  0.7546771E-02  0.1026014E+00
         21   -1    0    0  502  501  0.00000000000E+00  0.00000000000E+00  0.28521202328E+03  0.28521202328E+03  0.00000000000E+00 0.  1.
         21   -1    0    0  501  502 -0.00000000000E+00 -0.00000000000E+00 -0.18208362664E+03  0.18208362664E+03  0.00000000000E+00 0.  1.
      99926    2    1    2    0    0  0.00000000000E+00  0.00000000000E+00  0.10312839664E+03  0.46729564991E+03  0.45577380161E+03 0.  0.
      99925    2    3    3    0    0  0.99648496883E+02 -0.21971358359E+02  0.13154670953E+02  0.28248400814E+03  0.26308098747E+03 0.  0.
         25    1    3    3    0    0 -0.99648496883E+02  0.21971358359E+02  0.89973725690E+02  0.18481164177E+03  0.12509000000E+03 0.  0.
         25    1    4    4    0    0  0.87543957970E+02 -0.32348603120E+02  0.64054922653E+01  0.15620152090E+03  0.12509000000E+03 0.  0.
         25    1    4    4    0    0  0.12104538913E+02  0.10377244761E+02  0.67491786878E+01  0.12628248724E+03  0.12509000000E+03 0.  0.
<mgrwt>
<rscale>  2 0.45577380E+03</rscale>
<asrwt>0</asrwt>
<pdfrwt beam="1">  1       21 0.41942945E-01 0.45577380E+03</pdfrwt>
<pdfrwt beam="2">  1       21 0.26777004E-01 0.45577380E+03</pdfrwt>
<totfact> 0.67224140E+04</totfact>
</mgrwt>
</event>
<event>
 7    0  0.4748297E-002  0.4601489E+03  0.7546771E-02  0.1024738E+00
         21   -1    0    0  502  501  0.00000000000E+00  0.00000000000E+00  0.55499684924E+02  0.55499684924E+02  0.00000000000E+00 0. -1.
         21   -1    0    0  501  502 -0.00000000000E+00 -0.00000000000E+00 -0.95377565820E+03  0.95377565820E+03  0.00000000000E+00 0. -1.
      99926    2    1    2    0    0  0.00000000000E+00  0.00000000000E+00 -0.89827597327E+03  0.10092753431E+04  0.46014888251E+03 0.  0.
      99925    2    3    3    0    0 -0.78032290833E+02  0.85983330548E+02 -0.51705950302E+03  0.59159642716E+03  0.26297078055E+03 0.  0.
         25    1    4    4    0    0 -0.34105982700E+02  0.27909298037E+02 -0.32566321766E+03  0.35163359681E+03  0.12509000000E+03 0.  0.
         25    1    3    3    0    0  0.78032290833E+02 -0.85983330548E+02 -0.38121647026E+03  0.41767891596E+03  0.12509000000E+03 0.  0.
         25    1    4    4    0    0 -0.43926308133E+02  0.58074032511E+02 -0.19139628536E+03  0.23996283035E+03  0.12509000000E+03 0.  0.
<mgrwt>
<rscale>  2 0.46014888E+03</rscale>
<asrwt>0</asrwt>
<pdfrwt beam="1">  1       21 0.81617187E-02 0.46014888E+03</pdfrwt>
<pdfrwt beam="2">  1       21 0.14026112E+00 0.46014888E+03</pdfrwt>
<totfact> 0.37286066E+04</totfact>
</mgrwt>
</event>
<event>
 7    0  0.4748297E-002  0.4541466E+03  0.7546771E-02  0.1026493E+00
         21   -1    0    0  502  501  0.00000000000E+00  0.00000000000E+00  0.49564775599E+03  0.49564775599E+03  0.00000000000E+00 0. -1.
         21   -1    0    0  501  502 -0.00000000000E+00 -0.00000000000E+00 -0.10403009980E+03  0.10403009980E+03  0.00000000000E+00 0. -1.
      99926    2    1    2    0    0  0.00000000000E+00  0.00000000000E+00  0.39161765619E+03  0.59967785579E+03  0.45414660857E+03 0.  0.
      99925    2    3    3    0    0  0.64100247310E+02  0.82082759493E+02  0.30248204881E+03  0.41410014776E+03  0.26293938734E+03 0.  0.
         25    1    3    3    0    0 -0.64100247310E+02 -0.82082759493E+02  0.89135607384E+02  0.18557770802E+03  0.12509000000E+03 0.  0.
         25    1    4    4    0    0  0.45901368229E+02  0.68691026115E+02  0.12163688742E+03  0.19305033840E+03  0.12509000000E+03 0.  0.
         25    1    4    4    0    0  0.18198879082E+02  0.13391733378E+02  0.18084516139E+03  0.22104980937E+03  0.12509000000E+03 0.  0.
<mgrwt>
<rscale>  2 0.45414661E+03</rscale>
<asrwt>0</asrwt>
<pdfrwt beam="1">  1       21 0.72889375E-01 0.45414661E+03</pdfrwt>
<pdfrwt beam="2">  1       21 0.15298544E-01 0.45414661E+03</pdfrwt>
<totfact> 0.59095569E+04</totfact>
</mgrwt>
</event>
<event>
 7    0  0.4748297E-002  0.4254444E+03  0.7546771E-02  0.1035309E+00
         21   -1    0    0  502  501  0.00000000000E+00  0.00000000000E+00  0.60674533865E+03  0.60674533865E+03  0.00000000000E+00 0. -1.
         21   -1    0    0  501  502 -0.00000000000E+00 -0.00000000000E+00 -0.74579441297E+02  0.74579441297E+02  0.00000000000E+00 0. -1.
      99926    2    1    2    0    0 -0.71054273576E-14  0.00000000000E+00  0.53216589736E+03  0.68132477995E+03  0.42544437176E+03 0.  0.
      99925    2    3    3    0    0 -0.37544512092E+02 -0.73109250896E+02  0.32007455330E+03  0.42173895738E+03  0.26203334816E+03 0.  0.
         25    1    3    3    0    0  0.37544512092E+02  0.73109250896E+02  0.21209134406E+03  0.25958582257E+03  0.12509000000E+03 0.  0.
         25    1    4    4    0    0 -0.47055358704E+02 -0.38983034620E+02  0.12373652830E+03  0.18625820870E+03  0.12509000000E+03 0.  0.
         25    1    4    4    0    0  0.95108466127E+01 -0.34126216276E+02  0.19633802500E+03  0.23548074869E+03  0.12509000000E+03 0.  0.
<mgrwt>
<rscale>  2 0.42544437E+03</rscale>
<asrwt>0</asrwt>
<pdfrwt beam="1">  1       21 0.89227253E-01 0.42544437E+03</pdfrwt>
<pdfrwt beam="2">  1       21 0.10967565E-01 0.42544437E+03</pdfrwt>
<totfact> 0.68539841E+04</totfact>
</mgrwt>
</event>
<event>
 7    0  0.4748297E-002  0.4554993E+03  0.7546771E-02  0.1026095E+00
         21   -1    0    0  502  501  0.00000000000E+00  0.00000000000E+00  0.43620288730E+03  0.43620288730E+03  0.00000000000E+00 0. -1.
         21   -1    0    0  501  502 -0.00000000000E+00 -0.00000000000E+00 -0.11891233110E+03  0.11891233110E+03  0.00000000000E+00 0. -1.
      99926    2    1    2    0    0  0.00000000000E+00  0.00000000000E+00  0.31729055620E+03  0.55511521839E+03  0.45549929598E+03 0.  0.
      99925    2    3    3    0    0  0.89402962264E+02  0.69241137173E+02  0.18554431089E+03  0.34112501770E+03  0.26296836627E+03 0.  0.
         25    1    4    4    0    0  0.27304984739E+02  0.26318354166E+02  0.44580035673E+02  0.13810541495E+03  0.12509000000E+03 0.  0.
         25    1    3    3    0    0 -0.89402962264E+02 -0.69241137173E+02  0.13174624531E+03  0.21399020069E+03  0.12509000000E+03 0.  0.
         25    1    4    4    0    0  0.62097977525E+02  0.42922783006E+02  0.14096427521E+03  0.20301960275E+03  0.12509000000E+03 0.  0.
<mgrwt>
<rscale>  2 0.45549930E+03</rscale>
<asrwt>0</asrwt>
<pdfrwt beam="1">  1       21 0.64147483E-01 0.45549930E+03</pdfrwt>
<pdfrwt beam="2">  1       21 0.17487108E-01 0.45549930E+03</pdfrwt>
<totfact> 0.61287319E+04</totfact>
</mgrwt>
</event>
<event>
 7    0  0.4748297E-002  0.4515077E+03  0.7546771E-02  0.1027273E+00
         21   -1    0    0  502  501  0.00000000000E+00  0.00000000000E+00  0.41096336506E+03  0.41096336506E+03  0.00000000000E+00 0.  1.
         21   -1    0    0  501  502 -0.00000000000E+00 -0.00000000000E+00 -0.12401299750E+03  0.12401299750E+03  0.00000000000E+00 0.  1.
      99926    2    1    2    0    0  0.00000000000E+00 -0.71054273576E-14  0.28695036756E+03  0.53497636256E+03  0.45150769102E+03 0.  0.
      99925    2    3    3    0    0  0.18016086149E+02 -0.44536493539E+02  0.64113823883E+02  0.27495384062E+03  0.26302272419E+03 0.  0.
         25    1    4    4    0    0  0.48826824948E+02 -0.26893331090E+02  0.25417639777E+02  0.13928702238E+03  0.12509000000E+03 0.  0.
         25    1    3    3    0    0 -0.18016086149E+02  0.44536493539E+02  0.22283654368E+03  0.26002252194E+03  0.12509000000E+03 0.  0.
         25    1    4    4    0    0 -0.30810738799E+02 -0.17643162449E+02  0.38696184106E+02  0.13566681824E+03  0.12509000000E+03 0.  0.
<mgrwt>
<rscale>  2 0.45150769E+03</rscale>
<asrwt>0</asrwt>
<pdfrwt beam="1">  1       21 0.60435789E-01 0.45150769E+03</pdfrwt>
<pdfrwt beam="2">  1       21 0.18237206E-01 0.45150769E+03</pdfrwt>
<totfact> 0.64638582E+04</totfact>
</mgrwt>
</event>
<event>
 7    0  0.4748297E-002  0.4548955E+03  0.7546771E-02  0.1026272E+00
         21   -1    0    0  502  501  0.00000000000E+00  0.00000000000E+00  0.16311185605E+03  0.16311185605E+03  0.00000000000E+00 0. -1.
         21   -1    0    0  501  502 -0.00000000000E+00 -0.00000000000E+00 -0.31715950909E+03  0.31715950909E+03  0.00000000000E+00 0. -1.
      99926    2    1    2    0    0  0.13322676296E-14  0.00000000000E+00 -0.15404765304E+03  0.48027136515E+03  0.45489548775E+03 0.  0.
      99925    2    3    3    0    0 -0.31257640316E+01  0.25093487738E+02  0.19493415690E+02  0.26485673203E+03  0.26292516372E+03 0.  0.
         25    1    3    3    0    0  0.31257640316E+01 -0.25093487738E+02 -0.17354106873E+03  0.21541463312E+03  0.12509000000E+03 0.  0.
         25    1    4    4    0    0  0.15339246210E+02  0.49273698252E+02  0.66382986770E+01  0.13547975835E+03  0.12509000000E+03 0.  0.
         25    1    4    4    0    0 -0.18465010241E+02 -0.24180210514E+02  0.12855117013E+02  0.12937697367E+03  0.12509000000E+03 0.  0.
<mgrwt>
<rscale>  2 0.45489549E+03</rscale>
<asrwt>0</asrwt>
<pdfrwt beam="1">  1       21 0.23987038E-01 0.45489549E+03</pdfrwt>
<pdfrwt beam="2">  1       21 0.46641104E-01 0.45489549E+03</pdfrwt>
<totfact> 0.66735694E+04</totfact>
</mgrwt>
</event>
<event>
 7    0  0.4748297E-002  0.4496031E+03  0.7546771E-02  0.1027840E+00
         21   -1    0    0  502  501  0.00000000000E+00  0.00000000000E+00  0.59484375212E+02  0.59484375212E+02  0.00000000000E+00 0.  1.
         21   -1    0    0  501  502 -0.00000000000E+00 -0.00000000000E+00 -0.84956309971E+03  0.84956309971E+03  0.00000000000E+00 0.  1.
      99926    2    1    2    0    0  0.00000000000E+00  0.00000000000E+00 -0.79007872449E+03  0.90904747492E+03  0.44960307023E+03 0.  0.
      99925    2    3    3    0    0 -0.53349358851E+02  0.83687167637E+02 -0.41253874373E+03  0.49912840816E+03  0.26285215738E+03 0.  0.
         25    1    4    4    0    0 -0.43148507577E+02  0.79862055796E+02 -0.24673597699E+03  0.29114582618E+03  0.12509000000E+03 0.  0.
         25    1    4    4    0    0 -0.10200851275E+02  0.38251118407E+01 -0.16580276673E+03  0.20798258197E+03  0.12509000000E+03 0.  0.
         25    1    3    3    0    0  0.53349358851E+02 -0.83687167637E+02 -0.37753998077E+03  0.40991906676E+03  0.12509000000E+03 0.  0.
<mgrwt>
<rscale>  2 0.44960307E+03</rscale>
<asrwt>0</asrwt>
<pdfrwt beam="1">  1       21 0.87477028E-02 0.44960307E+03</pdfrwt>
<pdfrwt beam="2">  1       21 0.12493574E+00 0.44960307E+03</pdfrwt>
<totfact> 0.44703049E+04</totfact>
</mgrwt>
</event>
<event>
 7    0  0.4748297E-002  0.4560726E+03  0.7546771E-02  0.1025926E+00
         21   -1    0    0  502  501  0.00000000000E+00  0.00000000000E+00  0.60673163271E+03  0.60673163271E+03  0.00000000000E+00 0. -1.
         21   -1    0    0  501  502 -0.00000000000E+00 -0.00000000000E+00 -0.85706032983E+02  0.85706032983E+02  0.00000000000E+00 0. -1.
      99926    2    1    2    0    0 -0.14210854715E-13  0.00000000000E+00  0.52102559973E+03  0.69243766569E+03  0.45607263160E+03 0.  0.
      99925    2    3    3    0    0 -0.92861268529E+02  0.66320493796E+02  0.32105071816E+03  0.43040888016E+03  0.26297645788E+03 0.  0.
         25    1    3    3    0    0  0.92861268529E+02 -0.66320493796E+02  0.19997488157E+03  0.26202878553E+03  0.12509000000E+03 0.  0.
         25    1    4    4    0    0 -0.29341174106E+02  0.51277122768E+02  0.11099324118E+03  0.17736193364E+03  0.12509000000E+03 0.  0.
         25    1    4    4    0    0 -0.63520094423E+02  0.15043371028E+02  0.21005747698E+03  0.25304694652E+03  0.12509000000E+03 0.  0.
<mgrwt>
<rscale>  2 0.45607263E+03</rscale>
<asrwt>0</asrwt>
<pdfrwt beam="1">  1       21 0.89225238E-01 0.45607263E+03</pdfrwt>
<pdfrwt beam="2">  1       21 0.12603829E-01 0.45607263E+03</pdfrwt>
<totfact> 0.52867744E+04</totfact>
</mgrwt>
</event>
<event>
 7    0  0.4748297E-002  0.4556767E+03  0.7546771E-02  0.1026043E+00
         21   -1    0    0  502  501  0.00000000000E+00  0.00000000000E+00  0.70508130845E+02  0.70508130845E+02  0.00000000000E+00 0.  1.
         21   -1    0    0  501  502 -0.00000000000E+00 -0.00000000000E+00 -0.73623157062E+03  0.73623157062E+03  0.00000000000E+00 0.  1.
      99926    2    1    2    0    0  0.00000000000E+00  0.00000000000E+00 -0.66572343977E+03  0.80673970146E+03  0.45567669202E+03 0.  0.
      99925    2    3    3    0    0  0.92141152009E+02  0.25517715971E+02 -0.52829199472E+03  0.59775152976E+03  0.26281802435E+03 0.  0.
         25    1    4    4    0    0  0.26625151260E+02  0.16256908874E+02 -0.17655226784E+03  0.21861243593E+03  0.12509000000E+03 0.  0.
         25    1    4    4    0    0  0.65516000750E+02  0.92608070976E+01 -0.35173972688E+03  0.37913909383E+03  0.12509000000E+03 0.  0.
         25    1    3    3    0    0 -0.92141152009E+02 -0.25517715971E+02 -0.13743144505E+03  0.20898817170E+03  0.12509000000E+03 0.  0.
<mgrwt>
<rscale>  2 0.45567669E+03</rscale>
<asrwt>0</asrwt>
<pdfrwt beam="1">  1       21 0.10368844E-01 0.45567669E+03</pdfrwt>
<pdfrwt beam="2">  1       21 0.10826934E+00 0.45567669E+03</pdfrwt>
<totfact> 0.47189456E+04</totfact>
</mgrwt>
</event>
<event>
 7    0  0.4748297E-002  0.4531250E+03  0.7546771E-02  0.1026794E+00
         21   -1    0    0  502  501  0.00000000000E+00  0.00000000000E+00  0.21773380370E+04  0.21773380370E+04  0.00000000000E+00 0.  1.
         21   -1    0    0  501  502 -0.00000000000E+00 -0.00000000000E+00 -0.23574916879E+02  0.23574916879E+02  0.00000000000E+00 0.  1.
      99926    2    1    2    0    0  0.17763568394E-14  0.00000000000E+00  0.21537631201E+04  0.22009129539E+04  0.45312498603E+03 0.  0.
      99925    2    3    3    0    0 -0.92381673141E+01 -0.11087483230E+03  0.13342293524E+04  0.13644551386E+04  0.26304236984E+03 0.  0.
         25    1    4    4    0    0 -0.44801630500E+02 -0.62381671618E+02  0.69461406630E+03  0.70995413109E+03  0.12509000000E+03 0.  0.
         25    1    4    4    0    0  0.35563463186E+02 -0.48493160681E+02  0.63961528607E+03  0.65450100750E+03  0.12509000000E+03 0.  0.
         25    1    3    3    0    0  0.92381673141E+01  0.11087483230E+03  0.81953376777E+03  0.83645781531E+03  0.12509000000E+03 0.  0.
<mgrwt>
<rscale>  2 0.45312499E+03</rscale>
<asrwt>0</asrwt>
<pdfrwt beam="1">  1       21 0.32019663E+00 0.45312499E+03</pdfrwt>
<pdfrwt beam="2">  1       21 0.34669010E-02 0.45312499E+03</pdfrwt>
<totfact> 0.10855650E+04</totfact>
</mgrwt>
</event>
<event>
 7    0  0.4748297E-002  0.4554096E+03  0.7546771E-02  0.1026121E+00
         21   -1    0    0  502  501  0.00000000000E+00  0.00000000000E+00  0.35216590520E+03  0.35216590520E+03  0.00000000000E+00 0. -1.
         21   -1    0    0  501  502 -0.00000000000E+00 -0.00000000000E+00 -0.14723022736E+03  0.14723022736E+03  0.00000000000E+00 0. -1.
      99926    2    1    2    0    0  0.00000000000E+00  0.00000000000E+00  0.20493567784E+03  0.49939613256E+03  0.45540955762E+03 0.  0.
      99925    2    3    3    0    0 -0.70864833182E+02 -0.66938934059E+02  0.64919066455E+02  0.28784281768E+03  0.26293793379E+03 0.  0.
         25    1    3    3    0    0  0.70864833182E+02  0.66938934059E+02  0.14001661138E+03  0.21155331488E+03  0.12509000000E+03 0.  0.
         25    1    4    4    0    0 -0.57763098840E+02 -0.17810572702E+02  0.21696849834E+01  0.13894606047E+03  0.12509000000E+03 0.  0.
         25    1    4    4    0    0 -0.13101734342E+02 -0.49128361357E+02  0.62749381471E+02  0.14889675721E+03  0.12509000000E+03 0.  0.
<mgrwt>
<rscale>  2 0.45540956E+03</rscale>
<asrwt>0</asrwt>
<pdfrwt beam="1">  1       21 0.51789103E-01 0.45540956E+03</pdfrwt>
<pdfrwt beam="2">  1       21 0.21651504E-01 0.45540956E+03</pdfrwt>
<totfact> 0.65101195E+04</totfact>
</mgrwt>
</event>
<event>
 7    0  0.4748297E-002  0.4585599E+03  0.7546771E-02  0.1025200E+00
         21   -1    0    0  502  501  0.00000000000E+00  0.00000000000E+00  0.72025874698E+03  0.72025874698E+03  0.00000000000E+00 0.  1.
         21   -1    0    0  501  502 -0.00000000000E+00 -0.00000000000E+00 -0.72986687614E+02  0.72986687614E+02  0.00000000000E+00 0.  1.
      99926    2    1    2    0    0  0.00000000000E+00  0.71054273576E-14  0.64727205937E+03  0.79324543460E+03  0.45855992048E+03 0.  0.
      99925    2    3    3    0    0 -0.99925791172E+02 -0.58893761407E+02  0.42151076065E+03  0.51028022300E+03  0.26317474379E+03 0.  0.
         25    1    3    3    0    0  0.99925791172E+02  0.58893761407E+02  0.22576129872E+03  0.28296521159E+03  0.12509000000E+03 0.  0.
         25    1    4    4    0    0 -0.47184083484E+02 -0.47585260323E+01  0.26042085427E+03  0.29277211401E+03  0.12509000000E+03 0.  0.
         25    1    4    4    0    0 -0.52741707689E+02 -0.54135235375E+02  0.16108990639E+03  0.21750810899E+03  0.12509000000E+03 0.  0.
<mgrwt>
<rscale>  2 0.45855992E+03</rscale>
<asrwt>0</asrwt>
<pdfrwt beam="1">  1       21 0.10592040E+00 0.45855992E+03</pdfrwt>
<pdfrwt beam="2">  1       21 0.10733337E-01 0.45855992E+03</pdfrwt>
<totfact> 0.46772730E+04</totfact>
</mgrwt>
</event>
<event>
 7    0  0.4748297E-002  0.4026517E+03  0.7546771E-02  0.1042865E+00
         21   -1    0    0  502  501  0.00000000000E+00  0.00000000000E+00  0.41991143425E+03  0.41991143425E+03  0.00000000000E+00 0. -1.
         21   -1    0    0  501  502 -0.00000000000E+00 -0.00000000000E+00 -0.96525351238E+02  0.96525351238E+02  0.00000000000E+00 0. -1.
      99926    2    1    2    0    0  0.00000000000E+00  0.71054273576E-14  0.32338608301E+03  0.51643678548E+03  0.40265170398E+03 0.  0.
      99925    2    3    3    0    0 -0.19780671762E+02 -0.36655928523E+02  0.25157161190E+03  0.36630431587E+03  0.26297460684E+03 0.  0.
         25    1    4    4    0    0 -0.44059886668E+02 -0.39184578977E+02  0.11954301699E+03  0.18279700723E+03  0.12509000000E+03 0.  0.
         25    1    4    4    0    0  0.24279214906E+02  0.25286504542E+01  0.13202859492E+03  0.18350730864E+03  0.12509000000E+03 0.  0.
         25    1    3    3    0    0  0.19780671762E+02  0.36655928523E+02  0.71814471106E+02  0.15013246961E+03  0.12509000000E+03 0.  0.
<mgrwt>
<rscale>  2 0.40265170E+03</rscale>
<asrwt>0</asrwt>
<pdfrwt beam="1">  1       21 0.61751681E-01 0.40265170E+03</pdfrwt>
<pdfrwt beam="2">  1       21 0.14194905E-01 0.40265170E+03</pdfrwt>
<totfact> 0.99357134E+04</totfact>
</mgrwt>
</event>
<event>
 7    0  0.4748297E-002  0.4517666E+03  0.7546771E-02  0.1027197E+00
         21   -1    0    0  502  501  0.00000000000E+00  0.00000000000E+00  0.38484694983E+03  0.38484694983E+03  0.00000000000E+00 0.  1.
         21   -1    0    0  501  502 -0.00000000000E+00 -0.00000000000E+00 -0.13258067317E+03  0.13258067317E+03  0.00000000000E+00 0.  1.
      99926    2    1    2    0    0  0.44408920985E-15  0.00000000000E+00  0.25226627666E+03  0.51742762300E+03  0.45176661087E+03 0.  0.
      99925    2    3    3    0    0  0.77808146102E+00  0.93620616181E+02  0.92748135609E+02  0.29413639924E+03  0.26296117491E+03 0.  0.
         25    1    3    3    0    0 -0.77808146102E+00 -0.93620616181E+02  0.15951814105E+03  0.22329122376E+03  0.12509000000E+03 0.  0.
         25    1    4    4    0    0 -0.33417076282E+02  0.38678384625E+02  0.67505546651E+02  0.15105371678E+03  0.12509000000E+03 0.  0.
         25    1    4    4    0    0  0.34195157743E+02  0.54942231556E+02  0.25242588958E+02  0.14308268246E+03  0.12509000000E+03 0.  0.
<mgrwt>
<rscale>  2 0.45176661E+03</rscale>
<asrwt>0</asrwt>
<pdfrwt beam="1">  1       21 0.56595140E-01 0.45176661E+03</pdfrwt>
<pdfrwt beam="2">  1       21 0.19497158E-01 0.45176661E+03</pdfrwt>
<totfact> 0.65733035E+04</totfact>
</mgrwt>
</event>
<event>
 7    0  0.4748297E-002  0.4487121E+03  0.7546771E-02  0.1028107E+00
         21   -1    0    0  502  501  0.00000000000E+00  0.00000000000E+00  0.54360560839E+02  0.54360560839E+02  0.00000000000E+00 0.  1.
         21   -1    0    0  501  502 -0.00000000000E+00 -0.00000000000E+00 -0.92595887414E+03  0.92595887414E+03  0.00000000000E+00 0.  1.
      99926    2    1    2    0    0 -0.14210854715E-13 -0.17763568394E-14 -0.87159831330E+03  0.98031943498E+03  0.44871212915E+03 0.  0.
      99925    2    3    3    0    0  0.80251748394E+02  0.11748068182E+02 -0.40027309334E+03  0.48597812445E+03  0.26339671214E+03 0.  0.
         25    1    4    4    0    0  0.37287227494E+02 -0.51755204008E+01 -0.26808726518E+03  0.29822041043E+03  0.12509000000E+03 0.  0.
         25    1    3    3    0    0 -0.80251748394E+02 -0.11748068182E+02 -0.47132521996E+03  0.49434131053E+03  0.12509000000E+03 0.  0.
         25    1    4    4    0    0  0.42964520900E+02  0.16923588582E+02 -0.13218582816E+03  0.18775771401E+03  0.12509000000E+03 0.  0.
<mgrwt>
<rscale>  2 0.44871213E+03</rscale>
<asrwt>0</asrwt>
<pdfrwt beam="1">  1       21 0.79941999E-02 0.44871213E+03</pdfrwt>
<pdfrwt beam="2">  1       21 0.13617043E+00 0.44871213E+03</pdfrwt>
<totfact> 0.41961519E+04</totfact>
</mgrwt>
</event>
<event>
 7    0  0.4748297E-002  0.4219245E+03  0.7546771E-02  0.1036442E+00
         21   -1    0    0  502  501  0.00000000000E+00  0.00000000000E+00  0.38683474224E+02  0.38683474224E+02  0.00000000000E+00 0.  1.
         21   -1    0    0  501  502 -0.00000000000E+00 -0.00000000000E+00 -0.11504932212E+04  0.11504932212E+04  0.00000000000E+00 0.  1.
      99926    2    1    2    0    0  0.00000000000E+00  0.00000000000E+00 -0.11118097470E+04  0.11891766954E+04  0.42192451869E+03 0.  0.
      99925    2    3    3    0    0  0.42116545770E+02 -0.48937789029E+02 -0.60042083851E+03  0.65876663290E+03  0.26324813900E+03 0.  0.
         25    1    4    4    0    0  0.30689879939E+02  0.14247499697E+02 -0.31419959113E+03  0.33987313978E+03  0.12509000000E+03 0.  0.
         25    1    4    4    0    0  0.11426665831E+02 -0.63185288726E+02 -0.28622124738E+03  0.31889349312E+03  0.12509000000E+03 0.  0.
         25    1    3    3    0    0 -0.42116545770E+02  0.48937789029E+02 -0.51138890847E+03  0.53041006252E+03  0.12509000000E+03 0.  0.
<mgrwt>
<rscale>  2 0.42192452E+03</rscale>
<asrwt>0</asrwt>
<pdfrwt beam="1">  1       21 0.56887460E-02 0.42192452E+03</pdfrwt>
<pdfrwt beam="2">  1       21 0.16919019E+00 0.42192452E+03</pdfrwt>
<totfact> 0.42420231E+04</totfact>
</mgrwt>
</event>
<event>
 7    0  0.4748297E-002  0.4563688E+03  0.7546771E-02  0.1025840E+00
         21   -1    0    0  502  501  0.00000000000E+00  0.00000000000E+00  0.37998903397E+02  0.37998903397E+02  0.00000000000E+00 0. -1.
         21   -1    0    0  501  502 -0.00000000000E+00 -0.00000000000E+00 -0.13702534149E+04  0.13702534149E+04  0.00000000000E+00 0. -1.
      99926    2    1    2    0    0  0.00000000000E+00  0.00000000000E+00 -0.13322545115E+04  0.14082523183E+04  0.45636882953E+03 0.  0.
      99925    2    3    3    0    0 -0.61829649239E+02  0.96329962022E+02 -0.83997361530E+03  0.88758893762E+03  0.26297543741E+03 0.  0.
         25    1    4    4    0    0 -0.66318113516E+02  0.67199466169E+02 -0.41489881319E+03  0.44351143584E+03  0.12509000000E+03 0.  0.
         25    1    4    4    0    0  0.44884642770E+01  0.29130495853E+02 -0.42507480212E+03  0.44407750179E+03  0.12509000000E+03 0.  0.
         25    1    3    3    0    0  0.61829649239E+02 -0.96329962022E+02 -0.49228089616E+03  0.52066338063E+03  0.12509000000E+03 0.  0.
<mgrwt>
<rscale>  2 0.45636883E+03</rscale>
<asrwt>0</asrwt>
<pdfrwt beam="1">  1       21 0.55880761E-02 0.45636883E+03</pdfrwt>
<pdfrwt beam="2">  1       21 0.20150778E+00 0.45636883E+03</pdfrwt>
<totfact> 0.25837011E+04</totfact>
</mgrwt>
</event>
<event>
 7    0  0.4748297E-002  0.4566619E+03  0.7546771E-02  0.1025754E+00
         21   -1    0    0  502  501  0.00000000000E+00  0.00000000000E+00  0.32875846218E+02  0.32875846218E+02  0.00000000000E+00 0. -1.
         21   -1    0    0  501  502 -0.00000000000E+00 -0.00000000000E+00 -0.15858156666E+04  0.15858156666E+04  0.00000000000E+00 0. -1.
      99926    2    1    2    0    0  0.00000000000E+00  0.18873791419E-14 -0.15529398203E+04  0.16186915128E+04  0.45666194054E+03 0.  0.
      99925    2    3    3    0    0 -0.99574702200E+02  0.46043295493E+00 -0.77263521726E+03  0.82217527628E+03  0.26285294873E+03 0.  0.
         25    1    3    3    0    0  0.99574702200E+02 -0.46043295493E+00 -0.78030460308E+03  0.79651623650E+03  0.12509000000E+03 0.  0.
         25    1    4    4    0    0 -0.14922495296E+02  0.21858087846E+02 -0.32414118155E+03  0.34844722778E+03  0.12509000000E+03 0.  0.
         25    1    4    4    0    0 -0.84652206904E+02 -0.21397654891E+02 -0.44849403571E+03  0.47372804850E+03  0.12509000000E+03 0.  0.
<mgrwt>
<rscale>  2 0.45666194E+03</rscale>
<asrwt>0</asrwt>
<pdfrwt beam="1">  1       21 0.48346819E-02 0.45666194E+03</pdfrwt>
<pdfrwt beam="2">  1       21 0.23320825E+00 0.45666194E+03</pdfrwt>
<totfact> 0.20741713E+04</totfact>
</mgrwt>
</event>
<event>
 7    0  0.4748297E-002  0.4552832E+03  0.7546771E-02  0.1026158E+00
         21   -1    0    0  502  501  0.00000000000E+00  0.00000000000E+00  0.12442748996E+03  0.12442748996E+03  0.00000000000E+00 0. -1.
         21   -1    0    0  501  502 -0.00000000000E+00 -0.00000000000E+00 -0.41647307853E+03  0.41647307853E+03  0.00000000000E+00 0. -1.
      99926    2    1    2    0    0  0.00000000000E+00  0.14210854715E-13 -0.29204558857E+03  0.54090056849E+03  0.45528320767E+03 0.  0.
      99925    2    3    3    0    0  0.86123445699E+02  0.73243910103E+02 -0.19387089170E+03  0.34579111851E+03  0.26306587905E+03 0.  0.
         25    1    4    4    0    0  0.46767054324E+02  0.19716264179E+02 -0.50157294199E+02  0.14401093953E+03  0.12509000000E+03 0.  0.
         25    1    3    3    0    0 -0.86123445699E+02 -0.73243910103E+02 -0.98174696866E+02  0.19510944998E+03  0.12509000000E+03 0.  0.
         25    1    4    4    0    0  0.39356391375E+02  0.53527645925E+02 -0.14371359750E+03  0.20178017898E+03  0.12509000000E+03 0.  0.
<mgrwt>
<rscale>  2 0.45528321E+03</rscale>
<asrwt>0</asrwt>
<pdfrwt beam="1">  1       21 0.18298161E-01 0.45528321E+03</pdfrwt>
<pdfrwt beam="2">  1       21 0.61246039E-01 0.45528321E+03</pdfrwt>
<totfact> 0.62332027E+04</totfact>
</mgrwt>
</event>
<event>
 7    0  0.4748297E-002  0.4502948E+03  0.7546771E-02  0.1027634E+00
         21   -1    0    0  502  501  0.00000000000E+00  0.00000000000E+00  0.14105345031E+03  0.14105345031E+03  0.00000000000E+00 0.  1.
         21   -1    0    0  501  502 -0.00000000000E+00 -0.00000000000E+00 -0.35937694455E+03  0.35937694455E+03  0.00000000000E+00 0.  1.
      99926    2    1    2    0    0  0.00000000000E+00 -0.35527136788E-14 -0.21832349424E+03  0.50043039485E+03  0.45029482782E+03 0.  0.
      99925    2    3    3    0    0  0.90229253089E+02 -0.10153796714E+02 -0.20441902519E+03  0.34523612930E+03  0.26297610047E+03 0.  0.
         25    1    4    4    0    0  0.47058536658E+02 -0.40929410206E+02 -0.12705363165E+03  0.18889112184E+03  0.12509000000E+03 0.  0.
         25    1    3    3    0    0 -0.90229253089E+02  0.10153796714E+02 -0.13904469047E+02  0.15519426555E+03  0.12509000000E+03 0.  0.
         25    1    4    4    0    0  0.43170716431E+02  0.30775613492E+02 -0.77365393536E+02  0.15634500747E+03  0.12509000000E+03 0.  0.
<mgrwt>
<rscale>  2 0.45029483E+03</rscale>
<asrwt>0</asrwt>
<pdfrwt beam="1">  1       21 0.20743155E-01 0.45029483E+03</pdfrwt>
<pdfrwt beam="2">  1       21 0.52849550E-01 0.45029483E+03</pdfrwt>
<totfact> 0.67735059E+04</totfact>
</mgrwt>
</event>
<event>
 7    0  0.4748297E-002  0.4512104E+03  0.7546771E-02  0.1027362E+00
         21   -1    0    0  502  501  0.00000000000E+00  0.00000000000E+00  0.20045745975E+04  0.20045745975E+04  0.00000000000E+00 0. -1.
         21   -1    0    0  501  502 -0.00000000000E+00 -0.00000000000E+00 -0.25390782166E+02  0.25390782166E+02  0.00000000000E+00 0. -1.
      99926    2    1    2    0    0  0.00000000000E+00  0.00000000000E+00  0.19791838153E+04  0.20299653797E+04  0.45121044731E+03 0.  0.
      99925    2    3    3    0    0  0.50886020483E+02  0.50621067016E+02  0.87704246395E+03  0.91842818009E+03  0.26297330456E+03 0.  0.
         25    1    4    4    0    0 -0.12086877149E+02  0.26937087475E+02  0.36107647365E+03  0.38326939247E+03  0.12509000000E+03 0.  0.
         25    1    4    4    0    0  0.62972897632E+02  0.23683979540E+02  0.51596599029E+03  0.53515878762E+03  0.12509000000E+03 0.  0.
         25    1    3    3    0    0 -0.50886020483E+02 -0.50621067016E+02  0.11021413514E+04  0.11115371996E+04  0.12509000000E+03 0.  0.
<mgrwt>
<rscale>  2 0.45121045E+03</rscale>
<asrwt>0</asrwt>
<pdfrwt beam="1">  1       21 0.29479027E+00 0.45121045E+03</pdfrwt>
<pdfrwt beam="2">  1       21 0.37339399E-02 0.45121045E+03</pdfrwt>
<totfact> 0.13622965E+04</totfact>
</mgrwt>
</event>
<event>
 7    0  0.4748297E-002  0.4533415E+03  0.7546771E-02  0.1026730E+00
         21   -1    0    0  502  501  0.00000000000E+00  0.00000000000E+00  0.12821547605E+03  0.12821547605E+03  0.00000000000E+00 0.  1.
         21   -1    0    0  501  502 -0.00000000000E+00 -0.00000000000E+00 -0.40072881789E+03  0.40072881789E+03  0.00000000000E+00 0.  1.
      99926    2    1    2    0    0 -0.14210854715E-13  0.71054273576E-14 -0.27251334184E+03  0.52894429394E+03  0.45334153198E+03 0.  0.
      99925    2    3    3    0    0  0.84329030393E+02 -0.62081251095E+02 -0.21694395694E+03  0.35660471131E+03  0.26293872398E+03 0.  0.
         25    1    4    4    0    0  0.99410729112E+01 -0.25191478733E+01 -0.88723698238E+02  0.15370287494E+03  0.12509000000E+03 0.  0.
         25    1    4    4    0    0  0.74387957482E+02 -0.59562103222E+02 -0.12822025870E+03  0.20290183637E+03  0.12509000000E+03 0.  0.
         25    1    3    3    0    0 -0.84329030393E+02  0.62081251095E+02 -0.55569384899E+02  0.17233958263E+03  0.12509000000E+03 0.  0.
<mgrwt>
<rscale>  2 0.45334153E+03</rscale>
<asrwt>0</asrwt>
<pdfrwt beam="1">  1       21 0.18855217E-01 0.45334153E+03</pdfrwt>
<pdfrwt beam="2">  1       21 0.58930708E-01 0.45334153E+03</pdfrwt>
<totfact> 0.64116732E+04</totfact>
</mgrwt>
</event>
<event>
 7    0  0.4748297E-002  0.4535695E+03  0.7546771E-02  0.1026663E+00
         21   -1    0    0  502  501  0.00000000000E+00  0.00000000000E+00  0.31690615104E+03  0.31690615104E+03  0.00000000000E+00 0. -1.
         21   -1    0    0  501  502 -0.00000000000E+00 -0.00000000000E+00 -0.16229196872E+03  0.16229196872E+03  0.00000000000E+00 0. -1.
      99926    2    1    2    0    0  0.00000000000E+00  0.35527136788E-14  0.15461418231E+03  0.47919811976E+03  0.45356950141E+03 0.  0.
      99925    2    3    3    0    0  0.63702991084E+02  0.19406247095E+02  0.19231712845E+03  0.33255674175E+03  0.26300843159E+03 0.  0.
         25    1    4    4    0    0  0.58487095529E+02 -0.17569696295E+02  0.81399333011E+02  0.16125381883E+03  0.12509000000E+03 0.  0.
         25    1    4    4    0    0  0.52158955544E+01  0.36975943390E+02  0.11091779544E+03  0.17130292292E+03  0.12509000000E+03 0.  0.
         25    1    3    3    0    0 -0.63702991084E+02 -0.19406247095E+02 -0.37702946134E+02  0.14664137802E+03  0.12509000000E+03 0.  0.
<mgrwt>
<rscale>  2 0.45356950E+03</rscale>
<asrwt>0</asrwt>
<pdfrwt beam="1">  1       21 0.46603846E-01 0.45356950E+03</pdfrwt>
<pdfrwt beam="2">  1       21 0.23866466E-01 0.45356950E+03</pdfrwt>
<totfact> 0.67521942E+04</totfact>
</mgrwt>
</event>
<event>
 7    0  0.4748297E-002  0.4543839E+03  0.7546771E-02  0.1026423E+00
         21   -1    0    0  502  501  0.00000000000E+00  0.00000000000E+00  0.56891738086E+02  0.56891738086E+02  0.00000000000E+00 0. -1.
         21   -1    0    0  501  502 -0.00000000000E+00 -0.00000000000E+00 -0.90727029307E+03  0.90727029307E+03  0.00000000000E+00 0. -1.
      99926    2    1    2    0    0  0.00000000000E+00  0.71054273576E-14 -0.85037855499E+03  0.96416203116E+03  0.45438390767E+03 0.  0.
      99925    2    3    3    0    0  0.83667927185E+02  0.44041024901E+02 -0.66501128678E+03  0.72136897908E+03  0.26304611482E+03 0.  0.
         25    1    4    4    0    0  0.39443268731E+02  0.23260742832E+02 -0.43590073973E+03  0.45580017178E+03  0.12509000000E+03 0.  0.
         25    1    4    4    0    0  0.44224658454E+02  0.20780282069E+02 -0.22911054706E+03  0.26556880730E+03  0.12509000000E+03 0.  0.
         25    1    3    3    0    0 -0.83667927185E+02 -0.44041024901E+02 -0.18536726821E+03  0.24279305208E+03  0.12509000000E+03 0.  0.
<mgrwt>
<rscale>  2 0.45438391E+03</rscale>
<asrwt>0</asrwt>
<pdfrwt beam="1">  1       21 0.83664320E-02 0.45438391E+03</pdfrwt>
<pdfrwt beam="2">  1       21 0.13342210E+00 0.45438391E+03</pdfrwt>
<totfact> 0.40768658E+04</totfact>
</mgrwt>
</event>
<event>
 7    0  0.4748297E-002  0.4544707E+03  0.7546771E-02  0.1026397E+00
         21   -1    0    0  502  501  0.00000000000E+00  0.00000000000E+00  0.25282368206E+04  0.25282368206E+04  0.00000000000E+00 0.  1.
         21   -1    0    0  501  502 -0.00000000000E+00 -0.00000000000E+00 -0.20423686269E+02  0.20423686269E+02  0.00000000000E+00 0.  1.
      99926    2    1    2    0    0 -0.71054273576E-14  0.14210854715E-13  0.25078131343E+04  0.25486605068E+04  0.45447074993E+03 0.  0.
      99925    2    3    3    0    0 -0.43529598038E+02  0.93695024879E+02  0.13271053547E+04  0.13568585297E+04  0.26302635569E+03 0.  0.
         25    1    4    4    0    0  0.10441163808E+02  0.18494388081E+02  0.61364561192E+03  0.62662549056E+03  0.12509000000E+03 0.  0.
         25    1    4    4    0    0 -0.53970761846E+02  0.75200636798E+02  0.71345974274E+03  0.73023303919E+03  0.12509000000E+03 0.  0.
         25    1    3    3    0    0  0.43529598038E+02 -0.93695024879E+02  0.11807077796E+04  0.11918019771E+04  0.12509000000E+03 0.  0.
<mgrwt>
<rscale>  2 0.45447075E+03</rscale>
<asrwt>0</asrwt>
<pdfrwt beam="1">  1       21 0.37179932E+00 0.45447075E+03</pdfrwt>
<pdfrwt beam="2">  1       21 0.30034850E-02 0.45447075E+03</pdfrwt>
<totfact> 0.66741003E+03</totfact>
</mgrwt>
</event>
<event>
 7    0  0.4748297E-002  0.4547599E+03  0.7546771E-02  0.1026312E+00
         21   -1    0    0  502  501  0.00000000000E+00  0.00000000000E+00  0.15482164744E+04  0.15482164744E+04  0.00000000000E+00 0.  1.
         21   -1    0    0  501  502 -0.00000000000E+00 -0.00000000000E+00 -0.33394316483E+02  0.33394316483E+02  0.00000000000E+00 0.  1.
      99926    2    1    2    0    0  0.00000000000E+00 -0.14210854715E-13  0.15148221579E+04  0.15816107909E+04  0.45475985280E+03 0.  0.
      99925    2    3    3    0    0  0.33426873607E+02 -0.73411707738E+02  0.67781730112E+03  0.73147475875E+03  0.26289236256E+03 0.  0.
         25    1    3    3    0    0 -0.33426873607E+02  0.73411707738E+02  0.83700485677E+03  0.85013603210E+03  0.12509000000E+03 0.  0.
         25    1    4    4    0    0 -0.18850896463E+02 -0.39834511129E+02  0.38134943952E+03  0.40375369683E+03  0.12509000000E+03 0.  0.
         25    1    4    4    0    0  0.52277770070E+02 -0.33577196609E+02  0.29646786159E+03  0.32772106193E+03  0.12509000000E+03 0.  0.
<mgrwt>
<rscale>  2 0.45475985E+03</rscale>
<asrwt>0</asrwt>
<pdfrwt beam="1">  1       21 0.22767885E+00 0.45475985E+03</pdfrwt>
<pdfrwt beam="2">  1       21 0.49109299E-02 0.45475985E+03</pdfrwt>
<totfact> 0.21888727E+04</totfact>
</mgrwt>
</event>
<event>
 7    0  0.4748297E-002  0.4624781E+03  0.7546771E-02  0.1024065E+00
         21   -1    0    0  502  501  0.00000000000E+00  0.00000000000E+00  0.10157537437E+04  0.10157537437E+04  0.00000000000E+00 0. -1.
         21   -1    0    0  501  502 -0.00000000000E+00 -0.00000000000E+00 -0.52642192364E+02  0.52642192364E+02  0.00000000000E+00 0. -1.
      99926    2    1    2    0    0  0.00000000000E+00 -0.35527136788E-14  0.96311155133E+03  0.10683959361E+04  0.46247812476E+03 0.  0.
      99925    2    3    3    0    0 -0.11162126828E+03  0.29905782428E+02  0.52694121169E+03  0.60015909787E+03  0.26300235517E+03 0.  0.
         25    1    4    4    0    0 -0.71323396627E+02 -0.21700417391E+02  0.25057674294E+03  0.28981743775E+03  0.12509000000E+03 0.  0.
         25    1    3    3    0    0  0.11162126828E+03 -0.29905782428E+02  0.43617033964E+03  0.46823683819E+03  0.12509000000E+03 0.  0.
         25    1    4    4    0    0 -0.40297871650E+02  0.51606199819E+02  0.27636446876E+03  0.31034166013E+03  0.12509000000E+03 0.  0.
<mgrwt>
<rscale>  2 0.46247812E+03</rscale>
<asrwt>0</asrwt>
<pdfrwt beam="1">  1       21 0.14937554E+00 0.46247812E+03</pdfrwt>
<pdfrwt beam="2">  1       21 0.77414995E-02 0.46247812E+03</pdfrwt>
<totfact> 0.34548884E+04</totfact>
</mgrwt>
</event>
<event>
 7    0  0.4748297E-002  0.4585897E+03  0.7546771E-02  0.1025191E+00
         21   -1    0    0  502  501  0.00000000000E+00  0.00000000000E+00  0.22683390202E+03  0.22683390202E+03  0.00000000000E+00 0. -1.
         21   -1    0    0  501  502 -0.00000000000E+00 -0.00000000000E+00 -0.23178247193E+03  0.23178247193E+03  0.00000000000E+00 0. -1.
      99926    2    1    2    0    0  0.88817841970E-15  0.00000000000E+00 -0.49485699114E+01  0.45861637396E+03  0.45858967511E+03 0.  0.
      99925    2    3    3    0    0 -0.40885336031E+01 -0.11581597562E+03  0.98392548683E+01  0.28745491749E+03  0.26287537416E+03 0.  0.
         25    1    3    3    0    0  0.40885336031E+01  0.11581597562E+03 -0.14787824780E+02  0.17116145646E+03  0.12509000000E+03 0.  0.
         25    1    4    4    0    0  0.28852232961E+02 -0.65656337911E+02  0.29944635525E+02  0.14726640945E+03  0.12509000000E+03 0.  0.
         25    1    4    4    0    0 -0.32940766564E+02 -0.50159637713E+02 -0.20105380657E+02  0.14018850805E+03  0.12509000000E+03 0.  0.
<mgrwt>
<rscale>  2 0.45858968E+03</rscale>
<asrwt>0</asrwt>
<pdfrwt beam="1">  1       21 0.33357927E-01 0.45858968E+03</pdfrwt>
<pdfrwt beam="2">  1       21 0.34085658E-01 0.45858968E+03</pdfrwt>
<totfact> 0.66360513E+04</totfact>
</mgrwt>
</event>
<event>
 7    0  0.4748297E-002  0.4513642E+03  0.7546771E-02  0.1027316E+00
         21   -1    0    0  502  501  0.00000000000E+00  0.00000000000E+00  0.42709230924E+03  0.42709230924E+03  0.00000000000E+00 0.  1.
         21   -1    0    0  501  502 -0.00000000000E+00 -0.00000000000E+00 -0.11925385533E+03  0.11925385533E+03  0.00000000000E+00 0.  1.
      99926    2    1    2    0    0  0.00000000000E+00  0.00000000000E+00  0.30783845391E+03  0.54634616457E+03  0.45136417429E+03 0.  0.
      99925    2    3    3    0    0  0.88903609293E+02 -0.21831671055E+02  0.12186237343E+03  0.30424064167E+03  0.26330867130E+03 0.  0.
         25    1    4    4    0    0  0.42114242075E+02 -0.21741336535E+02  0.17832678366E+02  0.13495113048E+03  0.12509000000E+03 0.  0.
         25    1    4    4    0    0  0.46789367218E+02 -0.90334519963E-01  0.10402969506E+03  0.16928951119E+03  0.12509000000E+03 0.  0.
         25    1    3    3    0    0 -0.88903609293E+02  0.21831671055E+02  0.18597608048E+03  0.24210552290E+03  0.12509000000E+03 0.  0.
<mgrwt>
<rscale>  2 0.45136417E+03</rscale>
<asrwt>0</asrwt>
<pdfrwt beam="1">  1       21 0.62807692E-01 0.45136417E+03</pdfrwt>
<pdfrwt beam="2">  1       21 0.17537332E-01 0.45136417E+03</pdfrwt>
<totfact> 0.63927983E+04</totfact>
</mgrwt>
</event>
<event>
 7    0  0.4748297E-002  0.4518605E+03  0.7546771E-02  0.1027169E+00
         21   -1    0    0  502  501  0.00000000000E+00  0.00000000000E+00  0.66272071821E+02  0.66272071821E+02  0.00000000000E+00 0.  1.
         21   -1    0    0  501  502 -0.00000000000E+00 -0.00000000000E+00 -0.77022617994E+03  0.77022617994E+03  0.00000000000E+00 0.  1.
      99926    2    1    2    0    0  0.00000000000E+00 -0.71054273576E-14 -0.70395410812E+03  0.83649825176E+03  0.45186053032E+03 0.  0.
      99925    2    3    3    0    0 -0.10426918345E+03 -0.35568871583E+02 -0.43266108058E+03  0.51808873222E+03  0.26283667279E+03 0.  0.
         25    1    4    4    0    0 -0.34158292079E+02 -0.53451501658E+02 -0.22346770882E+03  0.26383551113E+03  0.12509000000E+03 0.  0.
         25    1    4    4    0    0 -0.70110891368E+02  0.17882630076E+02 -0.20919337176E+03  0.25425322109E+03  0.12509000000E+03 0.  0.
         25    1    3    3    0    0  0.10426918345E+03  0.35568871583E+02 -0.27129302754E+03  0.31840951954E+03  0.12509000000E+03 0.  0.
<mgrwt>
<rscale>  2 0.45186053E+03</rscale>
<asrwt>0</asrwt>
<pdfrwt beam="1">  1       21 0.97458937E-02 0.45186053E+03</pdfrwt>
<pdfrwt beam="2">  1       21 0.11326855E+00 0.45186053E+03</pdfrwt>
<totfact> 0.47201455E+04</totfact>
</mgrwt>
</event>
<event>
 7    0  0.4748297E-002  0.4525151E+03  0.7546771E-02  0.1026975E+00
         21   -1    0    0  502  501  0.00000000000E+00  0.00000000000E+00  0.36296084541E+03  0.36296084541E+03  0.00000000000E+00 0. -1.
         21   -1    0    0  501  502 -0.00000000000E+00 -0.00000000000E+00 -0.14104130002E+03  0.14104130002E+03  0.00000000000E+00 0. -1.
      99926    2    1    2    0    0  0.00000000000E+00  0.00000000000E+00  0.22191954539E+03  0.50400214543E+03  0.45251505828E+03 0.  0.
      99925    2    3    3    0    0  0.41367008826E+02  0.85877743579E+02  0.20289312450E+03  0.34558582982E+03  0.26301659556E+03 0.  0.
         25    1    4    4    0    0 -0.84043869399E+01  0.11510176787E+02  0.87918349495E+02  0.15355866035E+03  0.12509000000E+03 0.  0.
         25    1    3    3    0    0 -0.41367008826E+02 -0.85877743579E+02  0.19026420894E+02  0.15841631562E+03  0.12509000000E+03 0.  0.
         25    1    4    4    0    0  0.49771395765E+02  0.74367566792E+02  0.11497477500E+03  0.19202716947E+03  0.12509000000E+03 0.  0.
<mgrwt>
<rscale>  2 0.45251506E+03</rscale>
<asrwt>0</asrwt>
<pdfrwt beam="1">  1       21 0.53376595E-01 0.45251506E+03</pdfrwt>
<pdfrwt beam="2">  1       21 0.20741368E-01 0.45251506E+03</pdfrwt>
<totfact> 0.66288224E+04</totfact>
</mgrwt>
</event>
<event>
 7    0  0.4748297E-002  0.4476630E+03  0.7546771E-02  0.1028421E+00
         21   -1    0    0  502  501  0.00000000000E+00  0.00000000000E+00  0.77239995962E+03  0.77239995962E+03  0.00000000000E+00 0. -1.
         21   -1    0    0  501  502 -0.00000000000E+00 -0.00000000000E+00 -0.64863468258E+02  0.64863468258E+02  0.00000000000E+00 0. -1.
      99926    2    1    2    0    0  0.00000000000E+00  0.00000000000E+00  0.70753649136E+03  0.83726342788E+03  0.44766299942E+03 0.  0.
      99925    2    3    3    0    0  0.93134083212E+02  0.50536177869E+02  0.46040669681E+03  0.54070229390E+03  0.26297676976E+03 0.  0.
         25    1    4    4    0    0  0.21227043409E+02  0.43350157996E+02  0.27232757087E+03  0.30354511613E+03  0.12509000000E+03 0.  0.
         25    1    3    3    0    0 -0.93134083212E+02 -0.50536177869E+02  0.24712979456E+03  0.29656113398E+03  0.12509000000E+03 0.  0.
         25    1    4    4    0    0  0.71907039803E+02  0.71860198728E+01  0.18807912594E+03  0.23715717777E+03  0.12509000000E+03 0.  0.
<mgrwt>
<rscale>  2 0.44766300E+03</rscale>
<asrwt>0</asrwt>
<pdfrwt beam="1">  1       21 0.11358822E+00 0.44766300E+03</pdfrwt>
<pdfrwt beam="2">  1       21 0.95387458E-02 0.44766300E+03</pdfrwt>
<totfact> 0.48761424E+04</totfact>
</mgrwt>
</event>
<event>
 7    0  0.4748297E-002  0.4554599E+03  0.7546771E-02  0.1026106E+00
         21   -1    0    0  502  501  0.00000000000E+00  0.00000000000E+00  0.34912770710E+02  0.34912770710E+02  0.00000000000E+00 0.  1.
         21   -1    0    0  501  502 -0.00000000000E+00 -0.00000000000E+00 -0.14854427527E+04  0.14854427527E+04  0.00000000000E+00 0.  1.
      99926    2    1    2    0    0  0.00000000000E+00  0.00000000000E+00 -0.14505299820E+04  0.15203555234E+04  0.45545986531E+03 0.  0.
      99925    2    3    3    0    0  0.46341695262E+02  0.91748136326E+02 -0.75210156865E+03  0.80340710832E+03  0.26313673042E+03 0.  0.
         25    1    4    4    0    0  0.57122945137E+02  0.37925261733E+02 -0.44471703359E+03  0.46703544234E+03  0.12509000000E+03 0.  0.
         25    1    3    3    0    0 -0.46341695262E+02 -0.91748136326E+02 -0.69842841335E+03  0.71694841510E+03  0.12509000000E+03 0.  0.
         25    1    4    4    0    0 -0.10781249875E+02  0.53822874593E+02 -0.30738453506E+03  0.33637166597E+03  0.12509000000E+03 0.  0.
<mgrwt>
<rscale>  2 0.45545987E+03</rscale>
<asrwt>0</asrwt>
<pdfrwt beam="1">  1       21 0.51342292E-02 0.45545987E+03</pdfrwt>
<pdfrwt beam="2">  1       21 0.21844754E+00 0.45545987E+03</pdfrwt>
<totfact> 0.23201624E+04</totfact>
</mgrwt>
</event>
<event>
 7    0  0.4748297E-002  0.4545574E+03  0.7546771E-02  0.1026372E+00
         21   -1    0    0  502  501  0.00000000000E+00  0.00000000000E+00  0.25101547448E+03  0.25101547448E+03  0.00000000000E+00 0.  1.
         21   -1    0    0  501  502 -0.00000000000E+00 -0.00000000000E+00 -0.20578656475E+03  0.20578656475E+03  0.00000000000E+00 0.  1.
      99926    2    1    2    0    0  0.00000000000E+00  0.00000000000E+00  0.45228909735E+02  0.45680203923E+03  0.45455742077E+03 0.  0.
      99925    2    3    3    0    0  0.45829666785E+01  0.94855605652E+02  0.89468183637E+02  0.29363583268E+03  0.26305675593E+03 0.  0.
         25    1    4    4    0    0 -0.36846578531E+02  0.56442853494E+02  0.52548996709E+02  0.15150040005E+03  0.12509000000E+03 0.  0.
         25    1    3    3    0    0 -0.45829666785E+01 -0.94855605652E+02 -0.44239273902E+02  0.16316620656E+03  0.12509000000E+03 0.  0.
         25    1    4    4    0    0  0.41429545210E+02  0.38412752158E+02  0.36919186928E+02  0.14213543263E+03  0.12509000000E+03 0.  0.
<mgrwt>
<rscale>  2 0.45455742E+03</rscale>
<asrwt>0</asrwt>
<pdfrwt beam="1">  1       21 0.36914041E-01 0.45455742E+03</pdfrwt>
<pdfrwt beam="2">  1       21 0.30262730E-01 0.45455742E+03</pdfrwt>
<totfact> 0.68656085E+04</totfact>
</mgrwt>
</event>
<event>
 7    0  0.4748297E-002  0.4554013E+03  0.7546771E-02  0.1026123E+00
         21   -1    0    0  502  501  0.00000000000E+00  0.00000000000E+00  0.87338988769E+03  0.87338988769E+03  0.00000000000E+00 0.  1.
         21   -1    0    0  501  502 -0.00000000000E+00 -0.00000000000E+00 -0.59363615467E+02  0.59363615467E+02  0.00000000000E+00 0.  1.
      99926    2    1    2    0    0  0.00000000000E+00  0.00000000000E+00  0.81402627223E+03  0.93275350316E+03  0.45540127995E+03 0.  0.
      99925    2    3    3    0    0  0.71092188563E+02 -0.82919790490E+02  0.57551749328E+03  0.64212704761E+03  0.26301515028E+03 0.  0.
         25    1    3    3    0    0 -0.71092188563E+02  0.82919790490E+02  0.23850877895E+03  0.29062645555E+03  0.12509000000E+03 0.  0.
         25    1    4    4    0    0  0.62694111523E+01 -0.38428407440E+02  0.33684576274E+03  0.36142582087E+03  0.12509000000E+03 0.  0.
         25    1    4    4    0    0  0.64822777411E+02 -0.44491383050E+02  0.23867173054E+03  0.28070122674E+03  0.12509000000E+03 0.  0.
<mgrwt>
<rscale>  2 0.45540128E+03</rscale>
<asrwt>0</asrwt>
<pdfrwt beam="1">  1       21 0.12843968E+00 0.45540128E+03</pdfrwt>
<pdfrwt beam="2">  1       21 0.87299440E-02 0.45540128E+03</pdfrwt>
<totfact> 0.41716107E+04</totfact>
</mgrwt>
</event>
<event>
 7    0  0.4748297E-002  0.4531321E+03  0.7546771E-02  0.1026792E+00
         21   -1    0    0  502  501  0.00000000000E+00  0.00000000000E+00  0.12733326942E+03  0.12733326942E+03  0.00000000000E+00 0.  1.
         21   -1    0    0  501  502 -0.00000000000E+00 -0.00000000000E+00 -0.40313245939E+03  0.40313245939E+03  0.00000000000E+00 0.  1.
      99926    2    1    2    0    0  0.00000000000E+00  0.00000000000E+00 -0.27579918996E+03  0.53046572881E+03  0.45313209582E+03 0.  0.
      99925    2    3    3    0    0 -0.85776783557E+02  0.70304291410E+02 -0.18669860939E+03  0.34102768737E+03  0.26295087529E+03 0.  0.
         25    1    4    4    0    0 -0.35537223747E+02  0.71804899732E+02 -0.77555007048E+02  0.16757423762E+03  0.12509000000E+03 0.  0.
         25    1    4    4    0    0 -0.50239559810E+02 -0.15006083210E+01 -0.10914360234E+03  0.17345344974E+03  0.12509000000E+03 0.  0.
         25    1    3    3    0    0  0.85776783557E+02 -0.70304291410E+02 -0.89100580569E+02  0.18943804144E+03  0.12509000000E+03 0.  0.
<mgrwt>
<rscale>  2 0.45313210E+03</rscale>
<asrwt>0</asrwt>
<pdfrwt beam="1">  1       21 0.18725481E-01 0.45313210E+03</pdfrwt>
<pdfrwt beam="2">  1       21 0.59284185E-01 0.45313210E+03</pdfrwt>
<totfact> 0.64118914E+04</totfact>
</mgrwt>
</event>
<event>
 7    0  0.4748297E-002  0.4564346E+03  0.7546771E-02  0.1025820E+00
         21   -1    0    0  502  501  0.00000000000E+00  0.00000000000E+00  0.32534277249E+03  0.32534277249E+03  0.00000000000E+00 0.  1.
         21   -1    0    0  501  502 -0.00000000000E+00 -0.00000000000E+00 -0.16008698459E+03  0.16008698459E+03  0.00000000000E+00 0.  1.
      99926    2    1    2    0    0  0.14210854715E-13  0.00000000000E+00  0.16525578790E+03  0.48542975709E+03  0.45643463237E+03 0.  0.
      99925    2    3    3    0    0 -0.84659937278E+02 -0.10480839827E+02  0.22845372181E+02  0.27757070006E+03  0.26314716323E+03 0.  0.
         25    1    3    3    0    0  0.84659937278E+02  0.10480839827E+02  0.14241041572E+03  0.20785905703E+03  0.12509000000E+03 0.  0.
         25    1    4    4    0    0 -0.80329837127E+02  0.15308526873E+01 -0.51216308437E+01  0.14875807691E+03  0.12509000000E+03 0.  0.
         25    1    4    4    0    0 -0.43301001506E+01 -0.12011692514E+02  0.27967003024E+02  0.12881262315E+03  0.12509000000E+03 0.  0.
<mgrwt>
<rscale>  2 0.45643463E+03</rscale>
<asrwt>0</asrwt>
<pdfrwt beam="1">  1       21 0.47844525E-01 0.45643463E+03</pdfrwt>
<pdfrwt beam="2">  1       21 0.23542204E-01 0.45643463E+03</pdfrwt>
<totfact> 0.65557143E+04</totfact>
</mgrwt>
</event>
<event>
 7    0  0.4748297E-002  0.4482210E+03  0.7546771E-02  0.1028254E+00
         21   -1    0    0  502  501  0.00000000000E+00  0.00000000000E+00  0.36150031503E+03  0.36150031503E+03  0.00000000000E+00 0. -1.
         21   -1    0    0  501  502 -0.00000000000E+00 -0.00000000000E+00 -0.13893630298E+03  0.13893630298E+03  0.00000000000E+00 0. -1.
      99926    2    1    2    0    0  0.00000000000E+00  0.00000000000E+00  0.22256401205E+03  0.50043661801E+03  0.44822100484E+03 0.  0.
      99925    2    3    3    0    0 -0.95034016399E+02  0.48381279606E+02  0.14040943020E+03  0.31667292217E+03  0.26304889100E+03 0.  0.
         25    1    4    4    0    0 -0.14007412056E+02 -0.86753739829E+00  0.75757935124E+02  0.14691403285E+03  0.12509000000E+03 0.  0.
         25    1    3    3    0    0  0.95034016399E+02 -0.48381279606E+02  0.82154581848E+02  0.18376369584E+03  0.12509000000E+03 0.  0.
         25    1    4    4    0    0 -0.81026604343E+02  0.49248817004E+02  0.64651495076E+02  0.16975888932E+03  0.12509000000E+03 0.  0.
<mgrwt>
<rscale>  2 0.44822100E+03</rscale>
<asrwt>0</asrwt>
<pdfrwt beam="1">  1       21 0.53161811E-01 0.44822100E+03</pdfrwt>
<pdfrwt beam="2">  1       21 0.20431809E-01 0.44822100E+03</pdfrwt>
<totfact> 0.68871886E+04</totfact>
</mgrwt>
</event>
<event>
 7    0  0.4748297E-002  0.4559180E+03  0.7546771E-02  0.1025972E+00
         21   -1    0    0  502  501  0.00000000000E+00  0.00000000000E+00  0.45617201207E+02  0.45617201207E+02  0.00000000000E+00 0. -1.
         21   -1    0    0  501  502 -0.00000000000E+00 -0.00000000000E+00 -0.11391605397E+04  0.11391605397E+04  0.00000000000E+00 0. -1.
      99926    2    1    2    0    0  0.00000000000E+00  0.35527136788E-14 -0.10935433384E+04  0.11847777409E+04  0.45591804327E+03 0.  0.
      99925    2    3    3    0    0 -0.85032937507E+02 -0.25654643489E+02 -0.87341818731E+03  0.91646569965E+03  0.26298533709E+03 0.  0.
         25    1    4    4    0    0 -0.51966120804E+02 -0.37600498947E+02 -0.35036892601E+03  0.37751843352E+03  0.12509000000E+03 0.  0.
         25    1    3    3    0    0  0.85032937507E+02  0.25654643489E+02 -0.22012515114E+03  0.26831204121E+03  0.12509000000E+03 0.  0.
         25    1    4    4    0    0 -0.33066816703E+02  0.11945855458E+02 -0.52304926130E+03  0.53894726614E+03  0.12509000000E+03 0.  0.
<mgrwt>
<rscale>  2 0.45591804E+03</rscale>
<asrwt>0</asrwt>
<pdfrwt beam="1">  1       21 0.67084123E-02 0.45591804E+03</pdfrwt>
<pdfrwt beam="2">  1       21 0.16752360E+00 0.45591804E+03</pdfrwt>
<totfact> 0.32409736E+04</totfact>
</mgrwt>
</event>
<event>
 7    0  0.4748297E-002  0.4545237E+03  0.7546771E-02  0.1026382E+00
         21   -1    0    0  502  501  0.00000000000E+00  0.00000000000E+00  0.77143794950E+02  0.77143794950E+02  0.00000000000E+00 0.  1.
         21   -1    0    0  501  502 -0.00000000000E+00 -0.00000000000E+00 -0.66950219029E+03  0.66950219029E+03  0.00000000000E+00 0.  1.
      99926    2    1    2    0    0  0.00000000000E+00  0.00000000000E+00 -0.59235839534E+03  0.74664598524E+03  0.45452366137E+03 0.  0.
      99925    2    3    3    0    0  0.38007708266E+02 -0.32661652590E+02 -0.20701298824E+03  0.33841815631E+03  0.26298498395E+03 0.  0.
         25    1    4    4    0    0 -0.10107757335E+02 -0.36910818645E+02 -0.77793508033E+02  0.15219695557E+03  0.12509000000E+03 0.  0.
         25    1    3    3    0    0 -0.38007708266E+02  0.32661652590E+02 -0.38534540711E+03  0.40822782893E+03  0.12509000000E+03 0.  0.
         25    1    4    4    0    0  0.48115465602E+02  0.42491660552E+01 -0.12921948020E+03  0.18622120074E+03  0.12509000000E+03 0.  0.
<mgrwt>
<rscale>  2 0.45452366E+03</rscale>
<asrwt>0</asrwt>
<pdfrwt beam="1">  1       21 0.11344675E-01 0.45452366E+03</pdfrwt>
<pdfrwt beam="2">  1       21 0.98456208E-01 0.45452366E+03</pdfrwt>
<totfact> 0.50631768E+04</totfact>
</mgrwt>
</event>
<event>
 7    0  0.4748297E-002  0.4534553E+03  0.7546771E-02  0.1026697E+00
         21   -1    0    0  502  501  0.00000000000E+00  0.00000000000E+00  0.50964193985E+02  0.50964193985E+02  0.00000000000E+00 0.  1.
         21   -1    0    0  501  502 -0.00000000000E+00 -0.00000000000E+00 -0.10086575264E+04  0.10086575264E+04  0.00000000000E+00 0.  1.
      99926    2    1    2    0    0  0.14210854715E-13  0.00000000000E+00 -0.95769333243E+03  0.10596217204E+04  0.45345525839E+03 0.  0.
      99925    2    3    3    0    0  0.82932693089E+02 -0.52926175546E+02 -0.72695727562E+03  0.77932607710E+03  0.26306509124E+03 0.  0.
         25    1    4    4    0    0  0.24774120982E+02 -0.58146739119E+02 -0.31266363029E+03  0.34263808041E+03  0.12509000000E+03 0.  0.
         25    1    3    3    0    0 -0.82932693089E+02  0.52926175546E+02 -0.23073605682E+03  0.28029564331E+03  0.12509000000E+03 0.  0.
         25    1    4    4    0    0  0.58158572107E+02  0.52205635722E+01 -0.41429364533E+03  0.43668799669E+03  0.12509000000E+03 0.  0.
<mgrwt>
<rscale>  2 0.45345526E+03</rscale>
<asrwt>0</asrwt>
<pdfrwt beam="1">  1       21 0.74947349E-02 0.45345526E+03</pdfrwt>
<pdfrwt beam="2">  1       21 0.14833198E+00 0.45345526E+03</pdfrwt>
<totfact> 0.37374866E+04</totfact>
</mgrwt>
</event>
<event>
 7    0  0.4748297E-002  0.4545574E+03  0.7546771E-02  0.1026372E+00
         21   -1    0    0  502  501  0.00000000000E+00  0.00000000000E+00  0.20475632735E+03  0.20475632735E+03  0.00000000000E+00 0. -1.
         21   -1    0    0  501  502 -0.00000000000E+00 -0.00000000000E+00 -0.25227848331E+03  0.25227848331E+03  0.00000000000E+00 0. -1.
      99926    2    1    2    0    0  0.00000000000E+00  0.00000000000E+00 -0.47522155960E+02  0.45703481067E+03  0.45455743626E+03 0.  0.
      99925    2    3    3    0    0 -0.49855483668E+02  0.34135392233E+02  0.65809213208E+02  0.27775206863E+03  0.26299156799E+03 0.  0.
         25    1    4    4    0    0 -0.23262399576E+02  0.12310251530E+02  0.74099586154E+02  0.14775296374E+03  0.12509000000E+03 0.  0.
         25    1    3    3    0    0  0.49855483668E+02 -0.34135392233E+02 -0.11333136917E+03  0.17928274204E+03  0.12509000000E+03 0.  0.
         25    1    4    4    0    0 -0.26593084092E+02  0.21825140702E+02 -0.82903729461E+01  0.12999910489E+03  0.12509000000E+03 0.  0.
<mgrwt>
<rscale>  2 0.45455744E+03</rscale>
<asrwt>0</asrwt>
<pdfrwt beam="1">  1       21 0.30111225E-01 0.45455744E+03</pdfrwt>
<pdfrwt beam="2">  1       21 0.37099777E-01 0.45455744E+03</pdfrwt>
<totfact> 0.68638998E+04</totfact>
</mgrwt>
</event>
<event>
 7    0  0.4748297E-002  0.4541855E+03  0.7546771E-02  0.1026481E+00
         21   -1    0    0  502  501  0.00000000000E+00  0.00000000000E+00  0.27555266615E+02  0.27555266615E+02  0.00000000000E+00 0.  1.
         21   -1    0    0  501  502 -0.00000000000E+00 -0.00000000000E+00 -0.18715520224E+04  0.18715520224E+04  0.00000000000E+00 0.  1.
      99926    2    1    2    0    0  0.00000000000E+00  0.71054273576E-14 -0.18439967558E+04  0.18991072890E+04  0.45418549057E+03 0.  0.
      99925    2    3    3    0    0  0.34307302725E+02  0.36405481773E+02 -0.15823004450E+04  0.16047693586E+04  0.26288333116E+03 0.  0.
         25    1    3    3    0    0 -0.34307302725E+02 -0.36405481773E+02 -0.26169631074E+03  0.29433793041E+03  0.12509000000E+03 0.  0.
         25    1    4    4    0    0 -0.90763600657E+01  0.41665080567E+02 -0.90871121230E+03  0.91827116622E+03  0.12509000000E+03 0.  0.
         25    1    4    4    0    0  0.43383662791E+02 -0.52595987944E+01 -0.67358923272E+03  0.68649819236E+03  0.12509000000E+03 0.  0.
<mgrwt>
<rscale>  2 0.45418549E+03</rscale>
<asrwt>0</asrwt>
<pdfrwt beam="1">  1       21 0.40522435E-02 0.45418549E+03</pdfrwt>
<pdfrwt beam="2">  1       21 0.27522835E+00 0.45418549E+03</pdfrwt>
<totfact> 0.15525605E+04</totfact>
</mgrwt>
</event>
<event>
 7    0  0.4748297E-002  0.4309590E+03  0.7546771E-02  0.1033557E+00
         21   -1    0    0  502  501  0.00000000000E+00  0.00000000000E+00  0.23806814246E+03  0.23806814246E+03  0.00000000000E+00 0. -1.
         21   -1    0    0  501  502 -0.00000000000E+00 -0.00000000000E+00 -0.19503415385E+03  0.19503415385E+03  0.00000000000E+00 0. -1.
      99926    2    1    2    0    0  0.00000000000E+00  0.00000000000E+00  0.43033988606E+02  0.43310229631E+03  0.43095901765E+03 0.  0.
      99925    2    3    3    0    0 -0.24900806785E+02  0.84988908554E+02  0.35569587491E+02  0.27965396579E+03  0.26286494683E+03 0.  0.
         25    1    3    3    0    0  0.24900806785E+02 -0.84988908554E+02  0.74644011147E+01  0.15344833052E+03  0.12509000000E+03 0.  0.
         25    1    4    4    0    0 -0.76265518508E+01  0.26097231474E+02  0.54328374862E+02  0.13906225296E+03  0.12509000000E+03 0.  0.
         25    1    4    4    0    0 -0.17274254934E+02  0.58891677081E+02 -0.18758787370E+02  0.14059171283E+03  0.12509000000E+03 0.  0.
<mgrwt>
<rscale>  2 0.43095902E+03</rscale>
<asrwt>0</asrwt>
<pdfrwt beam="1">  1       21 0.35010021E-01 0.43095902E+03</pdfrwt>
<pdfrwt beam="2">  1       21 0.28681493E-01 0.43095902E+03</pdfrwt>
<totfact> 0.85428057E+04</totfact>
</mgrwt>
</event>
<event>
 7    0  0.4748297E-002  0.4533209E+03  0.7546771E-02  0.1026736E+00
         21   -1    0    0  502  501  0.00000000000E+00  0.00000000000E+00  0.28275001853E+02  0.28275001853E+02  0.00000000000E+00 0. -1.
         21   -1    0    0  501  502 -0.00000000000E+00 -0.00000000000E+00 -0.18169749790E+04  0.18169749790E+04  0.00000000000E+00 0. -1.
      99926    2    1    2    0    0  0.35527136788E-14  0.00000000000E+00 -0.17886999771E+04  0.18452499808E+04  0.45332094987E+03 0.  0.
      99925    2    3    3    0    0  0.24503685096E+02  0.88799121378E+02 -0.87641156980E+03  0.91982934092E+03  0.26363433424E+03 0.  0.
         25    1    4    4    0    0  0.12214492015E+02  0.58365176878E+02 -0.58192855622E+03  0.59820066895E+03  0.12509000000E+03 0.  0.
         25    1    3    3    0    0 -0.24503685096E+02 -0.88799121378E+02 -0.91228840733E+03  0.92542063992E+03  0.12509000000E+03 0.  0.
         25    1    4    4    0    0  0.12289193081E+02  0.30433944500E+02 -0.29448301358E+03  0.32162867197E+03  0.12509000000E+03 0.  0.
<mgrwt>
<rscale>  2 0.45332095E+03</rscale>
<asrwt>0</asrwt>
<pdfrwt beam="1">  1       21 0.41580889E-02 0.45332095E+03</pdfrwt>
<pdfrwt beam="2">  1       21 0.26720218E+00 0.45332095E+03</pdfrwt>
<totfact> 0.16620897E+04</totfact>
</mgrwt>
</event>
<event>
 7    0  0.4748297E-002  0.4136952E+03  0.7546771E-02  0.1039138E+00
         21   -1    0    0  502  501  0.00000000000E+00  0.00000000000E+00  0.41704366251E+02  0.41704366251E+02  0.00000000000E+00 0. -1.
         21   -1    0    0  501  502 -0.00000000000E+00 -0.00000000000E+00 -0.10259338949E+04  0.10259338949E+04  0.00000000000E+00 0. -1.
      99926    2    1    2    0    0  0.35527136788E-14  0.00000000000E+00 -0.98422952865E+03  0.10676382612E+04  0.41369516750E+03 0.  0.
      99925    2    3    3    0    0 -0.26895830870E+02 -0.60479874161E+02 -0.61338394219E+03  0.67070607803E+03  0.26310754775E+03 0.  0.
         25    1    4    4    0    0  0.26398089362E+02 -0.29978777437E+02 -0.32071235721E+03  0.34655376262E+03  0.12509000000E+03 0.  0.
         25    1    3    3    0    0  0.26895830870E+02  0.60479874161E+02 -0.37084558647E+03  0.39693218312E+03  0.12509000000E+03 0.  0.
         25    1    4    4    0    0 -0.53293920231E+02 -0.30501096724E+02 -0.29267158497E+03  0.32415231541E+03  0.12509000000E+03 0.  0.
<mgrwt>
<rscale>  2 0.41369517E+03</rscale>
<asrwt>0</asrwt>
<pdfrwt beam="1">  1       21 0.61329963E-02 0.41369517E+03</pdfrwt>
<pdfrwt beam="2">  1       21 0.15087260E+00 0.41369517E+03</pdfrwt>
<totfact> 0.51276057E+04</totfact>
</mgrwt>
</event>
<event>
 7    0  0.4748297E-002  0.4468032E+03  0.7546771E-02  0.1028680E+00
         21   -1    0    0  502  501  0.00000000000E+00  0.00000000000E+00  0.83653921375E+03  0.83653921375E+03  0.00000000000E+00 0. -1.
         21   -1    0    0  501  502 -0.00000000000E+00 -0.00000000000E+00 -0.59660413893E+02  0.59660413893E+02  0.00000000000E+00 0. -1.
      99926    2    1    2    0    0  0.00000000000E+00  0.53290705182E-14  0.77687879985E+03  0.89619962764E+03  0.44680320379E+03 0.  0.
      99925    2    3    3    0    0 -0.85714724498E+02 -0.10585504631E+02  0.37191601167E+03  0.46364739401E+03  0.26303672621E+03 0.  0.
         25    1    3    3    0    0  0.85714724498E+02  0.10585504631E+02  0.40496278818E+03  0.43255223363E+03  0.12509000000E+03 0.  0.
         25    1    4    4    0    0 -0.70571089048E+02  0.25160708568E+02  0.19086744378E+03  0.24018998535E+03  0.12509000000E+03 0.  0.
         25    1    4    4    0    0 -0.15143635449E+02 -0.35746213200E+02  0.18104856789E+03  0.22345740867E+03  0.12509000000E+03 0.  0.
<mgrwt>
<rscale>  2 0.44680320E+03</rscale>
<asrwt>0</asrwt>
<pdfrwt beam="1">  1       21 0.12302047E+00 0.44680320E+03</pdfrwt>
<pdfrwt beam="2">  1       21 0.87735908E-02 0.44680320E+03</pdfrwt>
<totfact> 0.46298404E+04</totfact>
</mgrwt>
</event>
<event>
 7    0  0.4748297E-002  0.4453088E+03  0.7546771E-02  0.1029130E+00
         21   -1    0    0  502  501  0.00000000000E+00  0.00000000000E+00  0.48102987816E+02  0.48102987816E+02  0.00000000000E+00 0. -1.
         21   -1    0    0  501  502 -0.00000000000E+00 -0.00000000000E+00 -0.10306007373E+04  0.10306007373E+04  0.00000000000E+00 0. -1.
      99926    2    1    2    0    0  0.17763568394E-14  0.71054273576E-14 -0.98249774950E+03  0.10787037251E+04  0.44530876798E+03 0.  0.
      99925    2    3    3    0    0 -0.11871098937E+02 -0.42015739111E+02 -0.85202969278E+03  0.89275839110E+03  0.26297661908E+03 0.  0.
         25    1    4    4    0    0 -0.25859784342E+02  0.72619716036E+01 -0.34291929457E+03  0.36600903727E+03  0.12509000000E+03 0.  0.
         25    1    3    3    0    0  0.11871098937E+02  0.42015739111E+02 -0.13046805672E+03  0.18594533403E+03  0.12509000000E+03 0.  0.
         25    1    4    4    0    0  0.13988685405E+02 -0.49277710715E+02 -0.50911039821E+03  0.52674935383E+03  0.12509000000E+03 0.  0.
<mgrwt>
<rscale>  2 0.44530877E+03</rscale>
<asrwt>0</asrwt>
<pdfrwt beam="1">  1       21 0.70739690E-02 0.44530877E+03</pdfrwt>
<pdfrwt beam="2">  1       21 0.15155893E+00 0.44530877E+03</pdfrwt>
<totfact> 0.39116764E+04</totfact>
</mgrwt>
</event>
<event>
 7    0  0.4748297E-002  0.4584134E+03  0.7546771E-02  0.1025242E+00
         21   -1    0    0  502  501  0.00000000000E+00  0.00000000000E+00  0.63857483194E+02  0.63857483194E+02  0.00000000000E+00 0. -1.
         21   -1    0    0  501  502 -0.00000000000E+00 -0.00000000000E+00 -0.82270255650E+03  0.82270255650E+03  0.00000000000E+00 0. -1.
      99926    2    1    2    0    0  0.14210854715E-13  0.71054273576E-14 -0.75884507330E+03  0.88656003969E+03  0.45841341462E+03 0.  0.
      99925    2    3    3    0    0  0.10621298168E+03  0.37309358456E+02 -0.41934347542E+03  0.50763784613E+03  0.26300959439E+03 0.  0.
         25    1    4    4    0    0  0.64177729568E+02 -0.11023601661E+02 -0.25500676757E+03  0.29140394708E+03  0.12509000000E+03 0.  0.
         25    1    3    3    0    0 -0.10621298168E+03 -0.37309358456E+02 -0.33950159788E+03  0.37892219356E+03  0.12509000000E+03 0.  0.
         25    1    4    4    0    0  0.42035252113E+02  0.48332960118E+02 -0.16433670785E+03  0.21623389906E+03  0.12509000000E+03 0.  0.
<mgrwt>
<rscale>  2 0.45841341E+03</rscale>
<asrwt>0</asrwt>
<pdfrwt beam="1">  1       21 0.93908057E-02 0.45841341E+03</pdfrwt>
<pdfrwt beam="2">  1       21 0.12098568E+00 0.45841341E+03</pdfrwt>
<totfact> 0.42667867E+04</totfact>
</mgrwt>
</event>
<event>
 7    0  0.4748297E-002  0.4599165E+03  0.7546771E-02  0.1024805E+00
         21   -1    0    0  502  501  0.00000000000E+00  0.00000000000E+00  0.11405488432E+03  0.11405488432E+03  0.00000000000E+00 0.  1.
         21   -1    0    0  501  502 -0.00000000000E+00 -0.00000000000E+00 -0.46364343373E+03  0.46364343373E+03  0.00000000000E+00 0.  1.
      99926    2    1    2    0    0  0.88817841970E-15 -0.71054273576E-14 -0.34958854940E+03  0.57769831805E+03  0.45991650634E+03 0.  0.
      99925    2    3    3    0    0  0.67711857972E+01  0.30409580614E+02 -0.36162767746E+03  0.44822615789E+03  0.26298577902E+03 0.  0.
         25    1    3    3    0    0 -0.67711857972E+01 -0.30409580614E+02  0.12039128056E+02  0.12947216015E+03  0.12509000000E+03 0.  0.
         25    1    4    4    0    0  0.65085412798E+00  0.39733702724E+02 -0.12994850456E+03  0.18469789571E+03  0.12509000000E+03 0.  0.
         25    1    4    4    0    0  0.61203316692E+01 -0.93241221102E+01 -0.23167917290E+03  0.26352826218E+03  0.12509000000E+03 0.  0.
<mgrwt>
<rscale>  2 0.45991651E+03</rscale>
<asrwt>0</asrwt>
<pdfrwt beam="1">  1       21 0.16772777E-01 0.45991651E+03</pdfrwt>
<pdfrwt beam="2">  1       21 0.68182856E-01 0.45991651E+03</pdfrwt>
<totfact> 0.57792956E+04</totfact>
</mgrwt>
</event>
<event>
 7    0  0.4748297E-002  0.4493784E+03  0.7546771E-02  0.1027908E+00
         21   -1    0    0  502  501  0.00000000000E+00  0.00000000000E+00  0.94721647458E+03  0.94721647458E+03  0.00000000000E+00 0. -1.
         21   -1    0    0  501  502 -0.00000000000E+00 -0.00000000000E+00 -0.53298515752E+02  0.53298515752E+02  0.00000000000E+00 0. -1.
      99926    2    1    2    0    0  0.00000000000E+00 -0.14210854715E-13  0.89391795883E+03  0.10005149903E+04  0.44937838039E+03 0.  0.
      99925    2    3    3    0    0 -0.42159930954E+02 -0.77172403472E+02  0.42876357891E+03  0.51087313663E+03  0.26347697337E+03 0.  0.
         25    1    4    4    0    0  0.20277965373E+02 -0.30222845199E+02  0.19919831011E+03  0.23801699751E+03  0.12509000000E+03 0.  0.
         25    1    3    3    0    0  0.42159930954E+02  0.77172403472E+02  0.46515437992E+03  0.48964185370E+03  0.12509000000E+03 0.  0.
         25    1    4    4    0    0 -0.62437896328E+02 -0.46949558273E+02  0.22956526880E+03  0.27285613912E+03  0.12509000000E+03 0.  0.
<mgrwt>
<rscale>  2 0.44937838E+03</rscale>
<asrwt>0</asrwt>
<pdfrwt beam="1">  1       21 0.13929653E+00 0.44937838E+03</pdfrwt>
<pdfrwt beam="2">  1       21 0.78380176E-02 0.44937838E+03</pdfrwt>
<totfact> 0.40913710E+04</totfact>
</mgrwt>
</event>
<event>
 7    0  0.4748297E-002  0.4585659E+03  0.7546771E-02  0.1025198E+00
         21   -1    0    0  502  501  0.00000000000E+00  0.00000000000E+00  0.38326047379E+02  0.38326047379E+02  0.00000000000E+00 0.  1.
         21   -1    0    0  501  502 -0.00000000000E+00 -0.00000000000E+00 -0.13716697402E+04  0.13716697402E+04  0.00000000000E+00 0.  1.
      99926    2    1    2    0    0 -0.14210854715E-13  0.00000000000E+00 -0.13333436928E+04  0.14099957876E+04  0.45856593616E+03 0.  0.
      99925    2    3    3    0    0 -0.10596953313E+03 -0.18764303333E+02 -0.97341667165E+03  0.10140455259E+04  0.26299557216E+03 0.  0.
         25    1    3    3    0    0  0.10596953313E+03  0.18764303333E+02 -0.35992702115E+03  0.39595026163E+03  0.12509000000E+03 0.  0.
         25    1    4    4    0    0 -0.88333102016E+02 -0.24855004289E+02 -0.60278928972E+03  0.62243308399E+03  0.12509000000E+03 0.  0.
         25    1    4    4    0    0 -0.17636431113E+02  0.60907009559E+01 -0.37062738193E+03  0.39161244193E+03  0.12509000000E+03 0.  0.
<mgrwt>
<rscale>  2 0.45856594E+03</rscale>
<asrwt>0</asrwt>
<pdfrwt beam="1">  1       21 0.56361832E-02 0.45856594E+03</pdfrwt>
<pdfrwt beam="2">  1       21 0.20171615E+00 0.45856594E+03</pdfrwt>
<totfact> 0.25356890E+04</totfact>
</mgrwt>
</event>
<event>
 7    0  0.4748297E-002  0.4606558E+03  0.7546771E-02  0.1024591E+00
         21   -1    0    0  502  501  0.00000000000E+00  0.00000000000E+00  0.15152636506E+03  0.15152636506E+03  0.00000000000E+00 0. -1.
         21   -1    0    0  501  502 -0.00000000000E+00 -0.00000000000E+00 -0.35011032379E+03  0.35011032379E+03  0.00000000000E+00 0. -1.
      99926    2    1    2    0    0  0.00000000000E+00  0.00000000000E+00 -0.19858395873E+03  0.50163668885E+03  0.46065581396E+03 0.  0.
      99925    2    3    3    0    0 -0.98109177314E+02  0.61274243726E+02 -0.15181318236E+03  0.32495913725E+03  0.26300428689E+03 0.  0.
         25    1    4    4    0    0 -0.41363353547E+02  0.46829260284E+02 -0.11750749526E+03  0.18264563005E+03  0.12509000000E+03 0.  0.
         25    1    4    4    0    0 -0.56745823767E+02  0.14444983442E+02 -0.34305687104E+02  0.14231350719E+03  0.12509000000E+03 0.  0.
         25    1    3    3    0    0  0.98109177314E+02 -0.61274243726E+02 -0.46770776368E+02  0.17667755160E+03  0.12509000000E+03 0.  0.
<mgrwt>
<rscale>  2 0.46065581E+03</rscale>
<asrwt>0</asrwt>
<pdfrwt beam="1">  1       21 0.22283289E-01 0.46065581E+03</pdfrwt>
<pdfrwt beam="2">  1       21 0.51486812E-01 0.46065581E+03</pdfrwt>
<totfact> 0.62310908E+04</totfact>
</mgrwt>
</event>
<event>
 7    0  0.4748297E-002  0.4253320E+03  0.7546771E-02  0.1035345E+00
         21   -1    0    0  502  501  0.00000000000E+00  0.00000000000E+00  0.61718559925E+02  0.61718559925E+02  0.00000000000E+00 0.  1.
         21   -1    0    0  501  502 -0.00000000000E+00 -0.00000000000E+00 -0.73279151693E+03  0.73279151693E+03  0.00000000000E+00 0.  1.
      99926    2    1    2    0    0  0.00000000000E+00 -0.71054273576E-14 -0.67107295700E+03  0.79451007685E+03  0.42533204511E+03 0.  0.
      99925    2    3    3    0    0 -0.32617510087E+02  0.46287865327E+02 -0.54628473481E+03  0.60896742154E+03  0.26307383103E+03 0.  0.
         25    1    4    4    0    0 -0.19579650212E+02  0.24178963414E+02 -0.36603670088E+03  0.38807004454E+03  0.12509000000E+03 0.  0.
         25    1    3    3    0    0  0.32617510087E+02 -0.46287865327E+02 -0.12478822219E+03  0.18554265531E+03  0.12509000000E+03 0.  0.
         25    1    4    4    0    0 -0.13037859874E+02  0.22108901913E+02 -0.18024803393E+03  0.22089737701E+03  0.12509000000E+03 0.  0.
<mgrwt>
<rscale>  2 0.42533205E+03</rscale>
<asrwt>0</asrwt>
<pdfrwt beam="1">  1       21 0.90762594E-02 0.42533205E+03</pdfrwt>
<pdfrwt beam="2">  1       21 0.10776345E+00 0.42533205E+03</pdfrwt>
<totfact> 0.61054328E+04</totfact>
</mgrwt>
</event>
<event>
 7    0  0.4748297E-002  0.4407904E+03  0.7546771E-02  0.1030505E+00
         21   -1    0    0  502  501  0.00000000000E+00  0.00000000000E+00  0.39344537641E+02  0.39344537641E+02  0.00000000000E+00 0.  1.
         21   -1    0    0  501  502 -0.00000000000E+00 -0.00000000000E+00 -0.12345814680E+04  0.12345814680E+04  0.00000000000E+00 0.  1.
      99926    2    1    2    0    0  0.00000000000E+00  0.00000000000E+00 -0.11952369304E+04  0.12739260057E+04  0.44079036759E+03 0.  0.
      99925    2    3    3    0    0  0.45174505620E+02  0.88161044422E+02 -0.74016085744E+03  0.79168659834E+03  0.26290011296E+03 0.  0.
         25    1    4    4    0    0 -0.18306501244E+02  0.38982440268E+02 -0.34965345348E+03  0.37384462584E+03  0.12509000000E+03 0.  0.
         25    1    3    3    0    0 -0.45174505620E+02 -0.88161044422E+02 -0.45507607297E+03  0.48223940735E+03  0.12509000000E+03 0.  0.
         25    1    4    4    0    0  0.63481006864E+02  0.49178604154E+02 -0.39050740396E+03  0.41784197251E+03  0.12509000000E+03 0.  0.
<mgrwt>
<rscale>  2 0.44079037E+03</rscale>
<asrwt>0</asrwt>
<pdfrwt beam="1">  1       21 0.57859607E-02 0.44079037E+03</pdfrwt>
<pdfrwt beam="2">  1       21 0.18155612E+00 0.44079037E+03</pdfrwt>
<totfact> 0.33426396E+04</totfact>
</mgrwt>
</event>
<event>
 7    0  0.4748297E-002  0.4480234E+03  0.7546771E-02  0.1028313E+00
         21   -1    0    0  502  501  0.00000000000E+00  0.00000000000E+00  0.10429961995E+03  0.10429961995E+03  0.00000000000E+00 0.  1.
         21   -1    0    0  501  502 -0.00000000000E+00 -0.00000000000E+00 -0.48112572874E+03  0.48112572874E+03  0.00000000000E+00 0.  1.
      99926    2    1    2    0    0  0.00000000000E+00  0.39968028887E-14 -0.37682610879E+03  0.58542534869E+03  0.44802335053E+03 0.  0.
      99925    2    3    3    0    0 -0.98351890970E+02 -0.75887520069E+00 -0.18529946736E+03  0.33642006194E+03  0.26299980062E+03 0.  0.
         25    1    3    3    0    0  0.98351890970E+02  0.75887520069E+00 -0.19152664143E+03  0.24900528674E+03  0.12509000000E+03 0.  0.
         25    1    4    4    0    0 -0.47581641573E+02  0.33572377420E+02 -0.11873874925E+03  0.18203712757E+03  0.12509000000E+03 0.  0.
         25    1    4    4    0    0 -0.50770249397E+02 -0.34331252621E+02 -0.66560718115E+02  0.15438293438E+03  0.12509000000E+03 0.  0.
<mgrwt>
<rscale>  2 0.44802335E+03</rscale>
<asrwt>0</asrwt>
<pdfrwt beam="1">  1       21 0.15338179E-01 0.44802335E+03</pdfrwt>
<pdfrwt beam="2">  1       21 0.70753784E-01 0.44802335E+03</pdfrwt>
<totfact> 0.62986708E+04</totfact>
</mgrwt>
</event>
<event>
 7    0  0.4748297E-002  0.4580063E+03  0.7546771E-02  0.1025361E+00
         21   -1    0    0  502  501  0.00000000000E+00  0.00000000000E+00  0.11232710953E+03  0.11232710953E+03  0.00000000000E+00 0.  1.
         21   -1    0    0  501  502 -0.00000000000E+00 -0.00000000000E+00 -0.46687247047E+03  0.46687247047E+03  0.00000000000E+00 0.  1.
      99926    2    1    2    0    0  0.00000000000E+00  0.00000000000E+00 -0.35454536094E+03  0.57919958001E+03  0.45800626690E+03 0.  0.
      99925    2    3    3    0    0 -0.35800531415E+02 -0.91090913464E+02 -0.14381748714E+03  0.31531896787E+03  0.26298925706E+03 0.  0.
         25    1    4    4    0    0 -0.30597785798E+02 -0.46719004275E+02 -0.29636143046E+02  0.14015954813E+03  0.12509000000E+03 0.  0.
         25    1    4    4    0    0 -0.52027456166E+01 -0.44371909189E+02 -0.11418134410E+03  0.17515941975E+03  0.12509000000E+03 0.  0.
         25    1    3    3    0    0  0.35800531415E+02  0.91090913464E+02 -0.21072787380E+03  0.26388061213E+03  0.12509000000E+03 0.  0.
<mgrwt>
<rscale>  2 0.45800627E+03</rscale>
<asrwt>0</asrwt>
<pdfrwt beam="1">  1       21 0.16518693E-01 0.45800627E+03</pdfrwt>
<pdfrwt beam="2">  1       21 0.68657716E-01 0.45800627E+03</pdfrwt>
<totfact> 0.58572625E+04</totfact>
</mgrwt>
</event>
<event>
 7    0  0.4748297E-002  0.4552425E+03  0.7546771E-02  0.1026170E+00
         21   -1    0    0  502  501  0.00000000000E+00  0.00000000000E+00  0.66080435969E+03  0.66080435969E+03  0.00000000000E+00 0.  1.
         21   -1    0    0  501  502 -0.00000000000E+00 -0.00000000000E+00 -0.78406604499E+02  0.78406604499E+02  0.00000000000E+00 0.  1.
      99926    2    1    2    0    0  0.00000000000E+00  0.00000000000E+00  0.58239775519E+03  0.73921096419E+03  0.45524246762E+03 0.  0.
      99925    2    3    3    0    0 -0.40649805599E+02  0.75698954535E+02  0.24616527488E+03  0.37031731104E+03  0.26297305925E+03 0.  0.
         25    1    4    4    0    0  0.75119034770E+01  0.14925812689E+02  0.14220030156E+03  0.19012533351E+03  0.12509000000E+03 0.  0.
         25    1    3    3    0    0  0.40649805599E+02 -0.75698954535E+02  0.33623248031E+03  0.36889365315E+03  0.12509000000E+03 0.  0.
         25    1    4    4    0    0 -0.48161709076E+02  0.60773141846E+02  0.10396497331E+03  0.18019197753E+03  0.12509000000E+03 0.  0.
<mgrwt>
<rscale>  2 0.45524247E+03</rscale>
<asrwt>0</asrwt>
<pdfrwt beam="1">  1       21 0.97177108E-01 0.45524247E+03</pdfrwt>
<pdfrwt beam="2">  1       21 0.11530383E-01 0.45524247E+03</pdfrwt>
<totfact> 0.50728461E+04</totfact>
</mgrwt>
</event>
<event>
 7    0  0.4748297E-002  0.4612188E+03  0.7546771E-02  0.1024428E+00
         21   -1    0    0  502  501  0.00000000000E+00  0.00000000000E+00  0.16598810988E+03  0.16598810988E+03  0.00000000000E+00 0.  1.
         21   -1    0    0  501  502 -0.00000000000E+00 -0.00000000000E+00 -0.32038862918E+03  0.32038862918E+03  0.00000000000E+00 0.  1.
      99926    2    1    2    0    0  0.00000000000E+00  0.00000000000E+00 -0.15440051930E+03  0.48637673906E+03  0.46121883303E+03 0.  0.
      99925    2    3    3    0    0  0.36435810578E+02  0.89138061612E+02 -0.22927539625E+02  0.28093620069E+03  0.26291883627E+03 0.  0.
         25    1    4    4    0    0  0.33160218007E+02  0.83062297873E+02 -0.24095877994E+02  0.15565045719E+03  0.12509000000E+03 0.  0.
         25    1    3    3    0    0 -0.36435810578E+02 -0.89138061612E+02 -0.13147297967E+03  0.20544053837E+03  0.12509000000E+03 0.  0.
         25    1    4    4    0    0  0.32755925711E+01  0.60757637388E+01  0.11683383695E+01  0.12528574351E+03  0.12509000000E+03 0.  0.
<mgrwt>
<rscale>  2 0.46121883E+03</rscale>
<asrwt>0</asrwt>
<pdfrwt beam="1">  1       21 0.24410017E-01 0.46121883E+03</pdfrwt>
<pdfrwt beam="2">  1       21 0.47115974E-01 0.46121883E+03</pdfrwt>
<totfact> 0.63067464E+04</totfact>
</mgrwt>
</event>
<event>
 6    0  0.4748297E-002  0.4511526E+03  0.7546771E-02  0.1027379E+00
         21   -1    0    0  502  501  0.00000000000E+00  0.00000000000E+00  0.10768385408E+04  0.10768385408E+04  0.00000000000E+00 0. -1.
         21   -1    0    0  501  502 -0.00000000000E+00 -0.00000000000E+00 -0.47253765655E+02  0.47253765655E+02  0.00000000000E+00 0. -1.
      99926    2    1    2    0    0 -0.71054273576E-14 -0.71054273576E-14  0.10295847751E+04  0.11240923064E+04  0.45115263960E+03 0.  0.
         25    1    3    3    0    0 -0.86144733689E+02  0.53596266769E+01  0.50749617937E+03  0.52976364628E+03  0.12509000000E+03 0.  0.
         25    1    3    3    0    0  0.28219290100E+02 -0.44325689443E+02  0.31002664740E+03  0.33841561028E+03  0.12509000000E+03 0.  0.
         25    1    3    3    0    0  0.57925443590E+02  0.38966062767E+02  0.21206194836E+03  0.25591304989E+03  0.12509000000E+03 0.  0.
<mgrwt>
<rscale>  2 0.45115264E+03</rscale>
<asrwt>0</asrwt>
<pdfrwt beam="1">  1       21 0.15835859E+00 0.45115264E+03</pdfrwt>
<pdfrwt beam="2">  1       21 0.69490838E-02 0.45115264E+03</pdfrwt>
<totfact> 0.35718586E+04</totfact>
</mgrwt>
</event>
<event>
 7    0  0.4748297E-002  0.4362276E+03  0.7546771E-02  0.1031911E+00
         21   -1    0    0  502  501  0.00000000000E+00  0.00000000000E+00  0.43901740060E+03  0.43901740060E+03  0.00000000000E+00 0. -1.
         21   -1    0    0  501  502 -0.00000000000E+00 -0.00000000000E+00 -0.10836389624E+03  0.10836389624E+03  0.00000000000E+00 0. -1.
      99926    2    1    2    0    0  0.00000000000E+00  0.00000000000E+00  0.33065350436E+03  0.54738129683E+03  0.43622762886E+03 0.  0.
      99925    2    3    3    0    0 -0.17220104865E+02 -0.82553281875E+02  0.26581687935E+03  0.38317754413E+03  0.26278287733E+03 0.  0.
         25    1    4    4    0    0 -0.67552010827E+01 -0.60995170720E+01  0.15334894444E+03  0.19810664732E+03  0.12509000000E+03 0.  0.
         25    1    3    3    0    0  0.17220104865E+02  0.82553281875E+02  0.64836625007E+02  0.16420375270E+03  0.12509000000E+03 0.  0.
         25    1    4    4    0    0 -0.10464903782E+02 -0.76453764803E+02  0.11246793491E+03  0.18507089681E+03  0.12509000000E+03 0.  0.
<mgrwt>
<rscale>  2 0.43622763E+03</rscale>
<asrwt>0</asrwt>
<pdfrwt beam="1">  1       21 0.64561381E-01 0.43622763E+03</pdfrwt>
<pdfrwt beam="2">  1       21 0.15935867E-01 0.43622763E+03</pdfrwt>
<totfact> 0.72177961E+04</totfact>
</mgrwt>
</event>
<event>
 7    0  0.4748297E-002  0.4482048E+03  0.7546771E-02  0.1028259E+00
         21   -1    0    0  502  501  0.00000000000E+00  0.00000000000E+00  0.12954247580E+04  0.12954247580E+04  0.00000000000E+00 0.  1.
         21   -1    0    0  501  502 -0.00000000000E+00 -0.00000000000E+00 -0.38768668762E+02  0.38768668762E+02  0.00000000000E+00 0.  1.
      99926    2    1    2    0    0  0.00000000000E+00  0.35527136788E-14  0.12566560892E+04  0.13341934267E+04  0.44820483419E+03 0.  0.
      99925    2    3    3    0    0 -0.50541854884E+02  0.31661201612E+02  0.10588391224E+04  0.10926650200E+04  0.26309627158E+03 0.  0.
         25    1    3    3    0    0  0.50541854884E+02 -0.31661201612E+02  0.19781696683E+03  0.24152840671E+03  0.12509000000E+03 0.  0.
         25    1    4    4    0    0 -0.65567051273E+02  0.75212736873E+01  0.56653740345E+03  0.58392443465E+03  0.12509000000E+03 0.  0.
         25    1    4    4    0    0  0.15025196389E+02  0.24139927925E+02  0.49230171891E+03  0.50874058536E+03  0.12509000000E+03 0.  0.
<mgrwt>
<rscale>  2 0.44820483E+03</rscale>
<asrwt>0</asrwt>
<pdfrwt beam="1">  1       21 0.19050361E+00 0.44820483E+03</pdfrwt>
<pdfrwt beam="2">  1       21 0.57012757E-02 0.44820483E+03</pdfrwt>
<totfact> 0.29674803E+04</totfact>
</mgrwt>
</event>
<event>
 7    0  0.4748297E-002  0.4650449E+03  0.7546771E-02  0.1023328E+00
         21   -1    0    0  502  501  0.00000000000E+00  0.00000000000E+00  0.28647314321E+03  0.28647314321E+03  0.00000000000E+00 0. -1.
         21   -1    0    0  501  502 -0.00000000000E+00 -0.00000000000E+00 -0.18873211440E+03  0.18873211440E+03  0.00000000000E+00 0. -1.
      99926    2    1    2    0    0  0.00000000000E+00  0.00000000000E+00  0.97741028808E+02  0.47520525760E+03  0.46504486681E+03 0.  0.
      99925    2    3    3    0    0 -0.12032750351E+03  0.10241373615E+02  0.40762501316E+02  0.29223625879E+03  0.26297691078E+03 0.  0.
         25    1    3    3    0    0  0.12032750351E+03 -0.10241373615E+02  0.56978527491E+02  0.18296899882E+03  0.12509000000E+03 0.  0.
         25    1    4    4    0    0 -0.65437700522E+02 -0.20336577228E+02 -0.10848299340E+02  0.14304147203E+03  0.12509000000E+03 0.  0.
         25    1    4    4    0    0 -0.54889802985E+02  0.30577950843E+02  0.51610800657E+02  0.14919478675E+03  0.12509000000E+03 0.  0.
<mgrwt>
<rscale>  2 0.46504487E+03</rscale>
<asrwt>0</asrwt>
<pdfrwt beam="1">  1       21 0.42128403E-01 0.46504487E+03</pdfrwt>
<pdfrwt beam="2">  1       21 0.27754723E-01 0.46504487E+03</pdfrwt>
<totfact> 0.61962112E+04</totfact>
</mgrwt>
</event>
<event>
 7    0  0.4748297E-002  0.4317195E+03  0.7546771E-02  0.1033318E+00
         21   -1    0    0  502  501  0.00000000000E+00  0.00000000000E+00  0.16652369182E+03  0.16652369182E+03  0.00000000000E+00 0.  1.
         21   -1    0    0  501  502 -0.00000000000E+00 -0.00000000000E+00 -0.27981261008E+03  0.27981261008E+03  0.00000000000E+00 0.  1.
      99926    2    1    2    0    0  0.71054273576E-14  0.00000000000E+00 -0.11328891826E+03  0.44633630190E+03  0.43171948692E+03 0.  0.
      99925    2    3    3    0    0  0.62876925486E+02 -0.61494701848E+02 -0.55323281328E+02  0.28280456406E+03  0.26302594907E+03 0.  0.
         25    1    3    3    0    0 -0.62876925486E+02  0.61494701848E+02 -0.57965636928E+02  0.16353173783E+03  0.12509000000E+03 0.  0.
         25    1    4    4    0    0  0.52066489437E+02 -0.53911656707E+02 -0.58140612336E+02  0.15698797710E+03  0.12509000000E+03 0.  0.
         25    1    4    4    0    0  0.10810436049E+02 -0.75830451410E+01  0.28173310084E+01  0.12581658696E+03  0.12509000000E+03 0.  0.
<mgrwt>
<rscale>  2 0.43171949E+03</rscale>
<asrwt>0</asrwt>
<pdfrwt beam="1">  1       21 0.24488778E-01 0.43171949E+03</pdfrwt>
<pdfrwt beam="2">  1       21 0.41148913E-01 0.43171949E+03</pdfrwt>
<totfact> 0.83648828E+04</totfact>
</mgrwt>
</event>
<event>
 7    0  0.4748297E-002  0.4504315E+03  0.7546771E-02  0.1027593E+00
         21   -1    0    0  502  501  0.00000000000E+00  0.00000000000E+00  0.64068606390E+02  0.64068606390E+02  0.00000000000E+00 0.  1.
         21   -1    0    0  501  502 -0.00000000000E+00 -0.00000000000E+00 -0.79168476387E+03  0.79168476387E+03  0.00000000000E+00 0.  1.
      99926    2    1    2    0    0  0.00000000000E+00 -0.71054273576E-14 -0.72761615748E+03  0.85575337026E+03  0.45043152430E+03 0.  0.
      99925    2    3    3    0    0 -0.42453211958E+02 -0.32779369867E+02 -0.63966942645E+03  0.69370739563E+03  0.26301371319E+03 0.  0.
         25    1    4    4    0    0  0.16744637019E+02 -0.18092182487E+01 -0.32005236055E+03  0.34404168023E+03  0.12509000000E+03 0.  0.
         25    1    4    4    0    0 -0.59197848977E+02 -0.30970151618E+02 -0.31961706590E+03  0.34966571540E+03  0.12509000000E+03 0.  0.
         25    1    3    3    0    0  0.42453211958E+02  0.32779369867E+02 -0.87946731028E+02  0.16204597463E+03  0.12509000000E+03 0.  0.
<mgrwt>
<rscale>  2 0.45043152E+03</rscale>
<asrwt>0</asrwt>
<pdfrwt beam="1">  1       21 0.94218547E-02 0.45043152E+03</pdfrwt>
<pdfrwt beam="2">  1       21 0.11642422E+00 0.45043152E+03</pdfrwt>
<totfact> 0.46839125E+04</totfact>
</mgrwt>
</event>
<event>
 7    0  0.4748297E-002  0.4641231E+03  0.7546771E-02  0.1023592E+00
         21   -1    0    0  502  501  0.00000000000E+00  0.00000000000E+00  0.12535728274E+03  0.12535728274E+03  0.00000000000E+00 0. -1.
         21   -1    0    0  501  502 -0.00000000000E+00 -0.00000000000E+00 -0.42959258371E+03  0.42959258371E+03  0.00000000000E+00 0. -1.
      99926    2    1    2    0    0 -0.12212453271E-14  0.00000000000E+00 -0.30423530097E+03  0.55494986646E+03  0.46412308273E+03 0.  0.
      99925    2    3    3    0    0 -0.87222036767E+00  0.56176266061E+02 -0.31876197967E+03  0.41705473916E+03  0.26299985197E+03 0.  0.
         25    1    3    3    0    0  0.87222036767E+00 -0.56176266061E+02  0.14526678701E+02  0.13789512729E+03  0.12509000000E+03 0.  0.
         25    1    4    4    0    0 -0.22742181489E+02  0.28307293947E+02 -0.21204445897E+03  0.24885511928E+03  0.12509000000E+03 0.  0.
         25    1    4    4    0    0  0.21869961121E+02  0.27868972114E+02 -0.10671752070E+03  0.16819961989E+03  0.12509000000E+03 0.  0.
<mgrwt>
<rscale>  2 0.46412308E+03</rscale>
<asrwt>0</asrwt>
<pdfrwt beam="1">  1       21 0.18434895E-01 0.46412308E+03</pdfrwt>
<pdfrwt beam="2">  1       21 0.63175379E-01 0.46412308E+03</pdfrwt>
<totfact> 0.57292276E+04</totfact>
</mgrwt>
</event>
<event>
 7    0  0.4748297E-002  0.4529323E+03  0.7546771E-02  0.1026851E+00
         21   -1    0    0  502  501  0.00000000000E+00  0.00000000000E+00  0.25810195022E+03  0.25810195022E+03  0.00000000000E+00 0. -1.
         21   -1    0    0  501  502 -0.00000000000E+00 -0.00000000000E+00 -0.19870798830E+03  0.19870798830E+03  0.00000000000E+00 0. -1.
      99926    2    1    2    0    0  0.71054273576E-14 -0.14210854715E-13  0.59393961917E+02  0.45680993852E+03  0.45293230975E+03 0.  0.
      99925    2    3    3    0    0 -0.43796826314E+02  0.98632824512E+02  0.10953907988E+02  0.28464564782E+03  0.26316641248E+03 0.  0.
         25    1    4    4    0    0 -0.37372271342E+02  0.84014753803E+02 -0.14743995189E+02  0.15594889873E+03  0.12509000000E+03 0.  0.
         25    1    4    4    0    0 -0.64245549717E+01  0.14618070709E+02  0.25697903177E+02  0.12869674909E+03  0.12509000000E+03 0.  0.
         25    1    3    3    0    0  0.43796826314E+02 -0.98632824512E+02  0.48440053928E+02  0.17216429070E+03  0.12509000000E+03 0.  0.
<mgrwt>
<rscale>  2 0.45293231E+03</rscale>
<asrwt>0</asrwt>
<pdfrwt beam="1">  1       21 0.37956169E-01 0.45293231E+03</pdfrwt>
<pdfrwt beam="2">  1       21 0.29221763E-01 0.45293231E+03</pdfrwt>
<totfact> 0.69553514E+04</totfact>
</mgrwt>
</event>
<event>
 7    0  0.4748297E-002  0.4268640E+03  0.7546771E-02  0.1034855E+00
         21   -1    0    0  502  501  0.00000000000E+00  0.00000000000E+00  0.92945004715E+02  0.92945004715E+02  0.00000000000E+00 0.  1.
         21   -1    0    0  501  502 -0.00000000000E+00 -0.00000000000E+00 -0.49010935291E+03  0.49010935291E+03  0.00000000000E+00 0.  1.
      99926    2    1    2    0    0  0.00000000000E+00  0.00000000000E+00 -0.39716434819E+03  0.58305435762E+03  0.42686398825E+03 0.  0.
      99925    2    3    3    0    0  0.43737210488E+02  0.52412470556E+02 -0.32403068683E+03  0.42287929347E+03  0.26300380261E+03 0.  0.
         25    1    4    4    0    0  0.14126813633E+02 -0.14436747750E+02 -0.15740699096E+03  0.20207042201E+03  0.12509000000E+03 0.  0.
         25    1    4    4    0    0  0.29610396855E+02  0.66849218306E+02 -0.16662369587E+03  0.22080887146E+03  0.12509000000E+03 0.  0.
         25    1    3    3    0    0 -0.43737210488E+02 -0.52412470556E+02 -0.73133661362E+02  0.16017506415E+03  0.12509000000E+03 0.  0.
<mgrwt>
<rscale>  2 0.42686399E+03</rscale>
<asrwt>0</asrwt>
<pdfrwt beam="1">  1       21 0.13668383E-01 0.42686399E+03</pdfrwt>
<pdfrwt beam="2">  1       21 0.72074905E-01 0.42686399E+03</pdfrwt>
<totfact> 0.75091374E+04</totfact>
</mgrwt>
</event>
<event>
 7    0  0.4748297E-002  0.4516972E+03  0.7546771E-02  0.1027217E+00
         21   -1    0    0  502  501  0.00000000000E+00  0.00000000000E+00  0.14503234646E+03  0.14503234646E+03  0.00000000000E+00 0.  1.
         21   -1    0    0  501  502 -0.00000000000E+00 -0.00000000000E+00 -0.35169800484E+03  0.35169800484E+03  0.00000000000E+00 0.  1.
      99926    2    1    2    0    0  0.00000000000E+00  0.00000000000E+00 -0.20666565838E+03  0.49673035131E+03  0.45169718568E+03 0.  0.
      99925    2    3    3    0    0 -0.67882402050E+02 -0.73262488580E+02 -0.18067427361E+03  0.33456231215E+03  0.26327425781E+03 0.  0.
         25    1    4    4    0    0 -0.75463582418E+02 -0.46228979659E+02 -0.10381081202E+03  0.18508393670E+03  0.12509000000E+03 0.  0.
         25    1    4    4    0    0  0.75811803674E+01 -0.27033508921E+02 -0.76863461589E+02  0.14947837545E+03  0.12509000000E+03 0.  0.
         25    1    3    3    0    0  0.67882402050E+02  0.73262488580E+02 -0.25991384771E+02  0.16216803915E+03  0.12509000000E+03 0.  0.
<mgrwt>
<rscale>  2 0.45169719E+03</rscale>
<asrwt>0</asrwt>
<pdfrwt beam="1">  1       21 0.21328286E-01 0.45169719E+03</pdfrwt>
<pdfrwt beam="2">  1       21 0.51720295E-01 0.45169719E+03</pdfrwt>
<totfact> 0.67246866E+04</totfact>
</mgrwt>
</event>
<event>
 7    0  0.4748297E-002  0.4520797E+03  0.7546771E-02  0.1027104E+00
         21   -1    0    0  502  501  0.00000000000E+00  0.00000000000E+00  0.96398001192E+02  0.96398001192E+02  0.00000000000E+00 0. -1.
         21   -1    0    0  501  502 -0.00000000000E+00 -0.00000000000E+00 -0.53003196438E+03  0.53003196438E+03  0.00000000000E+00 0. -1.
      99926    2    1    2    0    0 -0.14210854715E-13  0.17763568394E-14 -0.43363396319E+03  0.62642996557E+03  0.45207973604E+03 0.  0.
      99925    2    3    3    0    0  0.99733819237E+02 -0.12836644862E+02 -0.21093465873E+03  0.35192294844E+03  0.26314390974E+03 0.  0.
         25    1    4    4    0    0  0.69251282515E+02 -0.22536570841E+02 -0.15232215203E+03  0.21012658864E+03  0.12509000000E+03 0.  0.
         25    1    3    3    0    0 -0.99733819237E+02  0.12836644862E+02 -0.22269930446E+03  0.27450701713E+03  0.12509000000E+03 0.  0.
         25    1    4    4    0    0  0.30482536722E+02  0.96999259790E+01 -0.58612506699E+02  0.14179635979E+03  0.12509000000E+03 0.  0.
<mgrwt>
<rscale>  2 0.45207974E+03</rscale>
<asrwt>0</asrwt>
<pdfrwt beam="1">  1       21 0.14176177E-01 0.45207974E+03</pdfrwt>
<pdfrwt beam="2">  1       21 0.77945878E-01 0.45207974E+03</pdfrwt>
<totfact> 0.58415380E+04</totfact>
</mgrwt>
</event>
<event>
 7    0  0.4748297E-002  0.4509745E+03  0.7546771E-02  0.1027432E+00
         21   -1    0    0  502  501  0.00000000000E+00  0.00000000000E+00  0.14000131785E+04  0.14000131785E+04  0.00000000000E+00 0.  1.
         21   -1    0    0  501  502 -0.00000000000E+00 -0.00000000000E+00 -0.36317153853E+02  0.36317153853E+02  0.00000000000E+00 0.  1.
      99926    2    1    2    0    0  0.00000000000E+00  0.71054273576E-14  0.13636960247E+04  0.14363303324E+04  0.45097447378E+03 0.  0.
      99925    2    3    3    0    0 -0.91403742724E+02  0.59987417133E+02  0.86525426014E+03  0.91093064154E+03  0.26301438101E+03 0.  0.
         25    1    4    4    0    0 -0.81237597955E+02  0.32803070393E+02  0.54198274545E+03  0.56308826414E+03  0.12509000000E+03 0.  0.
         25    1    3    3    0    0  0.91403742724E+02 -0.59987417133E+02  0.49844176456E+03  0.52539969086E+03  0.12509000000E+03 0.  0.
         25    1    4    4    0    0 -0.10166144769E+02  0.27184346741E+02  0.32327151469E+03  0.34784237740E+03  0.12509000000E+03 0.  0.
<mgrwt>
<rscale>  2 0.45097447E+03</rscale>
<asrwt>0</asrwt>
<pdfrwt beam="1">  1       21 0.20588426E+00 0.45097447E+03</pdfrwt>
<pdfrwt beam="2">  1       21 0.53407588E-02 0.45097447E+03</pdfrwt>
<totfact> 0.26189404E+04</totfact>
</mgrwt>
</event>
<event>
 7    0  0.4748297E-002  0.4560844E+03  0.7546771E-02  0.1025923E+00
         21   -1    0    0  502  501  0.00000000000E+00  0.00000000000E+00  0.52156195672E+03  0.52156195672E+03  0.00000000000E+00 0.  1.
         21   -1    0    0  501  502 -0.00000000000E+00 -0.00000000000E+00 -0.99706737009E+02  0.99706737009E+02  0.00000000000E+00 0.  1.
      99926    2    1    2    0    0  0.00000000000E+00  0.00000000000E+00  0.42185521971E+03  0.62126869373E+03  0.45608438190E+03 0.  0.
      99925    2    3    3    0    0  0.21000922983E+02 -0.11215366831E+03  0.26975863513E+03  0.39367176224E+03  0.26303659646E+03 0.  0.
         25    1    4    4    0    0  0.44480586168E+02 -0.40567721617E+02  0.15395591936E+03  0.20730218472E+03  0.12509000000E+03 0.  0.
         25    1    4    4    0    0 -0.23479663185E+02 -0.71585946690E+02  0.11580271577E+03  0.18636957752E+03  0.12509000000E+03 0.  0.
         25    1    3    3    0    0 -0.21000922983E+02  0.11215366831E+03  0.15209658458E+03  0.22759693149E+03  0.12509000000E+03 0.  0.
<mgrwt>
<rscale>  2 0.45608438E+03</rscale>
<asrwt>0</asrwt>
<pdfrwt beam="1">  1       21 0.76700287E-01 0.45608438E+03</pdfrwt>
<pdfrwt beam="2">  1       21 0.14662756E-01 0.45608438E+03</pdfrwt>
<totfact> 0.56899088E+04</totfact>
</mgrwt>
</event>
<event>
 7    0  0.4748297E-002  0.4529461E+03  0.7546771E-02  0.1026847E+00
         21   -1    0    0  502  501  0.00000000000E+00  0.00000000000E+00  0.17352759002E+03  0.17352759002E+03  0.00000000000E+00 0. -1.
         21   -1    0    0  501  502 -0.00000000000E+00 -0.00000000000E+00 -0.29557290028E+03  0.29557290028E+03  0.00000000000E+00 0. -1.
      99926    2    1    2    0    0 -0.14210854715E-13 -0.35527136788E-14 -0.12204531026E+03  0.46910049031E+03  0.45294614719E+03 0.  0.
      99925    2    3    3    0    0  0.86050813562E+02  0.16672733147E+02 -0.57354891723E+01  0.27711558172E+03  0.26282584966E+03 0.  0.
         25    1    4    4    0    0  0.36066874806E+02 -0.11585373776E+02 -0.37270654716E+02  0.13591044900E+03  0.12509000000E+03 0.  0.
         25    1    3    3    0    0 -0.86050813562E+02 -0.16672733147E+02 -0.11630982109E+03  0.19198490859E+03  0.12509000000E+03 0.  0.
         25    1    4    4    0    0  0.49983938756E+02  0.28258106923E+02  0.31535165544E+02  0.14120513272E+03  0.12509000000E+03 0.  0.
<mgrwt>
<rscale>  2 0.45294615E+03</rscale>
<asrwt>0</asrwt>
<pdfrwt beam="1">  1       21 0.25518763E-01 0.45294615E+03</pdfrwt>
<pdfrwt beam="2">  1       21 0.43466603E-01 0.45294615E+03</pdfrwt>
<totfact> 0.68613843E+04</totfact>
</mgrwt>
</event>
<event>
 7    0  0.4748297E-002  0.4557377E+03  0.7546771E-02  0.1026025E+00
         21   -1    0    0  502  501  0.00000000000E+00  0.00000000000E+00  0.41784556322E+03  0.41784556322E+03  0.00000000000E+00 0. -1.
         21   -1    0    0  501  502 -0.00000000000E+00 -0.00000000000E+00 -0.12426651740E+03  0.12426651740E+03  0.00000000000E+00 0. -1.
      99926    2    1    2    0    0  0.00000000000E+00  0.00000000000E+00  0.29357904582E+03  0.54211208062E+03  0.45573770066E+03 0.  0.
      99925    2    3    3    0    0  0.47139556290E+02  0.78230853113E+02  0.26554372593E+03  0.38470912192E+03  0.26295519383E+03 0.  0.
         25    1    4    4    0    0  0.39295109786E+02  0.78901954151E+02  0.14668980098E+03  0.21197884289E+03  0.12509000000E+03 0.  0.
         25    1    3    3    0    0 -0.47139556290E+02 -0.78230853113E+02  0.28035319896E+02  0.15740295870E+03  0.12509000000E+03 0.  0.
         25    1    4    4    0    0  0.78444465048E+01 -0.67110103814E+00  0.11885392495E+03  0.17273027903E+03  0.12509000000E+03 0.  0.
<mgrwt>
<rscale>  2 0.45573770E+03</rscale>
<asrwt>0</asrwt>
<pdfrwt beam="1">  1       21 0.61447877E-01 0.45573770E+03</pdfrwt>
<pdfrwt beam="2">  1       21 0.18274488E-01 0.45573770E+03</pdfrwt>
<totfact> 0.62027881E+04</totfact>
</mgrwt>
</event>
<event>
 7    0  0.4748297E-002  0.4520280E+03  0.7546771E-02  0.1027119E+00
         21   -1    0    0  502  501  0.00000000000E+00  0.00000000000E+00  0.30289939624E+03  0.30289939624E+03  0.00000000000E+00 0. -1.
         21   -1    0    0  501  502 -0.00000000000E+00 -0.00000000000E+00 -0.16864452158E+03  0.16864452158E+03  0.00000000000E+00 0. -1.
      99926    2    1    2    0    0  0.00000000000E+00  0.00000000000E+00  0.13425487466E+03  0.47154391782E+03  0.45202798040E+03 0.  0.
      99925    2    3    3    0    0  0.49668119552E+02  0.84107377892E+02  0.31230696689E+02  0.28232853139E+03  0.26304575668E+03 0.  0.
         25    1    4    4    0    0 -0.36069508864E+01  0.18451190977E+02  0.35166503586E+02  0.13129222223E+03  0.12509000000E+03 0.  0.
         25    1    3    3    0    0 -0.49668119552E+02 -0.84107377892E+02  0.10302417797E+03  0.18921538643E+03  0.12509000000E+03 0.  0.
         25    1    4    4    0    0  0.53275070439E+02  0.65656186915E+02 -0.39358068973E+01  0.15103630917E+03  0.12509000000E+03 0.  0.
<mgrwt>
<rscale>  2 0.45202798E+03</rscale>
<asrwt>0</asrwt>
<pdfrwt beam="1">  1       21 0.44544029E-01 0.45202798E+03</pdfrwt>
<pdfrwt beam="2">  1       21 0.24800665E-01 0.45202798E+03</pdfrwt>
<totfact> 0.68932379E+04</totfact>
</mgrwt>
</event>
<event>
 7    0  0.4748297E-002  0.4783736E+03  0.7546771E-02  0.1019583E+00
         21   -1    0    0  502  501  0.00000000000E+00  0.00000000000E+00  0.47619123338E+03  0.47619123338E+03  0.00000000000E+00 0. -1.
         21   -1    0    0  501  502 -0.00000000000E+00 -0.00000000000E+00 -0.12014150995E+03  0.12014150995E+03  0.00000000000E+00 0. -1.
      99926    2    1    2    0    0  0.71054273576E-14 -0.14210854715E-13  0.35604972342E+03  0.59633274333E+03  0.47837363558E+03 0.  0.
      99925    2    3    3    0    0 -0.56406992842E+02  0.67279540704E+02  0.34571955108E+03  0.44315798693E+03  0.26298043262E+03 0.  0.
         25    1    3    3    0    0  0.56406992842E+02 -0.67279540704E+02  0.10330172344E+02  0.15317475640E+03  0.12509000000E+03 0.  0.
         25    1    4    4    0    0 -0.40026913842E+02 -0.57524752907E+01  0.16179317673E+03  0.20847010563E+03  0.12509000000E+03 0.  0.
         25    1    4    4    0    0 -0.16380079000E+02  0.73032015995E+02  0.18392637435E+03  0.23468788130E+03  0.12509000000E+03 0.  0.
<mgrwt>
<rscale>  2 0.47837364E+03</rscale>
<asrwt>0</asrwt>
<pdfrwt beam="1">  1       21 0.70028122E-01 0.47837364E+03</pdfrwt>
<pdfrwt beam="2">  1       21 0.17667869E-01 0.47837364E+03</pdfrwt>
<totfact> 0.49172151E+04</totfact>
</mgrwt>
</event>
<event>
 7    0  0.4748297E-002  0.4437414E+03  0.7546771E-02  0.1029605E+00
         21   -1    0    0  502  501  0.00000000000E+00  0.00000000000E+00  0.26454395496E+03  0.26454395496E+03  0.00000000000E+00 0.  1.
         21   -1    0    0  501  502 -0.00000000000E+00 -0.00000000000E+00 -0.18608098383E+03  0.18608098383E+03  0.00000000000E+00 0.  1.
      99926    2    1    2    0    0  0.00000000000E+00  0.14210854715E-13  0.78462971123E+02  0.45062493879E+03  0.44374136343E+03 0.  0.
      99925    2    3    3    0    0  0.24459884618E+02 -0.97444782986E+02  0.69251329441E+02  0.28991982335E+03  0.26299046685E+03 0.  0.
         25    1    3    3    0    0 -0.24459884618E+02  0.97444782986E+02  0.92116416819E+01  0.16070511544E+03  0.12509000000E+03 0.  0.
         25    1    4    4    0    0  0.36936482317E+02 -0.25831565665E+02  0.92197715057E+01  0.13328197852E+03  0.12509000000E+03 0.  0.
         25    1    4    4    0    0 -0.12476597699E+02 -0.71613217321E+02  0.60031557936E+02  0.15663784483E+03  0.12509000000E+03 0.  0.
<mgrwt>
<rscale>  2 0.44374136E+03</rscale>
<asrwt>0</asrwt>
<pdfrwt beam="1">  1       21 0.38903523E-01 0.44374136E+03</pdfrwt>
<pdfrwt beam="2">  1       21 0.27364850E-01 0.44374136E+03</pdfrwt>
<totfact> 0.75415856E+04</totfact>
</mgrwt>
</event>
<event>
 7    0  0.4748297E-002  0.4541212E+03  0.7546771E-02  0.1026500E+00
         21   -1    0    0  502  501  0.00000000000E+00  0.00000000000E+00  0.66087381130E+02  0.66087381130E+02  0.00000000000E+00 0.  1.
         21   -1    0    0  501  502 -0.00000000000E+00 -0.00000000000E+00 -0.78012641559E+03  0.78012641559E+03  0.00000000000E+00 0.  1.
      99926    2    1    2    0    0  0.00000000000E+00  0.17763568394E-14 -0.71403903446E+03  0.84621379672E+03  0.45412118099E+03 0.  0.
      99925    2    3    3    0    0 -0.25943721865E+02 -0.59498571192E+01 -0.65304920730E+03  0.70452489588E+03  0.26300871516E+03 0.  0.
         25    1    4    4    0    0 -0.18129782260E+02  0.15180888839E+02 -0.42247423964E+03  0.44123818924E+03  0.12509000000E+03 0.  0.
         25    1    4    4    0    0 -0.78139396052E+01 -0.21130745959E+02 -0.23057496767E+03  0.26328670664E+03  0.12509000000E+03 0.  0.
         25    1    3    3    0    0  0.25943721865E+02  0.59498571192E+01 -0.60989827154E+02  0.14168890084E+03  0.12509000000E+03 0.  0.
<mgrwt>
<rscale>  2 0.45412118E+03</rscale>
<asrwt>0</asrwt>
<pdfrwt beam="1">  1       21 0.97187331E-02 0.45412118E+03</pdfrwt>
<pdfrwt beam="2">  1       21 0.11472447E+00 0.45412118E+03</pdfrwt>
<totfact> 0.45925026E+04</totfact>
</mgrwt>
</event>
<event>
 7    0  0.4748297E-002  0.4586513E+03  0.7546771E-02  0.1025173E+00
         21   -1    0    0  502  501  0.00000000000E+00  0.00000000000E+00  0.31415982132E+03  0.31415982132E+03  0.00000000000E+00 0.  1.
         21   -1    0    0  501  502 -0.00000000000E+00 -0.00000000000E+00 -0.16739965773E+03  0.16739965773E+03  0.00000000000E+00 0.  1.
      99926    2    1    2    0    0 -0.14210854715E-13  0.35527136788E-14  0.14676016359E+03  0.48155947904E+03  0.45865126866E+03 0.  0.
      99925    2    3    3    0    0 -0.11326504428E+03  0.19150666692E+02  0.71158968183E+02  0.29565959433E+03  0.26297391254E+03 0.  0.
         25    1    4    4    0    0 -0.58736488106E+02 -0.29692924714E+02  0.45339753039E+02  0.14844138951E+03  0.12509000000E+03 0.  0.
         25    1    4    4    0    0 -0.54528556174E+02  0.48843591406E+02  0.25819215144E+02  0.14721820482E+03  0.12509000000E+03 0.  0.
         25    1    3    3    0    0  0.11326504428E+03 -0.19150666692E+02  0.75601195406E+02  0.18589988472E+03  0.12509000000E+03 0.  0.
<mgrwt>
<rscale>  2 0.45865127E+03</rscale>
<asrwt>0</asrwt>
<pdfrwt beam="1">  1       21 0.46199974E-01 0.45865127E+03</pdfrwt>
<pdfrwt beam="2">  1       21 0.24617597E-01 0.45865127E+03</pdfrwt>
<totfact> 0.64691490E+04</totfact>
</mgrwt>
</event>
<event>
 7    0  0.4748297E-002  0.4549776E+03  0.7546771E-02  0.1026248E+00
         21   -1    0    0  502  501  0.00000000000E+00  0.00000000000E+00  0.27990123817E+03  0.27990123817E+03  0.00000000000E+00 0. -1.
         21   -1    0    0  501  502 -0.00000000000E+00 -0.00000000000E+00 -0.18489076360E+03  0.18489076360E+03  0.00000000000E+00 0. -1.
      99926    2    1    2    0    0  0.00000000000E+00  0.00000000000E+00  0.95010474573E+02  0.46479200176E+03  0.45497759794E+03 0.  0.
      99925    2    3    3    0    0  0.10348863952E+03  0.22448290773E+02  0.19088346246E+02  0.28416669363E+03  0.26300669295E+03 0.  0.
         25    1    3    3    0    0 -0.10348863952E+03 -0.22448290773E+02  0.75922128327E+02  0.18062530813E+03  0.12509000000E+03 0.  0.
         25    1    4    4    0    0  0.52588460869E+02 -0.27666503119E+02  0.21221034725E+02  0.14010289799E+03  0.12509000000E+03 0.  0.
         25    1    4    4    0    0  0.50900178649E+02  0.50114793892E+02 -0.21326884797E+01  0.14406379564E+03  0.12509000000E+03 0.  0.
<mgrwt>
<rscale>  2 0.45497760E+03</rscale>
<asrwt>0</asrwt>
<pdfrwt beam="1">  1       21 0.41161947E-01 0.45497760E+03</pdfrwt>
<pdfrwt beam="2">  1       21 0.27189818E-01 0.45497760E+03</pdfrwt>
<totfact> 0.67837821E+04</totfact>
</mgrwt>
</event>
<event>
 7    0  0.4748297E-002  0.4477968E+03  0.7546771E-02  0.1028381E+00
         21   -1    0    0  502  501  0.00000000000E+00  0.00000000000E+00  0.68665936069E+03  0.68665936069E+03  0.00000000000E+00 0.  1.
         21   -1    0    0  501  502 -0.00000000000E+00 -0.00000000000E+00 -0.73006334894E+02  0.73006334894E+02  0.00000000000E+00 0.  1.
      99926    2    1    2    0    0  0.00000000000E+00 -0.14210854715E-13  0.61365302580E+03  0.75966569559E+03  0.44779675410E+03 0.  0.
      99925    2    3    3    0    0  0.49891872059E+02  0.68268167350E+02  0.49660388551E+03  0.56862185006E+03  0.26375300509E+03 0.  0.
         25    1    4    4    0    0  0.10649950735E+02  0.70817258337E+02  0.22837848818E+03  0.27006063670E+03  0.12509000000E+03 0.  0.
         25    1    4    4    0    0  0.39241921324E+02 -0.25490909875E+01  0.26822539733E+03  0.29856121336E+03  0.12509000000E+03 0.  0.
         25    1    3    3    0    0 -0.49891872059E+02 -0.68268167350E+02  0.11704914029E+03  0.19104384553E+03  0.12509000000E+03 0.  0.
<mgrwt>
<rscale>  2 0.44779675E+03</rscale>
<asrwt>0</asrwt>
<pdfrwt beam="1">  1       21 0.10097931E+00 0.44779675E+03</pdfrwt>
<pdfrwt beam="2">  1       21 0.10736226E-01 0.44779675E+03</pdfrwt>
<totfact> 0.52694724E+04</totfact>
</mgrwt>
</event>
<event>
 7    0  0.4748297E-002  0.4696490E+03  0.7546771E-02  0.1022019E+00
         21   -1    0    0  502  501  0.00000000000E+00  0.00000000000E+00  0.64060655268E+02  0.64060655268E+02  0.00000000000E+00 0.  1.
         21   -1    0    0  501  502 -0.00000000000E+00 -0.00000000000E+00 -0.86078645741E+03  0.86078645741E+03  0.00000000000E+00 0.  1.
      99926    2    1    2    0    0 -0.35527136788E-14  0.00000000000E+00 -0.79672580214E+03  0.92484711267E+03  0.46964899449E+03 0.  0.
      99925    2    3    3    0    0  0.19977081026E+02  0.57628278136E+02 -0.27687948440E+03  0.38669489966E+03  0.26296500591E+03 0.  0.
         25    1    3    3    0    0 -0.19977081026E+02 -0.57628278136E+02 -0.51984631774E+03  0.53815221301E+03  0.12509000000E+03 0.  0.
         25    1    4    4    0    0  0.30393840355E+02 -0.65673779429E+01 -0.13640116710E+03  0.18766913031E+03  0.12509000000E+03 0.  0.
         25    1    4    4    0    0 -0.10416759329E+02  0.64195656079E+02 -0.14047831730E+03  0.19902576935E+03  0.12509000000E+03 0.  0.
<mgrwt>
<rscale>  2 0.46964899E+03</rscale>
<asrwt>0</asrwt>
<pdfrwt beam="1">  1       21 0.94206848E-02 0.46964899E+03</pdfrwt>
<pdfrwt beam="2">  1       21 0.12658624E+00 0.46964899E+03</pdfrwt>
<totfact> 0.37668633E+04</totfact>
</mgrwt>
</event>
<event>
 7    0  0.4748297E-002  0.4553222E+03  0.7546771E-02  0.1026147E+00
         21   -1    0    0  502  501  0.00000000000E+00  0.00000000000E+00  0.44227857805E+03  0.44227857805E+03  0.00000000000E+00 0. -1.
         21   -1    0    0  501  502 -0.00000000000E+00 -0.00000000000E+00 -0.11718765081E+03  0.11718765081E+03  0.00000000000E+00 0. -1.
      99926    2    1    2    0    0  0.88817841970E-15  0.00000000000E+00  0.32509092724E+03  0.55946622886E+03  0.45532224881E+03 0.  0.
      99925    2    3    3    0    0 -0.66124421103E+01 -0.11231386494E+03  0.18694795012E+03  0.34177580905E+03  0.26306470488E+03 0.  0.
         25    1    3    3    0    0  0.66124421103E+01  0.11231386494E+03  0.13814297713E+03  0.21769041981E+03  0.12509000000E+03 0.  0.
         25    1    4    4    0    0 -0.20884665393E+02 -0.60020923943E+02  0.51117078097E+02  0.14932898022E+03  0.12509000000E+03 0.  0.
         25    1    4    4    0    0  0.14272223283E+02 -0.52292940994E+02  0.13583087202E+03  0.19244682884E+03  0.12509000000E+03 0.  0.
<mgrwt>
<rscale>  2 0.45532225E+03</rscale>
<asrwt>0</asrwt>
<pdfrwt beam="1">  1       21 0.65040967E-01 0.45532225E+03</pdfrwt>
<pdfrwt beam="2">  1       21 0.17233478E-01 0.45532225E+03</pdfrwt>
<totfact> 0.61089412E+04</totfact>
</mgrwt>
</event>
<event>
 7    0  0.4748297E-002  0.4471341E+03  0.7546771E-02  0.1028580E+00
         21   -1    0    0  502  501  0.00000000000E+00  0.00000000000E+00  0.41220907733E+03  0.41220907733E+03  0.00000000000E+00 0. -1.
         21   -1    0    0  501  502 -0.00000000000E+00 -0.00000000000E+00 -0.12125452792E+03  0.12125452792E+03  0.00000000000E+00 0. -1.
      99926    2    1    2    0    0 -0.14210854715E-13  0.00000000000E+00  0.29095454941E+03  0.53346360525E+03  0.44713406077E+03 0.  0.
      99925    2    3    3    0    0 -0.87715853482E+02 -0.57797348260E+02  0.16759407064E+03  0.32876890517E+03  0.26261495783E+03 0.  0.
         25    1    4    4    0    0 -0.17252358601E+02 -0.14023446515E+02  0.44384988925E+02  0.13458022244E+03  0.12509000000E+03 0.  0.
         25    1    3    3    0    0  0.87715853482E+02  0.57797348260E+02  0.12336047877E+03  0.20469470008E+03  0.12509000000E+03 0.  0.
         25    1    4    4    0    0 -0.70463494882E+02 -0.43773901745E+02  0.12320908172E+03  0.19418868274E+03  0.12509000000E+03 0.  0.
<mgrwt>
<rscale>  2 0.44713406E+03</rscale>
<asrwt>0</asrwt>
<pdfrwt beam="1">  1       21 0.60618982E-01 0.44713406E+03</pdfrwt>
<pdfrwt beam="2">  1       21 0.17831548E-01 0.44713406E+03</pdfrwt>
<totfact> 0.67050732E+04</totfact>
</mgrwt>
</event>
<event>
 7    0  0.4748297E-002  0.4560039E+03  0.7546771E-02  0.1025947E+00
         21   -1    0    0  502  501  0.00000000000E+00  0.00000000000E+00  0.24617385055E+03  0.24617385055E+03  0.00000000000E+00 0.  1.
         21   -1    0    0  501  502 -0.00000000000E+00 -0.00000000000E+00 -0.21117149487E+03  0.21117149487E+03  0.00000000000E+00 0.  1.
      99926    2    1    2    0    0  0.00000000000E+00  0.00000000000E+00  0.35002355682E+02  0.45734534543E+03  0.45600394744E+03 0.  0.
      99925    2    3    3    0    0  0.52756762230E+02 -0.24543348163E+02  0.12058497184E+03  0.29499527863E+03  0.26286085118E+03 0.  0.
         25    1    4    4    0    0 -0.12324737777E+02 -0.47040644575E+01  0.43635201587E+02  0.13313739633E+03  0.12509000000E+03 0.  0.
         25    1    3    3    0    0 -0.52756762230E+02  0.24543348163E+02 -0.85582616159E+02  0.16235006680E+03  0.12509000000E+03 0.  0.
         25    1    4    4    0    0  0.65081500007E+02 -0.19839283706E+02  0.76949770255E+02  0.16185788230E+03  0.12509000000E+03 0.  0.
<mgrwt>
<rscale>  2 0.45600395E+03</rscale>
<asrwt>0</asrwt>
<pdfrwt beam="1">  1       21 0.36202037E-01 0.45600395E+03</pdfrwt>
<pdfrwt beam="2">  1       21 0.31054632E-01 0.45600395E+03</pdfrwt>
<totfact> 0.67829391E+04</totfact>
</mgrwt>
</event>
<event>
 7    0  0.4748297E-002  0.4484840E+03  0.7546771E-02  0.1028175E+00
         21   -1    0    0  502  501  0.00000000000E+00  0.00000000000E+00  0.24755373870E+03  0.24755373870E+03  0.00000000000E+00 0. -1.
         21   -1    0    0  501  502 -0.00000000000E+00 -0.00000000000E+00 -0.20312551423E+03  0.20312551423E+03  0.00000000000E+00 0. -1.
      99926    2    1    2    0    0  0.00000000000E+00  0.00000000000E+00  0.44428224477E+02  0.45067925293E+03  0.44848402635E+03 0.  0.
      99925    2    3    3    0    0  0.14029362785E+02 -0.73235775309E+02 -0.48960596691E+02  0.27767843841E+03  0.26295983215E+03 0.  0.
         25    1    3    3    0    0 -0.14029362785E+02  0.73235775309E+02  0.93388821168E+02  0.17300081452E+03  0.12509000000E+03 0.  0.
         25    1    4    4    0    0 -0.11139052120E+02 -0.89811267274E+01 -0.48193434746E+02  0.13481414752E+03  0.12509000000E+03 0.  0.
         25    1    4    4    0    0  0.25168414905E+02 -0.64254648581E+02 -0.76716194413E+00  0.14286429089E+03  0.12509000000E+03 0.  0.
<mgrwt>
<rscale>  2 0.44848403E+03</rscale>
<asrwt>0</asrwt>
<pdfrwt beam="1">  1       21 0.36404961E-01 0.44848403E+03</pdfrwt>
<pdfrwt beam="2">  1       21 0.29871399E-01 0.44848403E+03</pdfrwt>
<totfact> 0.72563165E+04</totfact>
</mgrwt>
</event>
<event>
 7    0  0.4748297E-002  0.4554686E+03  0.7546771E-02  0.1026104E+00
         21   -1    0    0  502  501  0.00000000000E+00  0.00000000000E+00  0.88666236851E+02  0.88666236851E+02  0.00000000000E+00 0.  1.
         21   -1    0    0  501  502 -0.00000000000E+00 -0.00000000000E+00 -0.58492278670E+03  0.58492278670E+03  0.00000000000E+00 0.  1.
      99926    2    1    2    0    0  0.00000000000E+00  0.00000000000E+00 -0.49625654985E+03  0.67358902355E+03  0.45546856025E+03 0.  0.
      99925    2    3    3    0    0  0.51098237372E+02 -0.91868813298E+02 -0.24846423353E+03  0.37677351040E+03  0.26300740308E+03 0.  0.
         25    1    4    4    0    0  0.42874702158E+02 -0.61079599824E+02 -0.85573232241E+02  0.16893562021E+03  0.12509000000E+03 0.  0.
         25    1    4    4    0    0  0.82235352144E+01 -0.30789213474E+02 -0.16289100129E+03  0.20783789019E+03  0.12509000000E+03 0.  0.
         25    1    3    3    0    0 -0.51098237372E+02  0.91868813298E+02 -0.24779231632E+03  0.29681551315E+03  0.12509000000E+03 0.  0.
<mgrwt>
<rscale>  2 0.45546856E+03</rscale>
<asrwt>0</asrwt>
<pdfrwt beam="1">  1       21 0.13039153E-01 0.45546856E+03</pdfrwt>
<pdfrwt beam="2">  1       21 0.86018056E-01 0.45546856E+03</pdfrwt>
<totfact> 0.54160493E+04</totfact>
</mgrwt>
</event>
<event>
 7    0  0.4748297E-002  0.4569323E+03  0.7546771E-02  0.1025675E+00
         21   -1    0    0  502  501  0.00000000000E+00  0.00000000000E+00  0.18731744636E+03  0.18731744636E+03  0.00000000000E+00 0. -1.
         21   -1    0    0  501  502 -0.00000000000E+00 -0.00000000000E+00 -0.27865409103E+03  0.27865409103E+03  0.00000000000E+00 0. -1.
      99926    2    1    2    0    0  0.00000000000E+00  0.00000000000E+00 -0.91336644673E+02  0.46597153739E+03  0.45693226084E+03 0.  0.
      99925    2    3    3    0    0 -0.91176496024E+02 -0.40289957092E+02 -0.98292640894E+00  0.28226596705E+03  0.26407702653E+03 0.  0.
         25    1    3    3    0    0  0.91176496024E+02  0.40289957092E+02 -0.90353718264E+02  0.18370557034E+03  0.12509000000E+03 0.  0.
         25    1    4    4    0    0 -0.49949391923E+02 -0.13061042426E+01  0.37121431060E+02  0.13972171057E+03  0.12509000000E+03 0.  0.
         25    1    4    4    0    0 -0.41227104101E+02 -0.38983852849E+02 -0.38104357469E+02  0.14254425647E+03  0.12509000000E+03 0.  0.
<mgrwt>
<rscale>  2 0.45693226E+03</rscale>
<asrwt>0</asrwt>
<pdfrwt beam="1">  1       21 0.27546684E-01 0.45693226E+03</pdfrwt>
<pdfrwt beam="2">  1       21 0.40978542E-01 0.45693226E+03</pdfrwt>
<totfact> 0.66707650E+04</totfact>
</mgrwt>
</event>
<event>
 7    0  0.4748297E-002  0.4679718E+03  0.7546771E-02  0.1022494E+00
         21   -1    0    0  502  501  0.00000000000E+00  0.00000000000E+00  0.40497409051E+03  0.40497409051E+03  0.00000000000E+00 0. -1.
         21   -1    0    0  501  502 -0.00000000000E+00 -0.00000000000E+00 -0.13519235961E+03  0.13519235961E+03  0.00000000000E+00 0. -1.
      99926    2    1    2    0    0  0.00000000000E+00  0.00000000000E+00  0.26978173089E+03  0.54016645012E+03  0.46797180632E+03 0.  0.
      99925    2    3    3    0    0 -0.78317031124E+02 -0.89365216021E+02  0.12009829734E+03  0.31175380253E+03  0.26200597926E+03 0.  0.
         25    1    4    4    0    0 -0.54278677181E+02 -0.91003781087E+01  0.48238582661E+02  0.14492570730E+03  0.12509000000E+03 0.  0.
         25    1    3    3    0    0  0.78317031124E+02  0.89365216021E+02  0.14968343356E+03  0.22841264759E+03  0.12509000000E+03 0.  0.
         25    1    4    4    0    0 -0.24038353943E+02 -0.80264837913E+02  0.71859714676E+02  0.16682809523E+03  0.12509000000E+03 0.  0.
<mgrwt>
<rscale>  2 0.46797181E+03</rscale>
<asrwt>0</asrwt>
<pdfrwt beam="1">  1       21 0.59555013E-01 0.46797181E+03</pdfrwt>
<pdfrwt beam="2">  1       21 0.19881230E-01 0.46797181E+03</pdfrwt>
<totfact> 0.56488742E+04</totfact>
</mgrwt>
</event>
<event>
 7    0  0.4748297E-002  0.4545604E+03  0.7546771E-02  0.1026371E+00
         21   -1    0    0  502  501  0.00000000000E+00  0.00000000000E+00  0.16132351947E+03  0.16132351947E+03  0.00000000000E+00 0.  1.
         21   -1    0    0  501  502 -0.00000000000E+00 -0.00000000000E+00 -0.32020306789E+03  0.32020306789E+03  0.00000000000E+00 0.  1.
      99926    2    1    2    0    0  0.00000000000E+00  0.00000000000E+00 -0.15887954843E+03  0.48152658736E+03  0.45456038480E+03 0.  0.
      99925    2    3    3    0    0 -0.10285559232E+03  0.15931231575E+02 -0.14600084386E+03  0.31828919538E+03  0.26298039561E+03 0.  0.
         25    1    4    4    0    0 -0.48582862154E+02  0.16623521846E+01 -0.27320342309E+02  0.13695607732E+03  0.12509000000E+03 0.  0.
         25    1    4    4    0    0 -0.54272730162E+02  0.14268879391E+02 -0.11868050155E+03  0.18133311806E+03  0.12509000000E+03 0.  0.
         25    1    3    3    0    0  0.10285559232E+03 -0.15931231575E+02 -0.12878704567E+02  0.16323739198E+03  0.12509000000E+03 0.  0.
<mgrwt>
<rscale>  2 0.45456038E+03</rscale>
<asrwt>0</asrwt>
<pdfrwt beam="1">  1       21 0.23724047E-01 0.45456038E+03</pdfrwt>
<pdfrwt beam="2">  1       21 0.47088686E-01 0.45456038E+03</pdfrwt>
<totfact> 0.66822021E+04</totfact>
</mgrwt>
</event>
<event>
 7    0  0.4748297E-002  0.4538735E+03  0.7546771E-02  0.1026573E+00
         21   -1    0    0  502  501  0.00000000000E+00  0.00000000000E+00  0.62886623182E+03  0.62886623182E+03  0.00000000000E+00 0. -1.
         21   -1    0    0  501  502 -0.00000000000E+00 -0.00000000000E+00 -0.81893860990E+02  0.81893860990E+02  0.00000000000E+00 0. -1.
      99926    2    1    2    0    0  0.14210854715E-13  0.00000000000E+00  0.54697237083E+03  0.71076009281E+03  0.45387347916E+03 0.  0.
      99925    2    3    3    0    0 -0.84277739716E+02 -0.73892036772E+02  0.34657024518E+03  0.44928104857E+03  0.26302044646E+03 0.  0.
         25    1    4    4    0    0 -0.60829427257E+02 -0.76160486623E+02  0.19578603446E+03  0.25195300818E+03  0.12509000000E+03 0.  0.
         25    1    3    3    0    0  0.84277739716E+02  0.73892036772E+02  0.20040212566E+03  0.26147904424E+03  0.12509000000E+03 0.  0.
         25    1    4    4    0    0 -0.23448312459E+02  0.22684498509E+01  0.15078421072E+03  0.19732804039E+03  0.12509000000E+03 0.  0.
<mgrwt>
<rscale>  2 0.45387348E+03</rscale>
<asrwt>0</asrwt>
<pdfrwt beam="1">  1       21 0.92480326E-01 0.45387348E+03</pdfrwt>
<pdfrwt beam="2">  1       21 0.12043215E-01 0.45387348E+03</pdfrwt>
<totfact> 0.52788968E+04</totfact>
</mgrwt>
</event>
<event>
 7    0  0.4748297E-002  0.4524984E+03  0.7546771E-02  0.1026980E+00
         21   -1    0    0  502  501  0.00000000000E+00  0.00000000000E+00  0.22300234101E+03  0.22300234101E+03  0.00000000000E+00 0. -1.
         21   -1    0    0  501  502 -0.00000000000E+00 -0.00000000000E+00 -0.22954337635E+03  0.22954337635E+03  0.00000000000E+00 0. -1.
      99926    2    1    2    0    0  0.00000000000E+00 -0.88817841970E-15 -0.65410353467E+01  0.45254571736E+03  0.45249844326E+03 0.  0.
      99925    2    3    3    0    0 -0.72595745039E+02 -0.14989176310E+01  0.79665574418E+02  0.28416675009E+03  0.26292917137E+03 0.  0.
         25    1    3    3    0    0  0.72595745039E+02  0.14989176310E+01 -0.86206609765E+02  0.16837896727E+03  0.12509000000E+03 0.  0.
         25    1    4    4    0    0 -0.58195309051E+02 -0.35121138883E+02  0.38179149304E+02  0.14739519644E+03  0.12509000000E+03 0.  0.
         25    1    4    4    0    0 -0.14400435988E+02  0.33622221252E+02  0.41486425114E+02  0.13677155365E+03  0.12509000000E+03 0.  0.
<mgrwt>
<rscale>  2 0.45249844E+03</rscale>
<asrwt>0</asrwt>
<pdfrwt beam="1">  1       21 0.32794462E-01 0.45249844E+03</pdfrwt>
<pdfrwt beam="2">  1       21 0.33756379E-01 0.45249844E+03</pdfrwt>
<totfact> 0.70115033E+04</totfact>
</mgrwt>
</event>
<event>
 7    0  0.4748297E-002  0.4565487E+03  0.7546771E-02  0.1025787E+00
         21   -1    0    0  502  501  0.00000000000E+00  0.00000000000E+00  0.76325606429E+02  0.76325606429E+02  0.00000000000E+00 0.  1.
         21   -1    0    0  501  502 -0.00000000000E+00 -0.00000000000E+00 -0.68272196042E+03  0.68272196042E+03  0.00000000000E+00 0.  1.
      99926    2    1    2    0    0  0.00000000000E+00  0.00000000000E+00 -0.60639635399E+03  0.75904756684E+03  0.45654865086E+03 0.  0.
      99925    2    3    3    0    0 -0.27719055862E+02 -0.10829969198E+03 -0.34056761076E+03  0.44470762639E+03  0.26321361312E+03 0.  0.
         25    1    3    3    0    0  0.27719055862E+02  0.10829969198E+03 -0.26582874323E+03  0.31433994046E+03  0.12509000000E+03 0.  0.
         25    1    4    4    0    0 -0.40962621999E+02 -0.83830887227E+02 -0.21136811799E+03  0.26273473972E+03  0.12509000000E+03 0.  0.
         25    1    4    4    0    0  0.13243566137E+02 -0.24468804749E+02 -0.12919949277E+03  0.18197288667E+03  0.12509000000E+03 0.  0.
<mgrwt>
<rscale>  2 0.45654865E+03</rscale>
<asrwt>0</asrwt>
<pdfrwt beam="1">  1       21 0.11224354E-01 0.45654865E+03</pdfrwt>
<pdfrwt beam="2">  1       21 0.10040029E+00 0.45654865E+03</pdfrwt>
<totfact> 0.49207837E+04</totfact>
</mgrwt>
</event>
<event>
 7    0  0.4748297E-002  0.4524416E+03  0.7546771E-02  0.1026996E+00
         21   -1    0    0  502  501  0.00000000000E+00  0.00000000000E+00  0.58662690109E+02  0.58662690109E+02  0.00000000000E+00 0.  1.
         21   -1    0    0  501  502 -0.00000000000E+00 -0.00000000000E+00 -0.87237482285E+03  0.87237482285E+03  0.00000000000E+00 0.  1.
      99926    2    1    2    0    0  0.14210854715E-13  0.00000000000E+00 -0.81371213274E+03  0.93103751296E+03  0.45244161565E+03 0.  0.
      99925    2    3    3    0    0  0.75745150317E+02 -0.26142649172E+02 -0.67059824217E+03  0.72476133965E+03  0.26297572348E+03 0.  0.
         25    1    4    4    0    0  0.45921031509E+02 -0.11328909818E+02 -0.44502824721E+03  0.46468778147E+03  0.12509000000E+03 0.  0.
         25    1    3    3    0    0 -0.75745150317E+02  0.26142649172E+02 -0.14311389057E+03  0.20627617331E+03  0.12509000000E+03 0.  0.
         25    1    4    4    0    0  0.29824118809E+02 -0.14813739354E+02 -0.22556999496E+03  0.26007355817E+03  0.12509000000E+03 0.  0.
<mgrwt>
<rscale>  2 0.45244162E+03</rscale>
<asrwt>0</asrwt>
<pdfrwt beam="1">  1       21 0.86268659E-02 0.45244162E+03</pdfrwt>
<pdfrwt beam="2">  1       21 0.12829042E+00 0.45244162E+03</pdfrwt>
<totfact> 0.42767758E+04</totfact>
</mgrwt>
</event>
<event>
 7    0  0.4748297E-002  0.4339005E+03  0.7546771E-02  0.1032635E+00
         21   -1    0    0  502  501  0.00000000000E+00  0.00000000000E+00  0.44403008798E+02  0.44403008798E+02  0.00000000000E+00 0.  1.
         21   -1    0    0  501  502 -0.00000000000E+00 -0.00000000000E+00 -0.10600048546E+04  0.10600048546E+04  0.00000000000E+00 0.  1.
      99926    2    1    2    0    0  0.00000000000E+00  0.71054273576E-14 -0.10156018458E+04  0.11044078634E+04  0.43390047192E+03 0.  0.
      99925    2    3    3    0    0 -0.96691739712E+01 -0.56993494543E+02 -0.46972683483E+03  0.54140805252E+03  0.26294035184E+03 0.  0.
         25    1    4    4    0    0  0.34734964912E+02 -0.34601686831E+02 -0.22293054522E+03  0.26028701584E+03  0.12509000000E+03 0.  0.
         25    1    3    3    0    0  0.96691739712E+01  0.56993494543E+02 -0.54587501093E+03  0.56299981084E+03  0.12509000000E+03 0.  0.
         25    1    4    4    0    0 -0.44404138883E+02 -0.22391807712E+02 -0.24679628961E+03  0.28112103668E+03  0.12509000000E+03 0.  0.
<mgrwt>
<rscale>  2 0.43390047E+03</rscale>
<asrwt>0</asrwt>
<pdfrwt beam="1">  1       21 0.65298536E-02 0.43390047E+03</pdfrwt>
<pdfrwt beam="2">  1       21 0.15588308E+00 0.43390047E+03</pdfrwt>
<totfact> 0.41807897E+04</totfact>
</mgrwt>
</event>
<event>
 7    0  0.4748297E-002  0.4570067E+03  0.7546771E-02  0.1025653E+00
         21   -1    0    0  502  501  0.00000000000E+00  0.00000000000E+00  0.10325987959E+04  0.10325987959E+04  0.00000000000E+00 0.  1.
         21   -1    0    0  501  502 -0.00000000000E+00 -0.00000000000E+00 -0.50565413060E+02  0.50565413060E+02  0.00000000000E+00 0.  1.
      99926    2    1    2    0    0 -0.71054273576E-14  0.00000000000E+00  0.98203338286E+03  0.10831642090E+04  0.45700671611E+03 0.  0.
      99925    2    3    3    0    0 -0.50495705117E+02 -0.43481203116E+02  0.39449568287E+03  0.47877320287E+03  0.26297624365E+03 0.  0.
         25    1    4    4    0    0 -0.13410294553E+02 -0.48117077751E+02  0.14996777810E+03  0.20157611897E+03  0.12509000000E+03 0.  0.
         25    1    4    4    0    0 -0.37085410564E+02  0.46358746355E+01  0.24452790477E+03  0.27719708390E+03  0.12509000000E+03 0.  0.
         25    1    3    3    0    0  0.50495705117E+02  0.43481203116E+02  0.58753769999E+03  0.60439100611E+03  0.12509000000E+03 0.  0.
<mgrwt>
<rscale>  2 0.45700672E+03</rscale>
<asrwt>0</asrwt>
<pdfrwt beam="1">  1       21 0.15185275E+00 0.45700672E+03</pdfrwt>
<pdfrwt beam="2">  1       21 0.74360908E-02 0.45700672E+03</pdfrwt>
<totfact> 0.35524029E+04</totfact>
</mgrwt>
</event>
<event>
 7    0  0.4748297E-002  0.4501210E+03  0.7546771E-02  0.1027686E+00
         21   -1    0    0  502  501  0.00000000000E+00  0.00000000000E+00  0.15425522924E+04  0.15425522924E+04  0.00000000000E+00 0.  1.
         21   -1    0    0  501  502 -0.00000000000E+00 -0.00000000000E+00 -0.32836630180E+02  0.32836630180E+02  0.00000000000E+00 0.  1.
      99926    2    1    2    0    0  0.00000000000E+00  0.00000000000E+00  0.15097156622E+04  0.15753889226E+04  0.45012095778E+03 0.  0.
      99925    2    3    3    0    0 -0.36504419925E+02 -0.10112055812E+03  0.10065933324E+04  0.10459198235E+04  0.26298327047E+03 0.  0.
         25    1    4    4    0    0 -0.54742496610E+02 -0.70796263891E+02  0.52131340495E+03  0.54352923215E+03  0.12509000000E+03 0.  0.
         25    1    3    3    0    0  0.36504419925E+02  0.10112055812E+03  0.50312232987E+03  0.52946909906E+03  0.12509000000E+03 0.  0.
         25    1    4    4    0    0  0.18238076685E+02 -0.30324294229E+02  0.48527992742E+03  0.50239059139E+03  0.12509000000E+03 0.  0.
<mgrwt>
<rscale>  2 0.45012096E+03</rscale>
<asrwt>0</asrwt>
<pdfrwt beam="1">  1       21 0.22684588E+00 0.45012096E+03</pdfrwt>
<pdfrwt beam="2">  1       21 0.48289172E-02 0.45012096E+03</pdfrwt>
<totfact> 0.22843853E+04</totfact>
</mgrwt>
</event>
<event>
 7    0  0.4748297E-002  0.4573025E+03  0.7546771E-02  0.1025566E+00
         21   -1    0    0  502  501  0.00000000000E+00  0.00000000000E+00  0.18327122460E+04  0.18327122460E+04  0.00000000000E+00 0.  1.
         21   -1    0    0  501  502 -0.00000000000E+00 -0.00000000000E+00 -0.28526782698E+02  0.28526782698E+02  0.00000000000E+00 0.  1.
      99926    2    1    2    0    0  0.35527136788E-14  0.00000000000E+00  0.18041854633E+04  0.18612390287E+04  0.45730245566E+03 0.  0.
      99925    2    3    3    0    0 -0.21753004719E+02 -0.11180433299E+03  0.12051949869E+04  0.12388159403E+04  0.26305241934E+03 0.  0.
         25    1    4    4    0    0 -0.50027984533E+02 -0.53472131552E+02  0.56436102856E+03  0.58267739509E+03  0.12509000000E+03 0.  0.
         25    1    3    3    0    0  0.21753004719E+02  0.11180433299E+03  0.59899047635E+03  0.62242308838E+03  0.12509000000E+03 0.  0.
         25    1    4    4    0    0  0.28274979814E+02 -0.58332201439E+02  0.64083395835E+03  0.65613854519E+03  0.12509000000E+03 0.  0.
<mgrwt>
<rscale>  2 0.45730246E+03</rscale>
<asrwt>0</asrwt>
<pdfrwt beam="1">  1       21 0.26951643E+00 0.45730246E+03</pdfrwt>
<pdfrwt beam="2">  1       21 0.41951163E-02 0.45730246E+03</pdfrwt>
<totfact> 0.15825906E+04</totfact>
</mgrwt>
</event>
<event>
 7    0  0.4748297E-002  0.4563707E+03  0.7546771E-02  0.1025839E+00
         21   -1    0    0  502  501  0.00000000000E+00  0.00000000000E+00  0.19695493184E+03  0.19695493184E+03  0.00000000000E+00 0. -1.
         21   -1    0    0  501  502 -0.00000000000E+00 -0.00000000000E+00 -0.26436785960E+03  0.26436785960E+03  0.00000000000E+00 0. -1.
      99926    2    1    2    0    0 -0.14210854715E-13  0.00000000000E+00 -0.67412927759E+02  0.46132279144E+03  0.45637069918E+03 0.  0.
      99925    2    3    3    0    0 -0.79563136217E+02  0.81905359861E+02 -0.34380975909E+02  0.28876150215E+03  0.26298740084E+03 0.  0.
         25    1    4    4    0    0 -0.62702545596E+01  0.57038474638E+02 -0.33583092602E+02  0.14166169521E+03  0.12509000000E+03 0.  0.
         25    1    4    4    0    0 -0.73292881658E+02  0.24866885222E+02 -0.79788330688E+00  0.14709980693E+03  0.12509000000E+03 0.  0.
         25    1    3    3    0    0  0.79563136217E+02 -0.81905359861E+02 -0.33031951850E+02  0.17256128929E+03  0.12509000000E+03 0.  0.
<mgrwt>
<rscale>  2 0.45637070E+03</rscale>
<asrwt>0</asrwt>
<pdfrwt beam="1">  1       21 0.28963961E-01 0.45637070E+03</pdfrwt>
<pdfrwt beam="2">  1       21 0.38877626E-01 0.45637070E+03</pdfrwt>
<totfact> 0.67345120E+04</totfact>
</mgrwt>
</event>
<event>
 7    0  0.4748297E-002  0.4287057E+03  0.7546771E-02  0.1034270E+00
         21   -1    0    0  502  501  0.00000000000E+00  0.00000000000E+00  0.44053245644E+02  0.44053245644E+02  0.00000000000E+00 0.  1.
         21   -1    0    0  501  502 -0.00000000000E+00 -0.00000000000E+00 -0.10429911395E+04  0.10429911395E+04  0.00000000000E+00 0.  1.
      99926    2    1    2    0    0  0.00000000000E+00  0.00000000000E+00 -0.99893789386E+03  0.10870443851E+04  0.42870570266E+03 0.  0.
      99925    2    3    3    0    0  0.17699559500E+02 -0.83648901316E+02 -0.66625400279E+03  0.72148113129E+03  0.26330631111E+03 0.  0.
         25    1    3    3    0    0 -0.17699559500E+02  0.83648901316E+02 -0.33268389107E+03  0.36556325386E+03  0.12509000000E+03 0.  0.
         25    1    4    4    0    0  0.22919310565E+02 -0.10405049769E+02 -0.25001836313E+03  0.28069600970E+03  0.12509000000E+03 0.  0.
         25    1    4    4    0    0 -0.52197510658E+01 -0.73243851547E+02 -0.41623563966E+03  0.44078512159E+03  0.12509000000E+03 0.  0.
<mgrwt>
<rscale>  2 0.42870570E+03</rscale>
<asrwt>0</asrwt>
<pdfrwt beam="1">  1       21 0.64784177E-02 0.42870570E+03</pdfrwt>
<pdfrwt beam="2">  1       21 0.15338107E+00 0.42870570E+03</pdfrwt>
<totfact> 0.44374859E+04</totfact>
</mgrwt>
</event>
<event>
 7    0  0.4748297E-002  0.4685229E+03  0.7546771E-02  0.1022338E+00
         21   -1    0    0  502  501  0.00000000000E+00  0.00000000000E+00  0.32758857106E+03  0.32758857106E+03  0.00000000000E+00 0. -1.
         21   -1    0    0  501  502 -0.00000000000E+00 -0.00000000000E+00 -0.16752239086E+03  0.16752239086E+03  0.00000000000E+00 0. -1.
      99926    2    1    2    0    0 -0.71054273576E-14  0.14210854715E-13  0.16006618021E+03  0.49511096192E+03  0.46852287305E+03 0.  0.
      99925    2    3    3    0    0  0.35169196395E+02 -0.52809323492E+02 -0.14630581965E+02  0.27107488484E+03  0.26313844690E+03 0.  0.
         25    1    4    4    0    0  0.39216143812E+02 -0.61699905947E+02 -0.12495961396E+01  0.14489255992E+03  0.12509000000E+03 0.  0.
         25    1    4    4    0    0 -0.40469474174E+01  0.88905824553E+01 -0.13380985826E+02  0.12618232492E+03  0.12509000000E+03 0.  0.
         25    1    3    3    0    0 -0.35169196395E+02  0.52809323492E+02  0.17469676217E+03  0.22403607708E+03  0.12509000000E+03 0.  0.
<mgrwt>
<rscale>  2 0.46852287E+03</rscale>
<asrwt>0</asrwt>
<pdfrwt beam="1">  1       21 0.48174790E-01 0.46852287E+03</pdfrwt>
<pdfrwt beam="2">  1       21 0.24635646E-01 0.46852287E+03</pdfrwt>
<totfact> 0.59020581E+04</totfact>
</mgrwt>
</event>
<event>
 7    0  0.4748297E-002  0.4380578E+03  0.7546771E-02  0.1031344E+00
         21   -1    0    0  502  501  0.00000000000E+00  0.00000000000E+00  0.12925708933E+03  0.12925708933E+03  0.00000000000E+00 0.  1.
         21   -1    0    0  501  502 -0.00000000000E+00 -0.00000000000E+00 -0.37114910009E+03  0.37114910009E+03  0.00000000000E+00 0.  1.
      99926    2    1    2    0    0  0.00000000000E+00  0.14210854715E-13 -0.24189201075E+03  0.50040618942E+03  0.43805776964E+03 0.  0.
      99925    2    3    3    0    0  0.51116734230E+02  0.78453663298E+02 -0.17403692886E+03  0.33005444143E+03  0.26434671154E+03 0.  0.
         25    1    4    4    0    0  0.49502518502E+02  0.27022832153E+02 -0.48557900335E+02  0.14555449351E+03  0.12509000000E+03 0.  0.
         25    1    3    3    0    0 -0.51116734230E+02 -0.78453663298E+02 -0.67855081896E+02  0.17035174799E+03  0.12509000000E+03 0.  0.
         25    1    4    4    0    0  0.16142157275E+01  0.51430831144E+02 -0.12547902852E+03  0.18449994792E+03  0.12509000000E+03 0.  0.
<mgrwt>
<rscale>  2 0.43805777E+03</rscale>
<asrwt>0</asrwt>
<pdfrwt beam="1">  1       21 0.19008396E-01 0.43805777E+03</pdfrwt>
<pdfrwt beam="2">  1       21 0.54580750E-01 0.43805777E+03</pdfrwt>
<totfact> 0.74805419E+04</totfact>
</mgrwt>
</event>
<event>
 7    0  0.4748297E-002  0.4676587E+03  0.7546771E-02  0.1022583E+00
         21   -1    0    0  502  501  0.00000000000E+00  0.00000000000E+00  0.38277822689E+03  0.38277822689E+03  0.00000000000E+00 0. -1.
         21   -1    0    0  501  502 -0.00000000000E+00 -0.00000000000E+00 -0.14284029164E+03  0.14284029164E+03  0.00000000000E+00 0. -1.
      99926    2    1    2    0    0  0.26645352591E-14  0.00000000000E+00  0.23993793525E+03  0.52561851853E+03  0.46765865143E+03 0.  0.
      99925    2    3    3    0    0 -0.38286470779E+01 -0.32979001559E+02  0.14270798390E+02  0.26547348622E+03  0.26300236332E+03 0.  0.
         25    1    4    4    0    0 -0.26405997447E+02 -0.36393852098E+02 -0.18382084336E+02  0.13419090243E+03  0.12509000000E+03 0.  0.
         25    1    3    3    0    0  0.38286470779E+01  0.32979001559E+02  0.22566713686E+03  0.26014503232E+03  0.12509000000E+03 0.  0.
         25    1    4    4    0    0  0.22577350369E+02  0.34148505395E+01  0.32652882726E+02  0.13128258378E+03  0.12509000000E+03 0.  0.
<mgrwt>
<rscale>  2 0.46765865E+03</rscale>
<asrwt>0</asrwt>
<pdfrwt beam="1">  1       21 0.56290915E-01 0.46765865E+03</pdfrwt>
<pdfrwt beam="2">  1       21 0.21005925E-01 0.46765865E+03</pdfrwt>
<totfact> 0.57509246E+04</totfact>
</mgrwt>
</event>
<event>
 7    0  0.4748297E-002  0.4548872E+03  0.7546771E-02  0.1026275E+00
         21   -1    0    0  502  501  0.00000000000E+00  0.00000000000E+00  0.26953295992E+03  0.26953295992E+03  0.00000000000E+00 0.  1.
         21   -1    0    0  501  502 -0.00000000000E+00 -0.00000000000E+00 -0.19192673176E+03  0.19192673176E+03  0.00000000000E+00 0.  1.
      99926    2    1    2    0    0  0.14210854715E-13  0.00000000000E+00  0.77606228153E+02  0.46145969168E+03  0.45488715128E+03 0.  0.
      99925    2    3    3    0    0 -0.95265596883E+02 -0.29822546902E+02  0.10175396530E+03  0.29960933004E+03  0.26352791681E+03 0.  0.
         25    1    4    4    0    0 -0.53124007709E+02  0.15376116214E+02  0.20914825451E+02  0.13836012131E+03  0.12509000000E+03 0.  0.
         25    1    4    4    0    0 -0.42141589174E+02 -0.45198663116E+02  0.80839139850E+02  0.16124920873E+03  0.12509000000E+03 0.  0.
         25    1    3    3    0    0  0.95265596883E+02  0.29822546902E+02 -0.24147737148E+02  0.16185036164E+03  0.12509000000E+03 0.  0.
<mgrwt>
<rscale>  2 0.45488715E+03</rscale>
<asrwt>0</asrwt>
<pdfrwt beam="1">  1       21 0.39637200E-01 0.45488715E+03</pdfrwt>
<pdfrwt beam="2">  1       21 0.28224520E-01 0.45488715E+03</pdfrwt>
<totfact> 0.68134801E+04</totfact>
</mgrwt>
</event>
<event>
 7    0  0.4748297E-002  0.4486237E+03  0.7546771E-02  0.1028133E+00
         21   -1    0    0  502  501  0.00000000000E+00  0.00000000000E+00  0.33609443028E+03  0.33609443028E+03  0.00000000000E+00 0.  1.
         21   -1    0    0  501  502 -0.00000000000E+00 -0.00000000000E+00 -0.14970732646E+03  0.14970732646E+03  0.00000000000E+00 0.  1.
      99926    2    1    2    0    0  0.53290705182E-14  0.00000000000E+00  0.18638710381E+03  0.48580175674E+03  0.44862366677E+03 0.  0.
      99925    2    3    3    0    0 -0.15590080634E+02 -0.72347362229E+02  0.34235146789E+02  0.27538569851E+03  0.26303620708E+03 0.  0.
         25    1    4    4    0    0 -0.43516172543E+02 -0.43932550426E+02  0.35939647915E+02  0.14409334701E+03  0.12509000000E+03 0.  0.
         25    1    4    4    0    0  0.27926091909E+02 -0.28414811803E+02 -0.17045011262E+01  0.13129235150E+03  0.12509000000E+03 0.  0.
         25    1    3    3    0    0  0.15590080634E+02  0.72347362229E+02  0.15215195703E+03  0.21041605823E+03  0.12509000000E+03 0.  0.
<mgrwt>
<rscale>  2 0.44862367E+03</rscale>
<asrwt>0</asrwt>
<pdfrwt beam="1">  1       21 0.49425651E-01 0.44862367E+03</pdfrwt>
<pdfrwt beam="2">  1       21 0.22015783E-01 0.44862367E+03</pdfrwt>
<totfact> 0.69744263E+04</totfact>
</mgrwt>
</event>
<event>
 7    0  0.4748297E-002  0.4553304E+03  0.7546771E-02  0.1026144E+00
         21   -1    0    0  502  501  0.00000000000E+00  0.00000000000E+00  0.25003805258E+03  0.25003805258E+03  0.00000000000E+00 0. -1.
         21   -1    0    0  501  502 -0.00000000000E+00 -0.00000000000E+00 -0.20729426209E+03  0.20729426209E+03  0.00000000000E+00 0. -1.
      99926    2    1    2    0    0 -0.14210854715E-13  0.35527136788E-14  0.42743790486E+02  0.45733231467E+03  0.45533044530E+03 0.  0.
      99925    2    3    3    0    0 -0.11180828820E+03  0.13200065559E+02  0.13071097641E+02  0.28644254950E+03  0.26306490745E+03 0.  0.
         25    1    3    3    0    0  0.11180828820E+03 -0.13200065559E+02  0.29672692845E+02  0.17088976517E+03  0.12509000000E+03 0.  0.
         25    1    4    4    0    0 -0.79286920348E+02  0.37252295497E+02 -0.96815762866E+01  0.15302088183E+03  0.12509000000E+03 0.  0.
         25    1    4    4    0    0 -0.32521367849E+02 -0.24052229938E+02  0.22752673927E+02  0.13342166767E+03  0.12509000000E+03 0.  0.
<mgrwt>
<rscale>  2 0.45533045E+03</rscale>
<asrwt>0</asrwt>
<pdfrwt beam="1">  1       21 0.36770302E-01 0.45533045E+03</pdfrwt>
<pdfrwt beam="2">  1       21 0.30484450E-01 0.45533045E+03</pdfrwt>
<totfact> 0.68195301E+04</totfact>
</mgrwt>
</event>
<event>
 7    0  0.4748297E-002  0.4462098E+03  0.7546771E-02  0.1028858E+00
         21   -1    0    0  502  501  0.00000000000E+00  0.00000000000E+00  0.18571164974E+02  0.18571164974E+02  0.00000000000E+00 0.  1.
         21   -1    0    0  501  502 -0.00000000000E+00 -0.00000000000E+00 -0.26802727959E+04  0.26802727959E+04  0.00000000000E+00 0.  1.
      99926    2    1    2    0    0 -0.14210854715E-13  0.17763568394E-14 -0.26617016309E+04  0.26988439609E+04  0.44620976354E+03 0.  0.
      99925    2    3    3    0    0  0.94304538882E+02 -0.89069312615E+01 -0.14174703731E+04  0.14447579947E+04  0.26292722412E+03 0.  0.
         25    1    4    4    0    0  0.94844350829E+01  0.13722885839E+02 -0.60044238769E+03  0.61356078846E+03  0.12509000000E+03 0.  0.
         25    1    3    3    0    0 -0.94304538882E+02  0.89069312615E+01 -0.12442312578E+04  0.12540859662E+04  0.12509000000E+03 0.  0.
         25    1    4    4    0    0  0.84820103799E+02 -0.22629817100E+02 -0.81702798544E+03  0.83119720627E+03  0.12509000000E+03 0.  0.
<mgrwt>
<rscale>  2 0.44620976E+03</rscale>
<asrwt>0</asrwt>
<pdfrwt beam="1">  1       21 0.27310530E-02 0.44620976E+03</pdfrwt>
<pdfrwt beam="2">  1       21 0.39415786E+00 0.44620976E+03</pdfrwt>
<totfact> 0.56825103E+03</totfact>
</mgrwt>
</event>
<event>
 7    0  0.4748297E-002  0.4552612E+03  0.7546771E-02  0.1026165E+00
         21   -1    0    0  502  501  0.00000000000E+00  0.00000000000E+00  0.29666377113E+03  0.29666377113E+03  0.00000000000E+00 0.  1.
         21   -1    0    0  501  502 -0.00000000000E+00 -0.00000000000E+00 -0.17466133209E+03  0.17466133209E+03  0.00000000000E+00 0.  1.
      99926    2    1    2    0    0  0.00000000000E+00  0.00000000000E+00  0.12200243905E+03  0.47132510322E+03  0.45526119733E+03 0.  0.
      99925    2    3    3    0    0 -0.54674484471E+02  0.96414562240E+02  0.10148766995E+03  0.30294033278E+03  0.26303617814E+03 0.  0.
         25    1    4    4    0    0 -0.45299291029E+02  0.87469372313E+02  0.48170074979E+02  0.16634536688E+03  0.12509000000E+03 0.  0.
         25    1    4    4    0    0 -0.93751934420E+01  0.89451899272E+01  0.53317594975E+02  0.13659496590E+03  0.12509000000E+03 0.  0.
         25    1    3    3    0    0  0.54674484471E+02 -0.96414562240E+02  0.20514769093E+02  0.16838477044E+03  0.12509000000E+03 0.  0.
<mgrwt>
<rscale>  2 0.45526120E+03</rscale>
<asrwt>0</asrwt>
<pdfrwt beam="1">  1       21 0.43627025E-01 0.45526120E+03</pdfrwt>
<pdfrwt beam="2">  1       21 0.25685490E-01 0.45526120E+03</pdfrwt>
<totfact> 0.67197934E+04</totfact>
</mgrwt>
</event>
<event>
 7    0  0.4748297E-002  0.4575245E+03  0.7546771E-02  0.1025502E+00
         21   -1    0    0  502  501  0.00000000000E+00  0.00000000000E+00  0.21539007404E+03  0.21539007404E+03  0.00000000000E+00 0. -1.
         21   -1    0    0  501  502 -0.00000000000E+00 -0.00000000000E+00 -0.24296465044E+03  0.24296465044E+03  0.00000000000E+00 0. -1.
      99926    2    1    2    0    0  0.00000000000E+00  0.00000000000E+00 -0.27574576403E+02  0.45835472448E+03  0.45752453070E+03 0.  0.
      99925    2    3    3    0    0 -0.79275808682E+02 -0.48185990976E+02 -0.86209050162E+02  0.29194543033E+03  0.26304674564E+03 0.  0.
         25    1    3    3    0    0  0.79275808682E+02  0.48185990976E+02  0.58634473758E+02  0.16640929416E+03  0.12509000000E+03 0.  0.
         25    1    4    4    0    0 -0.13630953871E+02 -0.55221917337E+02 -0.45720712604E+02  0.14482111282E+03  0.12509000000E+03 0.  0.
         25    1    4    4    0    0 -0.65644854812E+02  0.70359263610E+01 -0.40488337558E+02  0.14712431750E+03  0.12509000000E+03 0.  0.
<mgrwt>
<rscale>  2 0.45752453E+03</rscale>
<asrwt>0</asrwt>
<pdfrwt beam="1">  1       21 0.31675011E-01 0.45752453E+03</pdfrwt>
<pdfrwt beam="2">  1       21 0.35730095E-01 0.45752453E+03</pdfrwt>
<totfact> 0.66942162E+04</totfact>
</mgrwt>
</event>
<event>
 7    0  0.4748297E-002  0.4548154E+03  0.7546771E-02  0.1026296E+00
         21   -1    0    0  502  501  0.00000000000E+00  0.00000000000E+00  0.18620887680E+03  0.18620887680E+03  0.00000000000E+00 0. -1.
         21   -1    0    0  501  502 -0.00000000000E+00 -0.00000000000E+00 -0.27772177070E+03  0.27772177070E+03  0.00000000000E+00 0. -1.
      99926    2    1    2    0    0  0.88817841970E-15  0.00000000000E+00 -0.91512893902E+02  0.46393064750E+03  0.45481538666E+03 0.  0.
      99925    2    3    3    0    0 -0.66361249908E+01 -0.63970544650E+02 -0.15244097487E+03  0.31064657172E+03  0.26291970821E+03 0.  0.
         25    1    4    4    0    0 -0.16724387212E+02 -0.58945186474E+01 -0.40313251522E+02  0.13261642744E+03  0.12509000000E+03 0.  0.
         25    1    4    4    0    0  0.10088262221E+02 -0.58076026003E+02 -0.11212772335E+03  0.17803014428E+03  0.12509000000E+03 0.  0.
         25    1    3    3    0    0  0.66361249908E+01  0.63970544650E+02  0.60928080965E+02  0.15328407578E+03  0.12509000000E+03 0.  0.
<mgrwt>
<rscale>  2 0.45481539E+03</rscale>
<asrwt>0</asrwt>
<pdfrwt beam="1">  1       21 0.27383658E-01 0.45481539E+03</pdfrwt>
<pdfrwt beam="2">  1       21 0.40841437E-01 0.45481539E+03</pdfrwt>
<totfact> 0.67989419E+04</totfact>
</mgrwt>
</event>
<event>
 7    0  0.4748297E-002  0.4589794E+03  0.7546771E-02  0.1025078E+00
         21   -1    0    0  502  501  0.00000000000E+00  0.00000000000E+00  0.32569857158E+03  0.32569857158E+03  0.00000000000E+00 0.  1.
         21   -1    0    0  501  502 -0.00000000000E+00 -0.00000000000E+00 -0.16170017545E+03  0.16170017545E+03  0.00000000000E+00 0.  1.
      99926    2    1    2    0    0  0.00000000000E+00 -0.14210854715E-13  0.16399839613E+03  0.48739874703E+03  0.45897937282E+03 0.  0.
      99925    2    3    3    0    0  0.35049405653E+02 -0.78069983174E+02  0.18746685747E+03  0.33403101937E+03  0.26288688850E+03 0.  0.
         25    1    4    4    0    0  0.10017638054E+02 -0.78262302546E+02  0.11475467002E+03  0.18719370573E+03  0.12509000000E+03 0.  0.
         25    1    4    4    0    0  0.25031767599E+02  0.19231937285E+00  0.72712187447E+02  0.14683731365E+03  0.12509000000E+03 0.  0.
         25    1    3    3    0    0 -0.35049405653E+02  0.78069983174E+02 -0.23468461337E+02  0.15336772766E+03  0.12509000000E+03 0.  0.
<mgrwt>
<rscale>  2 0.45897937E+03</rscale>
<asrwt>0</asrwt>
<pdfrwt beam="1">  1       21 0.47896849E-01 0.45897937E+03</pdfrwt>
<pdfrwt beam="2">  1       21 0.23779438E-01 0.45897937E+03</pdfrwt>
<totfact> 0.64115881E+04</totfact>
</mgrwt>
</event>
<event>
 7    0  0.4748297E-002  0.4675601E+03  0.7546771E-02  0.1022611E+00
         21   -1    0    0  502  501  0.00000000000E+00  0.00000000000E+00  0.97419027084E+02  0.97419027084E+02  0.00000000000E+00 0. -1.
         21   -1    0    0  501  502 -0.00000000000E+00 -0.00000000000E+00 -0.56101071355E+03  0.56101071355E+03  0.00000000000E+00 0. -1.
      99926    2    1    2    0    0 -0.71054273576E-14  0.14210854715E-13 -0.46359168646E+03  0.65842974063E+03  0.46756012618E+03 0.  0.
      99925    2    3    3    0    0  0.48240067622E+02 -0.11489245016E+03 -0.28457888180E+03  0.40699292638E+03  0.26292721983E+03 0.  0.
         25    1    4    4    0    0  0.39687861701E+02 -0.73197280866E+02 -0.19979828434E+03  0.24999966164E+03  0.12509000000E+03 0.  0.
         25    1    3    3    0    0 -0.48240067622E+02  0.11489245016E+03 -0.17901280466E+03  0.25143681425E+03  0.12509000000E+03 0.  0.
         25    1    4    4    0    0  0.85522059203E+01 -0.41695169294E+02 -0.84780597455E+02  0.15699326474E+03  0.12509000000E+03 0.  0.
<mgrwt>
<rscale>  2 0.46756013E+03</rscale>
<asrwt>0</asrwt>
<pdfrwt beam="1">  1       21 0.14326327E-01 0.46756013E+03</pdfrwt>
<pdfrwt beam="2">  1       21 0.82501576E-01 0.46756013E+03</pdfrwt>
<totfact> 0.50070515E+04</totfact>
</mgrwt>
</event>
<event>
 7    0  0.4748297E-002  0.4495497E+03  0.7546771E-02  0.1027856E+00
         21   -1    0    0  502  501  0.00000000000E+00  0.00000000000E+00  0.10453408321E+04  0.10453408321E+04  0.00000000000E+00 0.  1.
         21   -1    0    0  501  502 -0.00000000000E+00 -0.00000000000E+00 -0.48332297906E+02  0.48332297906E+02  0.00000000000E+00 0.  1.
      99926    2    1    2    0    0  0.00000000000E+00  0.00000000000E+00  0.99700853422E+03  0.10936731300E+04  0.44954966138E+03 0.  0.
      99925    2    3    3    0    0 -0.79310258533E+02  0.43438247524E+01  0.80842060167E+03  0.85383588871E+03  0.26302636697E+03 0.  0.
         25    1    4    4    0    0  0.11530410106E+01 -0.87218969186E+01  0.36078122147E+03  0.38195287518E+03  0.12509000000E+03 0.  0.
         25    1    3    3    0    0  0.79310258533E+02 -0.43438247524E+01  0.18858793255E+03  0.23983724132E+03  0.12509000000E+03 0.  0.
         25    1    4    4    0    0 -0.80463299543E+02  0.13065721671E+02  0.44763938020E+03  0.47188301353E+03  0.12509000000E+03 0.  0.
<mgrwt>
<rscale>  2 0.44954966E+03</rscale>
<asrwt>0</asrwt>
<pdfrwt beam="1">  1       21 0.15372658E+00 0.44954966E+03</pdfrwt>
<pdfrwt beam="2">  1       21 0.71076916E-02 0.44954966E+03</pdfrwt>
<totfact> 0.37274318E+04</totfact>
</mgrwt>
</event>
<event>
 7    0  0.4748297E-002  0.4660660E+03  0.7546771E-02  0.1023036E+00
         21   -1    0    0  502  501  0.00000000000E+00  0.00000000000E+00  0.19832845976E+03  0.19832845976E+03  0.00000000000E+00 0.  1.
         21   -1    0    0  501  502 -0.00000000000E+00 -0.00000000000E+00 -0.27381034154E+03  0.27381034154E+03  0.00000000000E+00 0.  1.
      99926    2    1    2    0    0  0.14210854715E-13 -0.22204460493E-14 -0.75481881789E+02  0.47213880130E+03  0.46606601809E+03 0.  0.
      99925    2    3    3    0    0 -0.11749614914E+03 -0.32237786070E+01 -0.84808086645E+02  0.30023701536E+03  0.26293367229E+03 0.  0.
         25    1    4    4    0    0 -0.32499180926E+02 -0.22098142742E+02 -0.65631593046E+02  0.14662721023E+03  0.12509000000E+03 0.  0.
         25    1    4    4    0    0 -0.84996968214E+02  0.18874364135E+02 -0.19176493600E+02  0.15360980514E+03  0.12509000000E+03 0.  0.
         25    1    3    3    0    0  0.11749614914E+03  0.32237786070E+01  0.93262048561E+01  0.17190178594E+03  0.12509000000E+03 0.  0.
<mgrwt>
<rscale>  2 0.46606602E+03</rscale>
<asrwt>0</asrwt>
<pdfrwt beam="1">  1       21 0.29165950E-01 0.46606602E+03</pdfrwt>
<pdfrwt beam="2">  1       21 0.40266227E-01 0.46606602E+03</pdfrwt>
<totfact> 0.61676701E+04</totfact>
</mgrwt>
</event>
<event>
 7    0  0.4748297E-002  0.4489199E+03  0.7546771E-02  0.1028045E+00
         21   -1    0    0  502  501  0.00000000000E+00  0.00000000000E+00  0.22397586720E+03  0.22397586720E+03  0.00000000000E+00 0.  1.
         21   -1    0    0  501  502 -0.00000000000E+00 -0.00000000000E+00 -0.22494505959E+03  0.22494505959E+03  0.00000000000E+00 0.  1.
      99926    2    1    2    0    0  0.00000000000E+00  0.00000000000E+00 -0.96919239651E+00  0.44892092679E+03  0.44891988058E+03 0.  0.
      99925    2    3    3    0    0 -0.12697973976E+02 -0.99341164823E+02 -0.39454332253E+02  0.28412250550E+03  0.26294305129E+03 0.  0.
         25    1    4    4    0    0  0.10046724507E+02 -0.75756858994E+02  0.69171526816E+01  0.14674942405E+03  0.12509000000E+03 0.  0.
         25    1    4    4    0    0 -0.22744698483E+02 -0.23584305829E+02 -0.46371484934E+02  0.13737308144E+03  0.12509000000E+03 0.  0.
         25    1    3    3    0    0  0.12697973976E+02  0.99341164823E+02  0.38485139856E+02  0.16479842129E+03  0.12509000000E+03 0.  0.
<mgrwt>
<rscale>  2 0.44891988E+03</rscale>
<asrwt>0</asrwt>
<pdfrwt beam="1">  1       21 0.32937628E-01 0.44891988E+03</pdfrwt>
<pdfrwt beam="2">  1       21 0.33080156E-01 0.44891988E+03</pdfrwt>
<totfact> 0.72444689E+04</totfact>
</mgrwt>
</event>
<event>
 7    0  0.4748297E-002  0.4477460E+03  0.7546771E-02  0.1028396E+00
         21   -1    0    0  502  501  0.00000000000E+00  0.00000000000E+00  0.47285877325E+02  0.47285877325E+02  0.00000000000E+00 0.  1.
         21   -1    0    0  501  502 -0.00000000000E+00 -0.00000000000E+00 -0.10599174029E+04  0.10599174029E+04  0.00000000000E+00 0.  1.
      99926    2    1    2    0    0  0.00000000000E+00 -0.14210854715E-13 -0.10126315256E+04  0.11072032802E+04  0.44774601857E+03 0.  0.
      99925    2    3    3    0    0  0.18649628369E+02 -0.96227860179E+02 -0.54045295422E+03  0.60899878299E+03  0.26302568744E+03 0.  0.
         25    1    4    4    0    0 -0.20402017347E+01 -0.59781854311E+02 -0.35746018866E+03  0.38341012912E+03  0.12509000000E+03 0.  0.
         25    1    3    3    0    0 -0.18649628369E+02  0.96227860179E+02 -0.47217857134E+03  0.49820449722E+03  0.12509000000E+03 0.  0.
         25    1    4    4    0    0  0.20689830103E+02 -0.36446005867E+02 -0.18299276555E+03  0.22558865388E+03  0.12509000000E+03 0.  0.
<mgrwt>
<rscale>  2 0.44774602E+03</rscale>
<asrwt>0</asrwt>
<pdfrwt beam="1">  1       21 0.69538067E-02 0.44774602E+03</pdfrwt>
<pdfrwt beam="2">  1       21 0.15587018E+00 0.44774602E+03</pdfrwt>
<totfact> 0.37309745E+04</totfact>
</mgrwt>
</event>
<event>
 7    0  0.4748297E-002  0.4419171E+03  0.7546771E-02  0.1030160E+00
         21   -1    0    0  502  501  0.00000000000E+00  0.00000000000E+00  0.37795733522E+02  0.37795733522E+02  0.00000000000E+00 0. -1.
         21   -1    0    0  501  502 -0.00000000000E+00 -0.00000000000E+00 -0.12917508453E+04  0.12917508453E+04  0.00000000000E+00 0. -1.
      99926    2    1    2    0    0  0.00000000000E+00  0.00000000000E+00 -0.12539551118E+04  0.13295465789E+04  0.44191705433E+03 0.  0.
      99925    2    3    3    0    0  0.65142709202E+02 -0.76102969070E+02 -0.77834687578E+03  0.82766418551E+03  0.26299982982E+03 0.  0.
         25    1    4    4    0    0 -0.19148545662E+01 -0.32287209561E+02 -0.29616092160E+03  0.32311751756E+03  0.12509000000E+03 0.  0.
         25    1    3    3    0    0 -0.65142709202E+02  0.76102969070E+02 -0.47560823604E+03  0.50188239334E+03  0.12509000000E+03 0.  0.
         25    1    4    4    0    0  0.67057563768E+02 -0.43815759510E+02 -0.48218595417E+03  0.50454666795E+03  0.12509000000E+03 0.  0.
<mgrwt>
<rscale>  2 0.44191705E+03</rscale>
<asrwt>0</asrwt>
<pdfrwt beam="1">  1       21 0.55581960E-02 0.44191705E+03</pdfrwt>
<pdfrwt beam="2">  1       21 0.18996336E+00 0.44191705E+03</pdfrwt>
<totfact> 0.31337234E+04</totfact>
</mgrwt>
</event>
<event>
 7    0  0.4748297E-002  0.4152198E+03  0.7546771E-02  0.1038633E+00
         21   -1    0    0  502  501  0.00000000000E+00  0.00000000000E+00  0.23316844109E+03  0.23316844109E+03  0.00000000000E+00 0.  1.
         21   -1    0    0  501  502 -0.00000000000E+00 -0.00000000000E+00 -0.18485296412E+03  0.18485296412E+03  0.00000000000E+00 0.  1.
      99926    2    1    2    0    0  0.00000000000E+00  0.00000000000E+00  0.48315476968E+02  0.41802140521E+03  0.41521983322E+03 0.  0.
      99925    2    3    3    0    0 -0.11026047054E+02 -0.46972225786E+02  0.82097175338E+02  0.27975834090E+03  0.26305288327E+03 0.  0.
         25    1    3    3    0    0  0.11026047054E+02  0.46972225786E+02 -0.33781698370E+02  0.13826306431E+03  0.12509000000E+03 0.  0.
         25    1    4    4    0    0 -0.17677054162E+02 -0.52278529440E+01  0.76116098673E+02  0.14758379744E+03  0.12509000000E+03 0.  0.
         25    1    4    4    0    0  0.66510071081E+01 -0.41744372842E+02  0.59810766644E+01  0.13217454346E+03  0.12509000000E+03 0.  0.
<mgrwt>
<rscale>  2 0.41521983E+03</rscale>
<asrwt>0</asrwt>
<pdfrwt beam="1">  1       21 0.34289476E-01 0.41521983E+03</pdfrwt>
<pdfrwt beam="2">  1       21 0.27184260E-01 0.41521983E+03</pdfrwt>
<totfact> 0.99316723E+04</totfact>
</mgrwt>
</event>
<event>
 7    0  0.4748297E-002  0.4566024E+03  0.7546771E-02  0.1025771E+00
         21   -1    0    0  502  501  0.00000000000E+00  0.00000000000E+00  0.11031448663E+03  0.11031448663E+03  0.00000000000E+00 0. -1.
         21   -1    0    0  501  502 -0.00000000000E+00 -0.00000000000E+00 -0.47248054770E+03  0.47248054770E+03  0.00000000000E+00 0. -1.
      99926    2    1    2    0    0 -0.71054273576E-14  0.00000000000E+00 -0.36216606107E+03  0.58279503433E+03  0.45660244880E+03 0.  0.
      99925    2    3    3    0    0  0.61398690539E+02  0.68632370683E+02 -0.13743064891E+03  0.30960331578E+03  0.26169988226E+03 0.  0.
         25    1    4    4    0    0  0.59989888199E+02  0.13971942455E+02 -0.53475508872E+02  0.14933566222E+03  0.12509000000E+03 0.  0.
         25    1    4    4    0    0  0.14088023398E+01  0.54660428228E+02 -0.83955140036E+02  0.16026765356E+03  0.12509000000E+03 0.  0.
         25    1    3    3    0    0 -0.61398690539E+02 -0.68632370683E+02 -0.22473541216E+03  0.27319171855E+03  0.12509000000E+03 0.  0.
<mgrwt>
<rscale>  2 0.45660245E+03</rscale>
<asrwt>0</asrwt>
<pdfrwt beam="1">  1       21 0.16222719E-01 0.45660245E+03</pdfrwt>
<pdfrwt beam="2">  1       21 0.69482433E-01 0.45660245E+03</pdfrwt>
<totfact> 0.58999039E+04</totfact>
</mgrwt>
</event>
<event>
 7    0  0.4748297E-002  0.4531482E+03  0.7546771E-02  0.1026787E+00
         21   -1    0    0  502  501  0.00000000000E+00  0.00000000000E+00  0.54567108330E+02  0.54567108330E+02  0.00000000000E+00 0.  1.
         21   -1    0    0  501  502 -0.00000000000E+00 -0.00000000000E+00 -0.94078323945E+03  0.94078323945E+03  0.00000000000E+00 0.  1.
      99926    2    1    2    0    0  0.00000000000E+00  0.00000000000E+00 -0.88621613112E+03  0.99535034778E+03  0.45314819184E+03 0.  0.
      99925    2    3    3    0    0 -0.92963178055E+02  0.61604888623E+02 -0.55741674686E+03  0.62630582748E+03  0.26288447097E+03 0.  0.
         25    1    4    4    0    0 -0.87834016128E+02  0.37291914806E+02 -0.32946401053E+03  0.36510210028E+03  0.12509000000E+03 0.  0.
         25    1    3    3    0    0  0.92963178055E+02 -0.61604888623E+02 -0.32879938426E+03  0.36904452031E+03  0.12509000000E+03 0.  0.
         25    1    4    4    0    0 -0.51291619263E+01  0.24312973817E+02 -0.22795273633E+03  0.26120372719E+03  0.12509000000E+03 0.  0.
<mgrwt>
<rscale>  2 0.45314819E+03</rscale>
<asrwt>0</asrwt>
<pdfrwt beam="1">  1       21 0.80245747E-02 0.45314819E+03</pdfrwt>
<pdfrwt beam="2">  1       21 0.13835048E+00 0.45314819E+03</pdfrwt>
<totfact> 0.39922407E+04</totfact>
</mgrwt>
</event>
<event>
 7    0  0.4748297E-002  0.4507702E+03  0.7546771E-02  0.1027493E+00
         21   -1    0    0  502  501  0.00000000000E+00  0.00000000000E+00  0.11066369046E+03  0.11066369046E+03  0.00000000000E+00 0.  1.
         21   -1    0    0  501  502 -0.00000000000E+00 -0.00000000000E+00 -0.45903445842E+03  0.45903445842E+03  0.00000000000E+00 0.  1.
      99926    2    1    2    0    0  0.00000000000E+00  0.00000000000E+00 -0.34837076796E+03  0.56969814888E+03  0.45077021737E+03 0.  0.
      99925    2    3    3    0    0  0.52875093059E+02 -0.20269041890E+02 -0.10215417262E+03  0.28778197437E+03  0.26301403055E+03 0.  0.
         25    1    4    4    0    0  0.41700021043E+02 -0.11275591456E+02 -0.92582914108E+02  0.16150893103E+03  0.12509000000E+03 0.  0.
         25    1    4    4    0    0  0.11175072016E+02 -0.89934504338E+01 -0.95712585082E+01  0.12627304334E+03  0.12509000000E+03 0.  0.
         25    1    3    3    0    0 -0.52875093059E+02  0.20269041890E+02 -0.24621659534E+03  0.28191617451E+03  0.12509000000E+03 0.  0.
<mgrwt>
<rscale>  2 0.45077022E+03</rscale>
<asrwt>0</asrwt>
<pdfrwt beam="1">  1       21 0.16274072E-01 0.45077022E+03</pdfrwt>
<pdfrwt beam="2">  1       21 0.67505067E-01 0.45077022E+03</pdfrwt>
<totfact> 0.62652780E+04</totfact>
</mgrwt>
</event>
<event>
 7    0  0.4748297E-002  0.4527391E+03  0.7546771E-02  0.1026908E+00
         21   -1    0    0  502  501  0.00000000000E+00  0.00000000000E+00  0.12262867685E+03  0.12262867685E+03  0.00000000000E+00 0.  1.
         21   -1    0    0  501  502 -0.00000000000E+00 -0.00000000000E+00 -0.41787264356E+03  0.41787264356E+03  0.00000000000E+00 0.  1.
      99926    2    1    2    0    0  0.00000000000E+00  0.00000000000E+00 -0.29524396671E+03  0.54050132041E+03  0.45273908324E+03 0.  0.
      99925    2    3    3    0    0  0.10788851180E+03  0.26347613371E+02 -0.18469317769E+03  0.33999418149E+03  0.26296453345E+03 0.  0.
         25    1    3    3    0    0 -0.10788851180E+03 -0.26347613371E+02 -0.11055078902E+03  0.20050713893E+03  0.12509000000E+03 0.  0.
         25    1    4    4    0    0  0.49428978804E+02  0.47931661543E+02 -0.69088409855E+02  0.15862340496E+03  0.12509000000E+03 0.  0.
         25    1    4    4    0    0  0.58459532994E+02 -0.21584048172E+02 -0.11560476783E+03  0.18137077653E+03  0.12509000000E+03 0.  0.
<mgrwt>
<rscale>  2 0.45273908E+03</rscale>
<asrwt>0</asrwt>
<pdfrwt beam="1">  1       21 0.18033628E-01 0.45273908E+03</pdfrwt>
<pdfrwt beam="2">  1       21 0.61451861E-01 0.45273908E+03</pdfrwt>
<totfact> 0.63629454E+04</totfact>
</mgrwt>
</event>
<event>
 7    0  0.4748297E-002  0.4549174E+03  0.7546771E-02  0.1026266E+00
         21   -1    0    0  502  501  0.00000000000E+00  0.00000000000E+00  0.21577942981E+03  0.21577942981E+03  0.00000000000E+00 0.  1.
         21   -1    0    0  501  502 -0.00000000000E+00 -0.00000000000E+00 -0.23977012243E+03  0.23977012243E+03  0.00000000000E+00 0.  1.
      99926    2    1    2    0    0  0.00000000000E+00  0.00000000000E+00 -0.23990692625E+02  0.45554955224E+03  0.45491740043E+03 0.  0.
      99925    2    3    3    0    0 -0.79886369469E+02 -0.12476003663E+02 -0.94381041975E+02  0.29080796042E+03  0.26291444628E+03 0.  0.
         25    1    3    3    0    0  0.79886369469E+02  0.12476003663E+02  0.70390349349E+02  0.16474159182E+03  0.12509000000E+03 0.  0.
         25    1    4    4    0    0 -0.58800067129E+02  0.67694806553E+01 -0.13287178574E+02  0.13902277143E+03  0.12509000000E+03 0.  0.
         25    1    4    4    0    0 -0.21086302340E+02 -0.19245484318E+02 -0.81093863401E+02  0.15178518898E+03  0.12509000000E+03 0.  0.
<mgrwt>
<rscale>  2 0.45491740E+03</rscale>
<asrwt>0</asrwt>
<pdfrwt beam="1">  1       21 0.31732269E-01 0.45491740E+03</pdfrwt>
<pdfrwt beam="2">  1       21 0.35260312E-01 0.45491740E+03</pdfrwt>
<totfact> 0.68550748E+04</totfact>
</mgrwt>
</event>
<event>
 7    0  0.4748297E-002  0.4505607E+03  0.7546771E-02  0.1027555E+00
         21   -1    0    0  502  501  0.00000000000E+00  0.00000000000E+00  0.32512101132E+02  0.32512101132E+02  0.00000000000E+00 0. -1.
         21   -1    0    0  501  502 -0.00000000000E+00 -0.00000000000E+00 -0.15609951130E+04  0.15609951130E+04  0.00000000000E+00 0. -1.
      99926    2    1    2    0    0  0.00000000000E+00  0.35527136788E-14 -0.15284830119E+04  0.15935072141E+04  0.45056067729E+03 0.  0.
      99925    2    3    3    0    0  0.69668726016E+02 -0.27333013898E+02 -0.12456239332E+04  0.12752972339E+04  0.26306506192E+03 0.  0.
         25    1    3    3    0    0 -0.69668726016E+02  0.27333013898E+02 -0.28285907867E+03  0.31820998024E+03  0.12509000000E+03 0.  0.
         25    1    4    4    0    0  0.56359992844E+02 -0.40881716579E+02 -0.76614806624E+03  0.77940883434E+03  0.12509000000E+03 0.  0.
         25    1    4    4    0    0  0.13308733172E+02  0.13548702680E+02 -0.47947586695E+03  0.49588839955E+03  0.12509000000E+03 0.  0.
<mgrwt>
<rscale>  2 0.45056068E+03</rscale>
<asrwt>0</asrwt>
<pdfrwt beam="1">  1       21 0.47811918E-02 0.45056068E+03</pdfrwt>
<pdfrwt beam="2">  1       21 0.22955808E+00 0.45056068E+03</pdfrwt>
<totfact> 0.22337030E+04</totfact>
</mgrwt>
</event>
<event>
 7    0  0.4748297E-002  0.4582273E+03  0.7546771E-02  0.1025297E+00
         21   -1    0    0  502  501  0.00000000000E+00  0.00000000000E+00  0.16427316384E+03  0.16427316384E+03  0.00000000000E+00 0.  1.
         21   -1    0    0  501  502 -0.00000000000E+00 -0.00000000000E+00 -0.31954736930E+03  0.31954736930E+03  0.00000000000E+00 0.  1.
      99926    2    1    2    0    0 -0.35527136788E-14  0.00000000000E+00 -0.15527420546E+03  0.48382053314E+03  0.45822726829E+03 0.  0.
      99925    2    3    3    0    0  0.25236576638E+02  0.46176722143E+02  0.11943451534E+02  0.26846402086E+03  0.26298499956E+03 0.  0.
         25    1    3    3    0    0 -0.25236576638E+02 -0.46176722143E+02 -0.16721765700E+03  0.21535651228E+03  0.12509000000E+03 0.  0.
         25    1    4    4    0    0 -0.21513712576E+02  0.17732159496E+02 -0.15824878559E+02  0.12913250633E+03  0.12509000000E+03 0.  0.
         25    1    4    4    0    0  0.46750289214E+02  0.28444562647E+02  0.27768330093E+02  0.13933151453E+03  0.12509000000E+03 0.  0.
<mgrwt>
<rscale>  2 0.45822727E+03</rscale>
<asrwt>0</asrwt>
<pdfrwt beam="1">  1       21 0.24157819E-01 0.45822727E+03</pdfrwt>
<pdfrwt beam="2">  1       21 0.46992260E-01 0.45822727E+03</pdfrwt>
<totfact> 0.64748363E+04</totfact>
</mgrwt>
</event>
<event>
 6    0  0.4748297E-002  0.4539861E+03  0.7546771E-02  0.1026540E+00
         21   -1    0    0  502  501  0.00000000000E+00  0.00000000000E+00  0.42830546821E+02  0.42830546821E+02  0.00000000000E+00 0. -1.
         21   -1    0    0  501  502 -0.00000000000E+00 -0.00000000000E+00 -0.12030163825E+04  0.12030163825E+04  0.00000000000E+00 0. -1.
      99926    2    1    2    0    0  0.00000000000E+00  0.17763568394E-14 -0.11601858357E+04  0.12458469293E+04  0.45398612092E+03 0.  0.
         25    1    3    3    0    0  0.34368341869E+02 -0.12249894710E+02 -0.14629201174E+03  0.19590840626E+03  0.12509000000E+03 0.  0.
         25    1    3    3    0    0 -0.21868640448E+02  0.31371992228E+02 -0.34289417652E+03  0.36699640832E+03  0.12509000000E+03 0.  0.
         25    1    3    3    0    0 -0.12499701421E+02 -0.19122097518E+02 -0.67099964741E+03  0.68294211473E+03  0.12509000000E+03 0.  0.
<mgrwt>
<rscale>  2 0.45398612E+03</rscale>
<asrwt>0</asrwt>
<pdfrwt beam="1">  1       21 0.62986112E-02 0.45398612E+03</pdfrwt>
<pdfrwt beam="2">  1       21 0.17691413E+00 0.45398612E+03</pdfrwt>
<totfact> 0.30972593E+04</totfact>
</mgrwt>
</event>
<event>
 7    0  0.4748297E-002  0.4547954E+03  0.7546771E-02  0.1026302E+00
         21   -1    0    0  502  501  0.00000000000E+00  0.00000000000E+00  0.20062620073E+03  0.20062620073E+03  0.00000000000E+00 0.  1.
         21   -1    0    0  501  502 -0.00000000000E+00 -0.00000000000E+00 -0.25774160315E+03  0.25774160315E+03  0.00000000000E+00 0.  1.
      99926    2    1    2    0    0  0.00000000000E+00  0.00000000000E+00 -0.57115402421E+02  0.45836780388E+03  0.45479542043E+03 0.  0.
      99925    2    3    3    0    0  0.80299558447E+02 -0.75681585351E+02 -0.57150361075E+02  0.29156483397E+03  0.26375778129E+03 0.  0.
         25    1    4    4    0    0 -0.33067501235E+01 -0.33807566167E+02 -0.29996286275E+02  0.13304574934E+03  0.12509000000E+03 0.  0.
         25    1    3    3    0    0 -0.80299558447E+02  0.75681585351E+02  0.34958653892E-01  0.16680296991E+03  0.12509000000E+03 0.  0.
         25    1    4    4    0    0  0.83606308571E+02 -0.41874019184E+02 -0.27154074799E+02  0.15851908464E+03  0.12509000000E+03 0.  0.
<mgrwt>
<rscale>  2 0.45479542E+03</rscale>
<asrwt>0</asrwt>
<pdfrwt beam="1">  1       21 0.29503853E-01 0.45479542E+03</pdfrwt>
<pdfrwt beam="2">  1       21 0.37903177E-01 0.45479542E+03</pdfrwt>
<totfact> 0.68411197E+04</totfact>
</mgrwt>
</event>
<event>
 7    0  0.4748297E-002  0.4603975E+03  0.7546771E-02  0.1024666E+00
         21   -1    0    0  502  501  0.00000000000E+00  0.00000000000E+00  0.15796605907E+03  0.15796605907E+03  0.00000000000E+00 0. -1.
         21   -1    0    0  501  502 -0.00000000000E+00 -0.00000000000E+00 -0.33546104517E+03  0.33546104517E+03  0.00000000000E+00 0. -1.
      99926    2    1    2    0    0 -0.71054273576E-14  0.00000000000E+00 -0.17749498611E+03  0.49342710424E+03  0.46039747730E+03 0.  0.
      99925    2    3    3    0    0  0.63932779650E+02  0.78310045136E+01 -0.51516032166E+01  0.27094457758E+03  0.26312677583E+03 0.  0.
         25    1    3    3    0    0 -0.63932779650E+02 -0.78310045136E+01 -0.17234338289E+03  0.22248252666E+03  0.12509000000E+03 0.  0.
         25    1    4    4    0    0  0.55360533100E+02  0.43394327729E+01 -0.36518637166E+02  0.14165005564E+03  0.12509000000E+03 0.  0.
         25    1    4    4    0    0  0.85722465495E+01  0.34915717406E+01  0.31367033949E+02  0.12929452194E+03  0.12509000000E+03 0.  0.
<mgrwt>
<rscale>  2 0.46039748E+03</rscale>
<asrwt>0</asrwt>
<pdfrwt beam="1">  1       21 0.23230303E-01 0.46039748E+03</pdfrwt>
<pdfrwt beam="2">  1       21 0.49332506E-01 0.46039748E+03</pdfrwt>
<totfact> 0.62992221E+04</totfact>
</mgrwt>
</event>
<event>
 7    0  0.4748297E-002  0.4586262E+03  0.7546771E-02  0.1025180E+00
         21   -1    0    0  502  501  0.00000000000E+00  0.00000000000E+00  0.22255228842E+03  0.22255228842E+03  0.00000000000E+00 0.  1.
         21   -1    0    0  501  502 -0.00000000000E+00 -0.00000000000E+00 -0.23627931467E+03  0.23627931467E+03  0.00000000000E+00 0.  1.
      99926    2    1    2    0    0  0.00000000000E+00  0.00000000000E+00 -0.13727026259E+02  0.45883160309E+03  0.45862621899E+03 0.  0.
      99925    2    3    3    0    0 -0.10367825250E+02 -0.11493285579E+03  0.72319750093E+01  0.28735612095E+03  0.26306688436E+03 0.  0.
         25    1    4    4    0    0  0.26562416338E+02 -0.84177434685E+02  0.86810000350E+01  0.15334363480E+03  0.12509000000E+03 0.  0.
         25    1    3    3    0    0  0.10367825250E+02  0.11493285579E+03 -0.20959001269E+02  0.17147548214E+03  0.12509000000E+03 0.  0.
         25    1    4    4    0    0 -0.36930241587E+02 -0.30755421105E+02 -0.14490250258E+01  0.13401248615E+03  0.12509000000E+03 0.  0.
<mgrwt>
<rscale>  2 0.45862622E+03</rscale>
<asrwt>0</asrwt>
<pdfrwt beam="1">  1       21 0.32728278E-01 0.45862622E+03</pdfrwt>
<pdfrwt beam="2">  1       21 0.34746958E-01 0.45862622E+03</pdfrwt>
<totfact> 0.66326101E+04</totfact>
</mgrwt>
</event>
<event>
 7    0  0.4748297E-002  0.4532591E+03  0.7546771E-02  0.1026755E+00
         21   -1    0    0  502  501  0.00000000000E+00  0.00000000000E+00  0.71423433182E+02  0.71423433182E+02  0.00000000000E+00 0. -1.
         21   -1    0    0  501  502 -0.00000000000E+00 -0.00000000000E+00 -0.71910499904E+03  0.71910499904E+03  0.00000000000E+00 0. -1.
      99926    2    1    2    0    0 -0.14210854715E-13 -0.35527136788E-14 -0.64768156585E+03  0.79052843222E+03  0.45325907757E+03 0.  0.
      99925    2    3    3    0    0 -0.95309123973E+02  0.26045706384E+02 -0.31859580173E+03  0.42486854081E+03  0.26314973714E+03 0.  0.
         25    1    4    4    0    0 -0.25443302152E+02  0.28358363114E+02 -0.10521738715E+03  0.16783850882E+03  0.12509000000E+03 0.  0.
         25    1    4    4    0    0 -0.69865821822E+02 -0.23126567300E+01 -0.21337841458E+03  0.25703003200E+03  0.12509000000E+03 0.  0.
         25    1    3    3    0    0  0.95309123973E+02 -0.26045706384E+02 -0.32908576413E+03  0.36565989141E+03  0.12509000000E+03 0.  0.
<mgrwt>
<rscale>  2 0.45325908E+03</rscale>
<asrwt>0</asrwt>
<pdfrwt beam="1">  1       21 0.10503446E-01 0.45325908E+03</pdfrwt>
<pdfrwt beam="2">  1       21 0.10575074E+00 0.45325908E+03</pdfrwt>
<totfact> 0.48890974E+04</totfact>
</mgrwt>
</event>
<event>
 7    0  0.4748297E-002  0.4625053E+03  0.7546771E-02  0.1024057E+00
         21   -1    0    0  502  501  0.00000000000E+00  0.00000000000E+00  0.87496297583E+03  0.87496297583E+03  0.00000000000E+00 0.  1.
         21   -1    0    0  501  502 -0.00000000000E+00 -0.00000000000E+00 -0.61120068005E+02  0.61120068005E+02  0.00000000000E+00 0.  1.
      99926    2    1    2    0    0  0.00000000000E+00  0.00000000000E+00  0.81384290782E+03  0.93608304383E+03  0.46250533655E+03 0.  0.
      99925    2    3    3    0    0  0.49993231114E+02  0.75857863974E+02  0.34966055454E+03  0.44683208176E+03  0.26294993290E+03 0.  0.
         25    1    3    3    0    0 -0.49993231114E+02 -0.75857863974E+02  0.46418235329E+03  0.48925096207E+03  0.12509000000E+03 0.  0.
         25    1    4    4    0    0 -0.11032870566E+02  0.35114448409E+02  0.13423139489E+03  0.18713718015E+03  0.12509000000E+03 0.  0.
         25    1    4    4    0    0  0.61026101679E+02  0.40743415565E+02  0.21542915965E+03  0.25969490162E+03  0.12509000000E+03 0.  0.
<mgrwt>
<rscale>  2 0.46250534E+03</rscale>
<asrwt>0</asrwt>
<pdfrwt beam="1">  1       21 0.12867102E+00 0.46250534E+03</pdfrwt>
<pdfrwt beam="2">  1       21 0.89882458E-02 0.46250534E+03</pdfrwt>
<totfact> 0.39348090E+04</totfact>
</mgrwt>
</event>
<event>
 7    0  0.4748297E-002  0.4511523E+03  0.7546771E-02  0.1027379E+00
         21   -1    0    0  502  501  0.00000000000E+00  0.00000000000E+00  0.32982540082E+02  0.32982540082E+02  0.00000000000E+00 0. -1.
         21   -1    0    0  501  502 -0.00000000000E+00 -0.00000000000E+00 -0.15427734854E+04  0.15427734854E+04  0.00000000000E+00 0. -1.
      99926    2    1    2    0    0  0.35527136788E-14  0.35527136788E-14 -0.15097909453E+04  0.15757560255E+04  0.45115225066E+03 0.  0.
      99925    2    3    3    0    0 -0.28263618832E+02 -0.29235840401E+02 -0.59853322128E+03  0.65505427452E+03  0.26305991536E+03 0.  0.
         25    1    4    4    0    0 -0.35321396223E+01 -0.39559124110E+02 -0.37757132901E+03  0.39973118080E+03  0.12509000000E+03 0.  0.
         25    1    3    3    0    0  0.28263618832E+02  0.29235840401E+02 -0.91125772402E+03  0.92070175095E+03  0.12509000000E+03 0.  0.
         25    1    4    4    0    0 -0.24731479210E+02  0.10323283710E+02 -0.22096189227E+03  0.25532309372E+03  0.12509000000E+03 0.  0.
<mgrwt>
<rscale>  2 0.45115225E+03</rscale>
<asrwt>0</asrwt>
<pdfrwt beam="1">  1       21 0.48503725E-02 0.45115225E+03</pdfrwt>
<pdfrwt beam="2">  1       21 0.22687850E+00 0.45115225E+03</pdfrwt>
<totfact> 0.22651356E+04</totfact>
</mgrwt>
</event>
<event>
 7    0  0.4748297E-002  0.4487795E+03  0.7546771E-02  0.1028087E+00
         21   -1    0    0  502  501  0.00000000000E+00  0.00000000000E+00  0.17898579397E+03  0.17898579397E+03  0.00000000000E+00 0.  1.
         21   -1    0    0  501  502 -0.00000000000E+00 -0.00000000000E+00 -0.28131147405E+03  0.28131147405E+03  0.00000000000E+00 0.  1.
      99926    2    1    2    0    0  0.00000000000E+00  0.00000000000E+00 -0.10232568008E+03  0.46029726802E+03  0.44877948944E+03 0.  0.
      99925    2    3    3    0    0 -0.42873778892E+02  0.86308259254E+02 -0.11300005418E+03  0.30202937205E+03  0.26299325620E+03 0.  0.
         25    1    3    3    0    0  0.42873778892E+02 -0.86308259254E+02  0.10674374108E+02  0.15826789597E+03  0.12509000000E+03 0.  0.
         25    1    4    4    0    0 -0.28287990047E+02  0.35701782683E+01 -0.38606724907E+02  0.13398113248E+03  0.12509000000E+03 0.  0.
         25    1    4    4    0    0 -0.14585788844E+02  0.82738080985E+02 -0.74393329277E+02  0.16804823957E+03  0.12509000000E+03 0.  0.
<mgrwt>
<rscale>  2 0.44877949E+03</rscale>
<asrwt>0</asrwt>
<pdfrwt beam="1">  1       21 0.26321441E-01 0.44877949E+03</pdfrwt>
<pdfrwt beam="2">  1       21 0.41369334E-01 0.44877949E+03</pdfrwt>
<totfact> 0.71634338E+04</totfact>
</mgrwt>
</event>
<event>
 7    0  0.4748297E-002  0.4438309E+03  0.7546771E-02  0.1029578E+00
         21   -1    0    0  502  501  0.00000000000E+00  0.00000000000E+00  0.19767404183E+03  0.19767404183E+03  0.00000000000E+00 0. -1.
         21   -1    0    0  501  502 -0.00000000000E+00 -0.00000000000E+00 -0.24912963446E+03  0.24912963446E+03  0.00000000000E+00 0. -1.
      99926    2    1    2    0    0 -0.35527136788E-14  0.00000000000E+00 -0.51455592631E+02  0.44680367629E+03  0.44383087672E+03 0.  0.
      99925    2    3    3    0    0  0.30671809177E+02 -0.20946534288E+02 -0.12870430102E+03  0.29516467001E+03  0.26301685905E+03 0.  0.
         25    1    4    4    0    0  0.17333476557E+02  0.24018032931E+02 -0.39325972995E+02  0.13442974212E+03  0.12509000000E+03 0.  0.
         25    1    4    4    0    0  0.13338332620E+02 -0.44964567219E+02 -0.89378328027E+02  0.16073492789E+03  0.12509000000E+03 0.  0.
         25    1    3    3    0    0 -0.30671809177E+02  0.20946534288E+02  0.77248708391E+02  0.15163900628E+03  0.12509000000E+03 0.  0.
<mgrwt>
<rscale>  2 0.44383088E+03</rscale>
<asrwt>0</asrwt>
<pdfrwt beam="1">  1       21 0.29069712E-01 0.44383088E+03</pdfrwt>
<pdfrwt beam="2">  1       21 0.36636711E-01 0.44383088E+03</pdfrwt>
<totfact> 0.75672162E+04</totfact>
</mgrwt>
</event>
<event>
 7    0  0.4748297E-002  0.4591733E+03  0.7546771E-02  0.1025021E+00
         21   -1    0    0  502  501  0.00000000000E+00  0.00000000000E+00  0.63254548093E+03  0.63254548093E+03  0.00000000000E+00 0. -1.
         21   -1    0    0  501  502 -0.00000000000E+00 -0.00000000000E+00 -0.83330039229E+02  0.83330039229E+02  0.00000000000E+00 0. -1.
      99926    2    1    2    0    0  0.00000000000E+00  0.00000000000E+00  0.54921544170E+03  0.71587552016E+03  0.45917334304E+03 0.  0.
      99925    2    3    3    0    0  0.53719064976E+02 -0.72117730656E+02  0.22670794616E+03  0.35846077816E+03  0.26269931787E+03 0.  0.
         25    1    4    4    0    0  0.62458544870E+02 -0.47369717351E+02  0.98773330247E+02  0.17761936498E+03  0.12509000000E+03 0.  0.
         25    1    3    3    0    0 -0.53719064976E+02  0.72117730656E+02  0.32250749554E+03  0.35741474199E+03  0.12509000000E+03 0.  0.
         25    1    4    4    0    0 -0.87394798948E+01 -0.24748013306E+02  0.12793461592E+03  0.18084141318E+03  0.12509000000E+03 0.  0.
<mgrwt>
<rscale>  2 0.45917334E+03</rscale>
<asrwt>0</asrwt>
<pdfrwt beam="1">  1       21 0.93021392E-01 0.45917334E+03</pdfrwt>
<pdfrwt beam="2">  1       21 0.12254418E-01 0.45917334E+03</pdfrwt>
<totfact> 0.50375226E+04</totfact>
</mgrwt>
</event>
<event>
 7    0  0.4748297E-002  0.4505753E+03  0.7546771E-02  0.1027551E+00
         21   -1    0    0  502  501  0.00000000000E+00  0.00000000000E+00  0.19271479850E+02  0.19271479850E+02  0.00000000000E+00 0. -1.
         21   -1    0    0  501  502 -0.00000000000E+00 -0.00000000000E+00 -0.26336602879E+04  0.26336602879E+04  0.00000000000E+00 0. -1.
      99926    2    1    2    0    0 -0.35527136788E-14 -0.14210854715E-13 -0.26143888080E+04  0.26529317677E+04  0.45057532630E+03 0.  0.
      99925    2    3    3    0    0  0.19288165088E+02  0.10244804882E+03 -0.18375988936E+04  0.18592582106E+04  0.26306608280E+03 0.  0.
         25    1    4    4    0    0 -0.14763998976E+02  0.74889023018E+02 -0.81019984711E+03  0.82334539641E+03  0.12509000000E+03 0.  0.
         25    1    4    4    0    0  0.34052164064E+02  0.27559025803E+02 -0.10273990465E+04  0.10359128142E+04  0.12509000000E+03 0.  0.
         25    1    3    3    0    0 -0.19288165088E+02 -0.10244804882E+03 -0.77678991445E+03  0.79367355714E+03  0.12509000000E+03 0.  0.
<mgrwt>
<rscale>  2 0.45057533E+03</rscale>
<asrwt>0</asrwt>
<pdfrwt beam="1">  1       21 0.28340431E-02 0.45057533E+03</pdfrwt>
<pdfrwt beam="2">  1       21 0.38730272E+00 0.45057533E+03</pdfrwt>
<totfact> 0.58903231E+03</totfact>
</mgrwt>
</event>
<event>
 7    0  0.4748297E-002  0.4612033E+03  0.7546771E-02  0.1024433E+00
         21   -1    0    0  502  501  0.00000000000E+00  0.00000000000E+00  0.36715863335E+03  0.36715863335E+03  0.00000000000E+00 0.  1.
         21   -1    0    0  501  502 -0.00000000000E+00 -0.00000000000E+00 -0.14483418912E+03  0.14483418912E+03  0.00000000000E+00 0.  1.
      99926    2    1    2    0    0  0.14210854715E-13  0.71054273576E-14  0.22232444423E+03  0.51199282247E+03  0.46120330849E+03 0.  0.
      99925    2    3    3    0    0  0.83037179166E+02  0.61292163614E+02  0.20474566815E+03  0.34887193505E+03  0.26294283789E+03 0.  0.
         25    1    4    4    0    0  0.36227530847E+02  0.32039500816E+02  0.51925443715E+02  0.14381489286E+03  0.12509000000E+03 0.  0.
         25    1    4    4    0    0  0.46809648319E+02  0.29252662798E+02  0.15282022443E+03  0.20505704219E+03  0.12509000000E+03 0.  0.
         25    1    3    3    0    0 -0.83037179166E+02 -0.61292163614E+02  0.17578776079E+02  0.16312088742E+03  0.12509000000E+03 0.  0.
<mgrwt>
<rscale>  2 0.46120331E+03</rscale>
<asrwt>0</asrwt>
<pdfrwt beam="1">  1       21 0.53993916E-01 0.46120331E+03</pdfrwt>
<pdfrwt beam="2">  1       21 0.21299146E-01 0.46120331E+03</pdfrwt>
<totfact> 0.61359064E+04</totfact>
</mgrwt>
</event>
<event>
 7    0  0.4748297E-002  0.4413879E+03  0.7546771E-02  0.1030322E+00
         21   -1    0    0  502  501  0.00000000000E+00  0.00000000000E+00  0.20888094227E+03  0.20888094227E+03  0.00000000000E+00 0. -1.
         21   -1    0    0  501  502 -0.00000000000E+00 -0.00000000000E+00 -0.23317507647E+03  0.23317507647E+03  0.00000000000E+00 0. -1.
      99926    2    1    2    0    0  0.00000000000E+00  0.00000000000E+00 -0.24294134198E+02  0.44205601874E+03  0.44138794586E+03 0.  0.
      99925    2    3    3    0    0 -0.60351389948E+02 -0.56386730122E+02 -0.72177816915E+02  0.28469621201E+03  0.26271760938E+03 0.  0.
         25    1    4    4    0    0 -0.36894427580E+02  0.47680311521E+01 -0.57911283879E+02  0.14277660105E+03  0.12509000000E+03 0.  0.
         25    1    3    3    0    0  0.60351389948E+02  0.56386730122E+02  0.47883682717E+02  0.15735980673E+03  0.12509000000E+03 0.  0.
         25    1    4    4    0    0 -0.23456962368E+02 -0.61154761274E+02 -0.14266533036E+02  0.14191961096E+03  0.12509000000E+03 0.  0.
<mgrwt>
<rscale>  2 0.44138795E+03</rscale>
<asrwt>0</asrwt>
<pdfrwt beam="1">  1       21 0.30717786E-01 0.44138795E+03</pdfrwt>
<pdfrwt beam="2">  1       21 0.34290452E-01 0.44138795E+03</pdfrwt>
<totfact> 0.77595969E+04</totfact>
</mgrwt>
</event>
<event>
 7    0  0.4748297E-002  0.4493968E+03  0.7546771E-02  0.1027902E+00
         21   -1    0    0  502  501  0.00000000000E+00  0.00000000000E+00  0.26998640836E+03  0.26998640836E+03  0.00000000000E+00 0.  1.
         21   -1    0    0  501  502 -0.00000000000E+00 -0.00000000000E+00 -0.18700710376E+03  0.18700710376E+03  0.00000000000E+00 0.  1.
      99926    2    1    2    0    0  0.00000000000E+00 -0.14210854715E-13  0.82979304593E+02  0.45699351212E+03  0.44939682367E+03 0.  0.
      99925    2    3    3    0    0 -0.47450765509E+02  0.91390705484E+02  0.87109675501E+02  0.29491820783E+03  0.26226859810E+03 0.  0.
         25    1    4    4    0    0 -0.59781368168E+02  0.63589926029E+02  0.38500929884E+02  0.15731281059E+03  0.12509000000E+03 0.  0.
         25    1    4    4    0    0  0.12330602659E+02  0.27800779454E+02  0.48608745616E+02  0.13760539724E+03  0.12509000000E+03 0.  0.
         25    1    3    3    0    0  0.47450765509E+02 -0.91390705484E+02 -0.41303709074E+01  0.16207530429E+03  0.12509000000E+03 0.  0.
<mgrwt>
<rscale>  2 0.44939682E+03</rscale>
<asrwt>0</asrwt>
<pdfrwt beam="1">  1       21 0.39703884E-01 0.44939682E+03</pdfrwt>
<pdfrwt beam="2">  1       21 0.27501045E-01 0.44939682E+03</pdfrwt>
<totfact> 0.71542550E+04</totfact>
</mgrwt>
</event>
<event>
 7    0  0.4748297E-002  0.4545178E+03  0.7546771E-02  0.1026383E+00
         21   -1    0    0  502  501  0.00000000000E+00  0.00000000000E+00  0.16575867343E+02  0.16575867343E+02  0.00000000000E+00 0.  1.
         21   -1    0    0  501  502 -0.00000000000E+00 -0.00000000000E+00 -0.31157711409E+04  0.31157711409E+04  0.00000000000E+00 0.  1.
      99926    2    1    2    0    0  0.14210854715E-13  0.17763568394E-14 -0.30991952736E+04  0.31323470083E+04  0.45451780649E+03 0.  0.
      99925    2    3    3    0    0  0.98183467681E+02 -0.93913424729E+01 -0.23271958772E+04  0.23440838753E+04  0.26298359849E+03 0.  0.
         25    1    3    3    0    0 -0.98183467681E+02  0.93913424729E+01 -0.77199939639E+03  0.78826313295E+03  0.12509000000E+03 0.  0.
         25    1    4    4    0    0  0.68586662447E+02 -0.41104378490E+02 -0.12200832690E+04  0.12290827440E+04  0.12509000000E+03 0.  0.
         25    1    4    4    0    0  0.29596805234E+02  0.31713036017E+02 -0.11071126081E+04  0.11150011313E+04  0.12509000000E+03 0.  0.
<mgrwt>
<rscale>  2 0.45451781E+03</rscale>
<asrwt>0</asrwt>
<pdfrwt beam="1">  1       21 0.24376317E-02 0.45451781E+03</pdfrwt>
<pdfrwt beam="2">  1       21 0.45820085E+00 0.45451781E+03</pdfrwt>
<totfact> 0.25854478E+03</totfact>
</mgrwt>
</event>
<event>
 7    0  0.4748297E-002  0.4496367E+03  0.7546771E-02  0.1027830E+00
         21   -1    0    0  502  501  0.00000000000E+00  0.00000000000E+00  0.23586760223E+02  0.23586760223E+02  0.00000000000E+00 0.  1.
         21   -1    0    0  501  502 -0.00000000000E+00 -0.00000000000E+00 -0.21428672837E+04  0.21428672837E+04  0.00000000000E+00 0.  1.
      99926    2    1    2    0    0  0.00000000000E+00  0.71054273576E-14 -0.21192805235E+04  0.21664540439E+04  0.44963672808E+03 0.  0.
      99925    2    3    3    0    0  0.92262324798E+02  0.47970167697E+02 -0.11986751665E+04  0.12315876337E+04  0.26300659904E+03 0.  0.
         25    1    4    4    0    0  0.15243219758E+02  0.47215516711E+02 -0.51337692324E+03  0.53072123961E+03  0.12509000000E+03 0.  0.
         25    1    3    3    0    0 -0.92262324798E+02 -0.47970167697E+02 -0.92060535700E+03  0.93486641024E+03  0.12509000000E+03 0.  0.
         25    1    4    4    0    0  0.77019105040E+02  0.75465098569E+00 -0.68529824325E+03  0.70086639407E+03  0.12509000000E+03 0.  0.
<mgrwt>
<rscale>  2 0.44963673E+03</rscale>
<asrwt>0</asrwt>
<pdfrwt beam="1">  1       21 0.34686399E-02 0.44963673E+03</pdfrwt>
<pdfrwt beam="2">  1       21 0.31512766E+00 0.44963673E+03</pdfrwt>
<totfact> 0.11655546E+04</totfact>
</mgrwt>
</event>
<event>
 7    0  0.4748297E-002  0.4560122E+03  0.7546771E-02  0.1025944E+00
         21   -1    0    0  502  501  0.00000000000E+00  0.00000000000E+00  0.46393064691E+02  0.46393064691E+02  0.00000000000E+00 0. -1.
         21   -1    0    0  501  502 -0.00000000000E+00 -0.00000000000E+00 -0.11205720640E+04  0.11205720640E+04  0.00000000000E+00 0. -1.
      99926    2    1    2    0    0  0.00000000000E+00  0.00000000000E+00 -0.10741789993E+04  0.11669651287E+04  0.45601215887E+03 0.  0.
      99925    2    3    3    0    0  0.11019575022E+03  0.10216839892E+02 -0.74640670250E+03  0.79909331157E+03  0.26302028034E+03 0.  0.
         25    1    3    3    0    0 -0.11019575022E+03 -0.10216839892E+02 -0.32777229685E+03  0.36787181717E+03  0.12509000000E+03 0.  0.
         25    1    4    4    0    0  0.79527805901E+02  0.18817817832E+02 -0.31234681574E+03  0.34624676689E+03  0.12509000000E+03 0.  0.
         25    1    4    4    0    0  0.30667944315E+02 -0.86009779401E+01 -0.43405988677E+03  0.45284654468E+03  0.12509000000E+03 0.  0.
<mgrwt>
<rscale>  2 0.45601216E+03</rscale>
<asrwt>0</asrwt>
<pdfrwt beam="1">  1       21 0.68225110E-02 0.45601216E+03</pdfrwt>
<pdfrwt beam="2">  1       21 0.16478997E+00 0.45601216E+03</pdfrwt>
<totfact> 0.32960238E+04</totfact>
</mgrwt>
</event>
<event>
 7    0  0.4748297E-002  0.4375643E+03  0.7546771E-02  0.1031497E+00
         21   -1    0    0  502  501  0.00000000000E+00  0.00000000000E+00  0.38107990435E+03  0.38107990435E+03  0.00000000000E+00 0. -1.
         21   -1    0    0  501  502 -0.00000000000E+00 -0.00000000000E+00 -0.12560522700E+03  0.12560522700E+03  0.00000000000E+00 0. -1.
      99926    2    1    2    0    0 -0.71054273576E-14  0.71054273576E-14  0.25547467735E+03  0.50668513135E+03  0.43756429421E+03 0.  0.
      99925    2    3    3    0    0  0.61067959720E+02 -0.45021730864E+02  0.95471813153E+02  0.28987951195E+03  0.26298101146E+03 0.  0.
         25    1    4    4    0    0  0.30352494457E+01 -0.24977733324E+02  0.77735299299E+02  0.14941012268E+03  0.12509000000E+03 0.  0.
         25    1    4    4    0    0  0.58032710274E+02 -0.20043997540E+02  0.17736513854E+02  0.14046938927E+03  0.12509000000E+03 0.  0.
         25    1    3    3    0    0 -0.61067959720E+02  0.45021730864E+02  0.16000286419E+03  0.21680561940E+03  0.12509000000E+03 0.  0.
<mgrwt>
<rscale>  2 0.43756429E+03</rscale>
<asrwt>0</asrwt>
<pdfrwt beam="1">  1       21 0.56041162E-01 0.43756429E+03</pdfrwt>
<pdfrwt beam="2">  1       21 0.18471357E-01 0.43756429E+03</pdfrwt>
<totfact> 0.74600692E+04</totfact>
</mgrwt>
</event>
<event>
 6    0  0.4748297E-002  0.4523596E+03  0.7546771E-02  0.1027021E+00
         21   -1    0    0  502  501  0.00000000000E+00  0.00000000000E+00  0.13831867603E+03  0.13831867603E+03  0.00000000000E+00 0. -1.
         21   -1    0    0  501  502 -0.00000000000E+00 -0.00000000000E+00 -0.36985106498E+03  0.36985106498E+03  0.00000000000E+00 0. -1.
      99926    2    1    2    0    0  0.00000000000E+00  0.00000000000E+00 -0.23153238895E+03  0.50816974100E+03  0.45235963407E+03 0.  0.
         25    1    3    3    0    0 -0.54907393330E+02 -0.65566726526E+01 -0.13807815229E+03  0.19434735922E+03  0.12509000000E+03 0.  0.
         25    1    3    3    0    0  0.95087000991E+01 -0.34977439697E+02 -0.11378840565E+03  0.17294260905E+03  0.12509000000E+03 0.  0.
         25    1    3    3    0    0  0.45398693231E+02  0.41534112349E+02  0.20334168985E+02  0.14087977273E+03  0.12509000000E+03 0.  0.
<mgrwt>
<rscale>  2 0.45235963E+03</rscale>
<asrwt>0</asrwt>
<pdfrwt beam="1">  1       21 0.20340982E-01 0.45235963E+03</pdfrwt>
<pdfrwt beam="2">  1       21 0.54389861E-01 0.45235963E+03</pdfrwt>
<totfact> 0.66074198E+04</totfact>
</mgrwt>
</event>
<event>
 7    0  0.4748297E-002  0.4591779E+03  0.7546771E-02  0.1025020E+00
         21   -1    0    0  502  501  0.00000000000E+00  0.00000000000E+00  0.53200486442E+03  0.53200486442E+03  0.00000000000E+00 0. -1.
         21   -1    0    0  501  502 -0.00000000000E+00 -0.00000000000E+00 -0.99080093312E+02  0.99080093312E+02  0.00000000000E+00 0. -1.
      99926    2    1    2    0    0  0.00000000000E+00  0.00000000000E+00  0.43292477110E+03  0.63108495773E+03  0.45917792459E+03 0.  0.
      99925    2    3    3    0    0  0.11269303111E+03  0.29568178457E+02  0.28657691171E+03  0.40605340330E+03  0.26301909355E+03 0.  0.
         25    1    4    4    0    0  0.74263488868E+02  0.85774114046E+01  0.98198174052E+02  0.17572429329E+03  0.12509000000E+03 0.  0.
         25    1    3    3    0    0 -0.11269303111E+03 -0.29568178457E+02  0.14634785940E+03  0.22503155443E+03  0.12509000000E+03 0.  0.
         25    1    4    4    0    0  0.38429542239E+02  0.20990767053E+02  0.18837873766E+03  0.23032911001E+03  0.12509000000E+03 0.  0.
<mgrwt>
<rscale>  2 0.45917792E+03</rscale>
<asrwt>0</asrwt>
<pdfrwt beam="1">  1       21 0.78236008E-01 0.45917792E+03</pdfrwt>
<pdfrwt beam="2">  1       21 0.14570602E-01 0.45917792E+03</pdfrwt>
<totfact> 0.54969090E+04</totfact>
</mgrwt>
</event>
<event>
 7    0  0.4748297E-002  0.4523232E+03  0.7546771E-02  0.1027031E+00
         21   -1    0    0  502  501  0.00000000000E+00  0.00000000000E+00  0.23592849315E+02  0.23592849315E+02  0.00000000000E+00 0. -1.
         21   -1    0    0  501  502 -0.00000000000E+00 -0.00000000000E+00 -0.21679908021E+04  0.21679908021E+04  0.00000000000E+00 0. -1.
      99926    2    1    2    0    0  0.00000000000E+00  0.00000000000E+00 -0.21443979528E+04  0.21915836514E+04  0.45232324862E+03 0.  0.
      99925    2    3    3    0    0  0.31284807377E+02  0.10460066557E+03 -0.12788539522E+04  0.13102585335E+04  0.26341973190E+03 0.  0.
         25    1    4    4    0    0 -0.99175663541E+01  0.16193031068E+02 -0.57074914000E+03  0.58460470516E+03  0.12509000000E+03 0.  0.
         25    1    3    3    0    0 -0.31284807377E+02 -0.10460066557E+03 -0.86554400060E+03  0.88132511792E+03  0.12509000000E+03 0.  0.
         25    1    4    4    0    0  0.41202373731E+02  0.88407634504E+02 -0.70810481221E+03  0.72565382836E+03  0.12509000000E+03 0.  0.
<mgrwt>
<rscale>  2 0.45232325E+03</rscale>
<asrwt>0</asrwt>
<pdfrwt beam="1">  1       21 0.34695359E-02 0.45232325E+03</pdfrwt>
<pdfrwt beam="2">  1       21 0.31882225E+00 0.45232325E+03</pdfrwt>
<totfact> 0.11054689E+04</totfact>
</mgrwt>
</event>
<event>
 7    0  0.4748297E-002  0.4522604E+03  0.7546771E-02  0.1027050E+00
         21   -1    0    0  502  501  0.00000000000E+00  0.00000000000E+00  0.83690307880E+02  0.83690307880E+02  0.00000000000E+00 0.  1.
         21   -1    0    0  501  502 -0.00000000000E+00 -0.00000000000E+00 -0.61100113168E+03  0.61100113168E+03  0.00000000000E+00 0.  1.
      99926    2    1    2    0    0  0.00000000000E+00 -0.14210854715E-13 -0.52731082380E+03  0.69469143956E+03  0.45226042420E+03 0.  0.
      99925    2    3    3    0    0 -0.16648931931E+02 -0.10384715479E+03 -0.28220942580E+03  0.40010083907E+03  0.26339533580E+03 0.  0.
         25    1    4    4    0    0  0.19855746628E+02 -0.82020981248E+02 -0.13745556310E+03  0.20411573179E+03  0.12509000000E+03 0.  0.
         25    1    4    4    0    0 -0.36504678560E+02 -0.21826173546E+02 -0.14475386270E+03  0.19598510728E+03  0.12509000000E+03 0.  0.
         25    1    3    3    0    0  0.16648931931E+02  0.10384715479E+03 -0.24510139800E+03  0.29459060049E+03  0.12509000000E+03 0.  0.
<mgrwt>
<rscale>  2 0.45226042E+03</rscale>
<asrwt>0</asrwt>
<pdfrwt beam="1">  1       21 0.12307398E-01 0.45226042E+03</pdfrwt>
<pdfrwt beam="2">  1       21 0.89853107E-01 0.45226042E+03</pdfrwt>
<totfact> 0.54354756E+04</totfact>
</mgrwt>
</event>
<event>
 7    0  0.4748297E-002  0.4607792E+03  0.7546771E-02  0.1024555E+00
         21   -1    0    0  502  501  0.00000000000E+00  0.00000000000E+00  0.40802627235E+03  0.40802627235E+03  0.00000000000E+00 0.  1.
         21   -1    0    0  501  502 -0.00000000000E+00 -0.00000000000E+00 -0.13008809192E+03  0.13008809192E+03  0.00000000000E+00 0.  1.
      99926    2    1    2    0    0  0.00000000000E+00  0.00000000000E+00  0.27793818043E+03  0.53811436427E+03  0.46077916282E+03 0.  0.
      99925    2    3    3    0    0  0.81978617627E+02  0.79024015418E+02  0.21223878380E+03  0.35665029736E+03  0.26303772448E+03 0.  0.
         25    1    4    4    0    0  0.11641640927E+02  0.64166217625E+01  0.93048787945E+02  0.15646816250E+03  0.12509000000E+03 0.  0.
         25    1    3    3    0    0 -0.81978617627E+02 -0.79024015418E+02  0.65699396629E+02  0.18146406691E+03  0.12509000000E+03 0.  0.
         25    1    4    4    0    0  0.70336976700E+02  0.72607393656E+02  0.11918999586E+03  0.20018213486E+03  0.12509000000E+03 0.  0.
<mgrwt>
<rscale>  2 0.46077916E+03</rscale>
<asrwt>0</asrwt>
<pdfrwt beam="1">  1       21 0.60003863E-01 0.46077916E+03</pdfrwt>
<pdfrwt beam="2">  1       21 0.19130602E-01 0.46077916E+03</pdfrwt>
<totfact> 0.59871051E+04</totfact>
</mgrwt>
</event>
<event>
 7    0  0.4748297E-002  0.4543400E+03  0.7546771E-02  0.1026436E+00
         21   -1    0    0  502  501  0.00000000000E+00  0.00000000000E+00  0.79734733179E+02  0.79734733179E+02  0.00000000000E+00 0.  1.
         21   -1    0    0  501  502 -0.00000000000E+00 -0.00000000000E+00 -0.64722375532E+03  0.64722375532E+03  0.00000000000E+00 0.  1.
      99926    2    1    2    0    0  0.00000000000E+00  0.00000000000E+00 -0.56748902214E+03  0.72695848850E+03  0.45434001998E+03 0.  0.
      99925    2    3    3    0    0  0.69326016223E+02  0.22600161116E+02 -0.22188708606E+03  0.35225184307E+03  0.26368659082E+03 0.  0.
         25    1    3    3    0    0 -0.69326016223E+02 -0.22600161116E+02 -0.34560193608E+03  0.37470664543E+03  0.12509000000E+03 0.  0.
         25    1    4    4    0    0  0.20891555562E+02  0.26829514300E+02 -0.15574102626E+03  0.20263034149E+03  0.12509000000E+03 0.  0.
         25    1    4    4    0    0  0.48434460661E+02 -0.42293531841E+01 -0.66146059800E+02  0.14962150158E+03  0.12509000000E+03 0.  0.
<mgrwt>
<rscale>  2 0.45434002E+03</rscale>
<asrwt>0</asrwt>
<pdfrwt beam="1">  1       21 0.11725696E-01 0.45434002E+03</pdfrwt>
<pdfrwt beam="2">  1       21 0.95179963E-01 0.45434002E+03</pdfrwt>
<totfact> 0.51731622E+04</totfact>
</mgrwt>
</event>
<event>
 7    0  0.4748297E-002  0.4588400E+03  0.7546771E-02  0.1025118E+00
         21   -1    0    0  502  501  0.00000000000E+00  0.00000000000E+00  0.57678783437E+03  0.57678783437E+03  0.00000000000E+00 0. -1.
         21   -1    0    0  501  502 -0.00000000000E+00 -0.00000000000E+00 -0.91252860151E+02  0.91252860151E+02  0.00000000000E+00 0. -1.
      99926    2    1    2    0    0  0.14210854715E-13 -0.35527136788E-14  0.48553497422E+03  0.66804069452E+03  0.45884001389E+03 0.  0.
      99925    2    3    3    0    0  0.94163733223E+02 -0.29477971925E+02  0.39551146830E+03  0.48504479511E+03  0.26287520275E+03 0.  0.
         25    1    4    4    0    0  0.73106826309E+02  0.77068315790E+01  0.16857647880E+03  0.22241749169E+03  0.12509000000E+03 0.  0.
         25    1    3    3    0    0 -0.94163733223E+02  0.29477971925E+02  0.90023505916E+02  0.18299589941E+03  0.12509000000E+03 0.  0.
         25    1    4    4    0    0  0.21056906914E+02 -0.37184803504E+02  0.22693498950E+03  0.26262730342E+03  0.12509000000E+03 0.  0.
<mgrwt>
<rscale>  2 0.45884001E+03</rscale>
<asrwt>0</asrwt>
<pdfrwt beam="1">  1       21 0.84821739E-01 0.45884001E+03</pdfrwt>
<pdfrwt beam="2">  1       21 0.13419539E-01 0.45884001E+03</pdfrwt>
<totfact> 0.53048379E+04</totfact>
</mgrwt>
</event>
<event>
 7    0  0.4748297E-002  0.4509311E+03  0.7546771E-02  0.1027445E+00
         21   -1    0    0  502  501  0.00000000000E+00  0.00000000000E+00  0.85117017751E+03  0.85117017751E+03  0.00000000000E+00 0.  1.
         21   -1    0    0  501  502 -0.00000000000E+00 -0.00000000000E+00 -0.59723337211E+02  0.59723337211E+02  0.00000000000E+00 0.  1.
      99926    2    1    2    0    0  0.00000000000E+00  0.00000000000E+00  0.79144684030E+03  0.91089351473E+03  0.45093114124E+03 0.  0.
      99925    2    3    3    0    0  0.55362631463E+01 -0.10773406672E+03  0.53600174146E+03  0.60669458973E+03  0.26295090611E+03 0.  0.
         25    1    3    3    0    0 -0.55362631463E+01  0.10773406672E+03  0.25544509884E+03  0.30419892499E+03  0.12509000000E+03 0.  0.
         25    1    4    4    0    0  0.24632806801E+01 -0.23560290140E+02  0.30862476054E+03  0.33385312031E+03  0.12509000000E+03 0.  0.
         25    1    4    4    0    0  0.30729824662E+01 -0.84173776583E+02  0.22737698092E+03  0.27284146943E+03  0.12509000000E+03 0.  0.
<mgrwt>
<rscale>  2 0.45093114E+03</rscale>
<asrwt>0</asrwt>
<pdfrwt beam="1">  1       21 0.12517208E+00 0.45093114E+03</pdfrwt>
<pdfrwt beam="2">  1       21 0.87828442E-02 0.45093114E+03</pdfrwt>
<totfact> 0.44155221E+04</totfact>
</mgrwt>
</event>
<event>
 7    0  0.4748297E-002  0.4476616E+03  0.7546771E-02  0.1028422E+00
         21   -1    0    0  502  501  0.00000000000E+00  0.00000000000E+00  0.14036716207E+03  0.14036716207E+03  0.00000000000E+00 0.  1.
         21   -1    0    0  501  502 -0.00000000000E+00 -0.00000000000E+00 -0.35692277726E+03  0.35692277726E+03  0.00000000000E+00 0.  1.
      99926    2    1    2    0    0  0.00000000000E+00 -0.14210854715E-13 -0.21655561519E+03  0.49728993933E+03  0.44766164599E+03 0.  0.
      99925    2    3    3    0    0  0.15802800816E+02 -0.88344387535E+02 -0.72869157452E+02  0.28670084759E+03  0.26236044400E+03 0.  0.
         25    1    4    4    0    0  0.21966464940E+02 -0.60587839714E+02 -0.72773815501E+02  0.15842016357E+03  0.12509000000E+03 0.  0.
         25    1    4    4    0    0 -0.61636641234E+01 -0.27756547821E+02 -0.95341950926E-01  0.12828068402E+03  0.12509000000E+03 0.  0.
         25    1    3    3    0    0 -0.15802800816E+02  0.88344387535E+02 -0.14368645773E+03  0.21058909174E+03  0.12509000000E+03 0.  0.
<mgrwt>
<rscale>  2 0.44766165E+03</rscale>
<asrwt>0</asrwt>
<pdfrwt beam="1">  1       21 0.20642230E-01 0.44766165E+03</pdfrwt>
<pdfrwt beam="2">  1       21 0.52488643E-01 0.44766165E+03</pdfrwt>
<totfact> 0.69417829E+04</totfact>
</mgrwt>
</event>
<event>
 7    0  0.4748297E-002  0.4582108E+03  0.7546771E-02  0.1025301E+00
         21   -1    0    0  502  501  0.00000000000E+00  0.00000000000E+00  0.10953402413E+03  0.10953402413E+03  0.00000000000E+00 0. -1.
         21   -1    0    0  501  502 -0.00000000000E+00 -0.00000000000E+00 -0.47920528458E+03  0.47920528458E+03  0.00000000000E+00 0. -1.
      99926    2    1    2    0    0  0.00000000000E+00  0.00000000000E+00 -0.36967126044E+03  0.58873930871E+03  0.45821079518E+03 0.  0.
      99925    2    3    3    0    0  0.10291123022E+03  0.52704145475E+02 -0.24633834460E+03  0.37843722958E+03  0.26298993984E+03 0.  0.
         25    1    4    4    0    0  0.88707072491E+02  0.29777239341E+02 -0.10754210366E+03  0.18965347572E+03  0.12509000000E+03 0.  0.
         25    1    4    4    0    0  0.14204157727E+02  0.22926906134E+02 -0.13879624094E+03  0.18878375386E+03  0.12509000000E+03 0.  0.
         25    1    3    3    0    0 -0.10291123022E+03 -0.52704145475E+02 -0.12333291584E+03  0.21030207913E+03  0.12509000000E+03 0.  0.
<mgrwt>
<rscale>  2 0.45821080E+03</rscale>
<asrwt>0</asrwt>
<pdfrwt beam="1">  1       21 0.16107945E-01 0.45821080E+03</pdfrwt>
<pdfrwt beam="2">  1       21 0.70471365E-01 0.45821080E+03</pdfrwt>
<totfact> 0.57893540E+04</totfact>
</mgrwt>
</event>
<event>
 7    0  0.4748297E-002  0.4480948E+03  0.7546771E-02  0.1028292E+00
         21   -1    0    0  502  501  0.00000000000E+00  0.00000000000E+00  0.13259743594E+03  0.13259743594E+03  0.00000000000E+00 0.  1.
         21   -1    0    0  501  502 -0.00000000000E+00 -0.00000000000E+00 -0.37856864521E+03  0.37856864521E+03  0.00000000000E+00 0.  1.
      99926    2    1    2    0    0  0.00000000000E+00  0.00000000000E+00 -0.24597120927E+03  0.51116608115E+03  0.44809477427E+03 0.  0.
      99925    2    3    3    0    0 -0.71266585138E+02  0.76940513549E+02 -0.17772980189E+03  0.33423907201E+03  0.26292414495E+03 0.  0.
         25    1    4    4    0    0 -0.70701825936E+01  0.56940686961E+02 -0.11343787896E+03  0.17834766552E+03  0.12509000000E+03 0.  0.
         25    1    4    4    0    0 -0.64196402545E+02  0.19999826588E+02 -0.64291922932E+02  0.15589140649E+03  0.12509000000E+03 0.  0.
         25    1    3    3    0    0  0.71266585138E+02 -0.76940513549E+02 -0.68241407387E+02  0.17692700914E+03  0.12509000000E+03 0.  0.
<mgrwt>
<rscale>  2 0.44809477E+03</rscale>
<asrwt>0</asrwt>
<pdfrwt beam="1">  1       21 0.19499623E-01 0.44809477E+03</pdfrwt>
<pdfrwt beam="2">  1       21 0.55671859E-01 0.44809477E+03</pdfrwt>
<totfact> 0.68151492E+04</totfact>
</mgrwt>
</event>
<event>
 7    0  0.4748297E-002  0.3902683E+03  0.7546771E-02  0.1047203E+00
         21   -1    0    0  502  501  0.00000000000E+00  0.00000000000E+00  0.15320641345E+03  0.15320641345E+03  0.00000000000E+00 0.  1.
         21   -1    0    0  501  502 -0.00000000000E+00 -0.00000000000E+00 -0.24853613163E+03  0.24853613163E+03  0.00000000000E+00 0.  1.
      99926    2    1    2    0    0  0.44408920985E-15  0.00000000000E+00 -0.95329718185E+02  0.40174254508E+03  0.39026826332E+03 0.  0.
      99925    2    3    3    0    0  0.20198754976E+01 -0.18998270056E+02 -0.64599160780E+02  0.27152392345E+03  0.26303455147E+03 0.  0.
         25    1    3    3    0    0 -0.20198754976E+01  0.18998270056E+02 -0.30730557406E+02  0.13021862164E+03  0.12509000000E+03 0.  0.
         25    1    4    4    0    0  0.62949938437E+01 -0.11966214365E+02 -0.73732153918E+02  0.14583125816E+03  0.12509000000E+03 0.  0.
         25    1    4    4    0    0 -0.42751183461E+01 -0.70320556907E+01  0.91329931382E+01  0.12569266529E+03  0.12509000000E+03 0.  0.
<mgrwt>
<rscale>  2 0.39026826E+03</rscale>
<asrwt>0</asrwt>
<pdfrwt beam="1">  1       21 0.22530355E-01 0.39026826E+03</pdfrwt>
<pdfrwt beam="2">  1       21 0.36549430E-01 0.39026826E+03</pdfrwt>
<totfact> 0.12626901E+05</totfact>
</mgrwt>
</event>
<event>
 7    0  0.4748297E-002  0.4521577E+03  0.7546771E-02  0.1027081E+00
         21   -1    0    0  502  501  0.00000000000E+00  0.00000000000E+00  0.41126865582E+03  0.41126865582E+03  0.00000000000E+00 0. -1.
         21   -1    0    0  501  502 -0.00000000000E+00 -0.00000000000E+00 -0.12427798454E+03  0.12427798454E+03  0.00000000000E+00 0. -1.
      99926    2    1    2    0    0  0.00000000000E+00 -0.71054273576E-14  0.28699067128E+03  0.53554664036E+03  0.45215767006E+03 0.  0.
      99925    2    3    3    0    0 -0.53018547273E+02 -0.51089963380E+02  0.83541801040E+02  0.28562644987E+03  0.26302487645E+03 0.  0.
         25    1    4    4    0    0 -0.37054482999E+02 -0.48214017795E+02  0.96079942879E+01  0.13941824800E+03  0.12509000000E+03 0.  0.
         25    1    4    4    0    0 -0.15964064273E+02 -0.28759455848E+01  0.73933806752E+02  0.14620820186E+03  0.12509000000E+03 0.  0.
         25    1    3    3    0    0  0.53018547273E+02  0.51089963380E+02  0.20344887024E+03  0.24992019049E+03  0.12509000000E+03 0.  0.
<mgrwt>
<rscale>  2 0.45215767E+03</rscale>
<asrwt>0</asrwt>
<pdfrwt beam="1">  1       21 0.60480684E-01 0.45215767E+03</pdfrwt>
<pdfrwt beam="2">  1       21 0.18276174E-01 0.45215767E+03</pdfrwt>
<totfact> 0.64265409E+04</totfact>
</mgrwt>
</event>
<event>
 7    0  0.4748297E-002  0.4452592E+03  0.7546771E-02  0.1029145E+00
         21   -1    0    0  502  501  0.00000000000E+00  0.00000000000E+00  0.21884386654E+04  0.21884386654E+04  0.00000000000E+00 0.  1.
         21   -1    0    0  501  502 -0.00000000000E+00 -0.00000000000E+00 -0.22648086942E+02  0.22648086942E+02  0.00000000000E+00 0.  1.
      99926    2    1    2    0    0  0.00000000000E+00  0.00000000000E+00  0.21657905785E+04  0.22110867523E+04  0.44525924656E+03 0.  0.
      99925    2    3    3    0    0  0.37215741334E+02 -0.96299200828E+02  0.14269747404E+04  0.14546775390E+04  0.26300434411E+03 0.  0.
         25    1    3    3    0    0 -0.37215741334E+02  0.96299200828E+02  0.73881583803E+03  0.75640921339E+03  0.12509000000E+03 0.  0.
         25    1    4    4    0    0  0.83888386956E+01 -0.22295052766E+02  0.82299776726E+03  0.83279065497E+03  0.12509000000E+03 0.  0.
         25    1    4    4    0    0  0.28826902638E+02 -0.74004148062E+02  0.60397697318E+03  0.62188688399E+03  0.12509000000E+03 0.  0.
<mgrwt>
<rscale>  2 0.44525925E+03</rscale>
<asrwt>0</asrwt>
<pdfrwt beam="1">  1       21 0.32182907E+00 0.44525925E+03</pdfrwt>
<pdfrwt beam="2">  1       21 0.33306025E-02 0.44525925E+03</pdfrwt>
<totfact> 0.11397921E+04</totfact>
</mgrwt>
</event>
<event>
 7    0  0.4748297E-002  0.4516638E+03  0.7546771E-02  0.1027227E+00
         21   -1    0    0  502  501  0.00000000000E+00  0.00000000000E+00  0.10031787875E+03  0.10031787875E+03  0.00000000000E+00 0.  1.
         21   -1    0    0  501  502 -0.00000000000E+00 -0.00000000000E+00 -0.50838444598E+03  0.50838444598E+03  0.00000000000E+00 0.  1.
      99926    2    1    2    0    0  0.00000000000E+00  0.14210854715E-13 -0.40806656723E+03  0.60870232473E+03  0.45166380952E+03 0.  0.
      99925    2    3    3    0    0 -0.56471456510E+02  0.84328647841E+02 -0.20026040142E+03  0.34577408947E+03  0.26297366089E+03 0.  0.
         25    1    4    4    0    0 -0.49684138739E+01  0.83016840060E+01 -0.73531975739E+02  0.14542373482E+03  0.12509000000E+03 0.  0.
         25    1    4    4    0    0 -0.51503042636E+02  0.76026963835E+02 -0.12672842569E+03  0.20035035465E+03  0.12509000000E+03 0.  0.
         25    1    3    3    0    0  0.56471456510E+02 -0.84328647841E+02 -0.20780616581E+03  0.26292823526E+03  0.12509000000E+03 0.  0.
<mgrwt>
<rscale>  2 0.45166381E+03</rscale>
<asrwt>0</asrwt>
<pdfrwt beam="1">  1       21 0.14752629E-01 0.45166381E+03</pdfrwt>
<pdfrwt beam="2">  1       21 0.74762420E-01 0.45166381E+03</pdfrwt>
<totfact> 0.59703665E+04</totfact>
</mgrwt>
</event>
<event>
 7    0  0.4748297E-002  0.4535388E+03  0.7546771E-02  0.1026672E+00
         21   -1    0    0  502  501  0.00000000000E+00  0.00000000000E+00  0.18885424469E+03  0.18885424469E+03  0.00000000000E+00 0.  1.
         21   -1    0    0  501  502 -0.00000000000E+00 -0.00000000000E+00 -0.27229659840E+03  0.27229659840E+03  0.00000000000E+00 0.  1.
      99926    2    1    2    0    0 -0.35527136788E-14  0.14210854715E-13 -0.83442353713E+02  0.46115084309E+03  0.45353883371E+03 0.  0.
      99925    2    3    3    0    0 -0.19889983569E+02  0.89046586302E+02 -0.11741726540E+03  0.30263677840E+03  0.26358546897E+03 0.  0.
         25    1    4    4    0    0  0.85303953112E+01  0.83265920952E+02 -0.64736095485E+02  0.16384215390E+03  0.12509000000E+03 0.  0.
         25    1    3    3    0    0  0.19889983569E+02 -0.89046586302E+02  0.33974911682E+02  0.15851406468E+03  0.12509000000E+03 0.  0.
         25    1    4    4    0    0 -0.28420378880E+02  0.57806653505E+01 -0.52681169911E+02  0.13879462450E+03  0.12509000000E+03 0.  0.
<mgrwt>
<rscale>  2 0.45353883E+03</rscale>
<asrwt>0</asrwt>
<pdfrwt beam="1">  1       21 0.27772683E-01 0.45353883E+03</pdfrwt>
<pdfrwt beam="2">  1       21 0.40043617E-01 0.45353883E+03</pdfrwt>
<totfact> 0.68893573E+04</totfact>
</mgrwt>
</event>
<event>
 7    0  0.4748297E-002  0.4649667E+03  0.7546771E-02  0.1023351E+00
         21   -1    0    0  502  501  0.00000000000E+00  0.00000000000E+00  0.26484351440E+03  0.26484351440E+03  0.00000000000E+00 0. -1.
         21   -1    0    0  501  502 -0.00000000000E+00 -0.00000000000E+00 -0.20407715566E+03  0.20407715566E+03  0.00000000000E+00 0. -1.
      99926    2    1    2    0    0  0.00000000000E+00  0.71054273576E-14  0.60766358744E+02  0.46892067006E+03  0.46496671328E+03 0.  0.
      99925    2    3    3    0    0 -0.97285150531E+02 -0.55040420096E+02  0.87913926924E+02  0.29898436754E+03  0.26299989568E+03 0.  0.
         25    1    4    4    0    0 -0.47174228691E+02 -0.97726705252E+01  0.44103370287E+01  0.13411887307E+03  0.12509000000E+03 0.  0.
         25    1    3    3    0    0  0.97285150531E+02  0.55040420096E+02 -0.27147568180E+02  0.16993630253E+03  0.12509000000E+03 0.  0.
         25    1    4    4    0    0 -0.50110921839E+02 -0.45267749571E+02  0.83503589895E+02  0.16486549446E+03  0.12509000000E+03 0.  0.
<mgrwt>
<rscale>  2 0.46496671E+03</rscale>
<asrwt>0</asrwt>
<pdfrwt beam="1">  1       21 0.38947576E-01 0.46496671E+03</pdfrwt>
<pdfrwt beam="2">  1       21 0.30011346E-01 0.46496671E+03</pdfrwt>
<totfact> 0.62424090E+04</totfact>
</mgrwt>
</event>
<event>
 7    0  0.4748297E-002  0.4533413E+03  0.7546771E-02  0.1026730E+00
         21   -1    0    0  502  501  0.00000000000E+00  0.00000000000E+00  0.13942479050E+03  0.13942479050E+03  0.00000000000E+00 0.  1.
         21   -1    0    0  501  502 -0.00000000000E+00 -0.00000000000E+00 -0.36851113376E+03  0.36851113376E+03  0.00000000000E+00 0.  1.
      99926    2    1    2    0    0 -0.17763568394E-14  0.00000000000E+00 -0.22908634326E+03  0.50793592426E+03  0.45334131787E+03 0.  0.
      99925    2    3    3    0    0  0.11931115069E+02 -0.91492682652E+02 -0.21469973937E+03  0.35183421076E+03  0.26301724524E+03 0.  0.
         25    1    4    4    0    0  0.44041695472E+02 -0.53626636647E+02 -0.94989582680E+02  0.17171492660E+03  0.12509000000E+03 0.  0.
         25    1    4    4    0    0 -0.32110580402E+02 -0.37866046005E+02 -0.11971015669E+03  0.18011928417E+03  0.12509000000E+03 0.  0.
         25    1    3    3    0    0 -0.11931115069E+02  0.91492682652E+02 -0.14386603891E+02  0.15610171350E+03  0.12509000000E+03 0.  0.
<mgrwt>
<rscale>  2 0.45334132E+03</rscale>
<asrwt>0</asrwt>
<pdfrwt beam="1">  1       21 0.20503646E-01 0.45334132E+03</pdfrwt>
<pdfrwt beam="2">  1       21 0.54192813E-01 0.45334132E+03</pdfrwt>
<totfact> 0.65575665E+04</totfact>
</mgrwt>
</event>
<event>
 7    0  0.4748297E-002  0.4506881E+03  0.7546771E-02  0.1027517E+00
         21   -1    0    0  502  501  0.00000000000E+00  0.00000000000E+00  0.58833148458E+03  0.58833148458E+03  0.00000000000E+00 0. -1.
         21   -1    0    0  501  502 -0.00000000000E+00 -0.00000000000E+00 -0.86311799163E+02  0.86311799163E+02  0.00000000000E+00 0. -1.
      99926    2    1    2    0    0  0.71054273576E-14  0.00000000000E+00  0.50201968542E+03  0.67464328375E+03  0.45068813580E+03 0.  0.
      99925    2    3    3    0    0 -0.48815674759E+02  0.97003223025E+02  0.33373603632E+03  0.43850880928E+03  0.26290233642E+03 0.  0.
         25    1    3    3    0    0  0.48815674759E+02 -0.97003223025E+02  0.16828364910E+03  0.23613447447E+03  0.12509000000E+03 0.  0.
         25    1    4    4    0    0 -0.22391092452E+02  0.22608205938E+02  0.20585479105E+03  0.24297365103E+03  0.12509000000E+03 0.  0.
         25    1    4    4    0    0 -0.26424582307E+02  0.74395017087E+02  0.12788124527E+03  0.19553515824E+03  0.12509000000E+03 0.  0.
<mgrwt>
<rscale>  2 0.45068814E+03</rscale>
<asrwt>0</asrwt>
<pdfrwt beam="1">  1       21 0.86519334E-01 0.45068814E+03</pdfrwt>
<pdfrwt beam="2">  1       21 0.12692912E-01 0.45068814E+03</pdfrwt>
<totfact> 0.56185855E+04</totfact>
</mgrwt>
</event>
<event>
 7    0  0.4748297E-002  0.4517069E+03  0.7546771E-02  0.1027214E+00
         21   -1    0    0  502  501  0.00000000000E+00  0.00000000000E+00  0.28969529466E+03  0.28969529466E+03  0.00000000000E+00 0.  1.
         21   -1    0    0  501  502 -0.00000000000E+00 -0.00000000000E+00 -0.17608079742E+03  0.17608079742E+03  0.00000000000E+00 0.  1.
      99926    2    1    2    0    0  0.00000000000E+00  0.71054273576E-14  0.11361449725E+03  0.46577609208E+03  0.45170688944E+03 0.  0.
      99925    2    3    3    0    0 -0.89879098511E+02 -0.44301223887E+02  0.24747475366E+02  0.28251205724E+03  0.26298245980E+03 0.  0.
         25    1    3    3    0    0  0.89879098511E+02  0.44301223887E+02  0.88867021880E+02  0.18326403484E+03  0.12509000000E+03 0.  0.
         25    1    4    4    0    0 -0.20580046807E+02 -0.52813481699E+02  0.22998323491E+02  0.13924522670E+03  0.12509000000E+03 0.  0.
         25    1    4    4    0    0 -0.69299051704E+02  0.85122578117E+01  0.17491518754E+01  0.14326683054E+03  0.12509000000E+03 0.  0.
<mgrwt>
<rscale>  2 0.45170689E+03</rscale>
<asrwt>0</asrwt>
<pdfrwt beam="1">  1       21 0.42602249E-01 0.45170689E+03</pdfrwt>
<pdfrwt beam="2">  1       21 0.25894235E-01 0.45170689E+03</pdfrwt>
<totfact> 0.69550391E+04</totfact>
</mgrwt>
</event>
<event>
 7    0  0.4748297E-002  0.4253472E+03  0.7546771E-02  0.1035340E+00
         21   -1    0    0  502  501  0.00000000000E+00  0.00000000000E+00  0.30241037627E+03  0.30241037627E+03  0.00000000000E+00 0.  1.
         21   -1    0    0  501  502 -0.00000000000E+00 -0.00000000000E+00 -0.14956515692E+03  0.14956515692E+03  0.00000000000E+00 0.  1.
      99926    2    1    2    0    0  0.17763568394E-14  0.71054273576E-14  0.15284521936E+03  0.45197553319E+03  0.42534717764E+03 0.  0.
      99925    2    3    3    0    0  0.15703989112E+02  0.45309267582E+02  0.17011774439E+03  0.31690002385E+03  0.26303238043E+03 0.  0.
         25    1    4    4    0    0 -0.27673781921E+00 -0.12757944349E+02  0.10376167613E+03  0.16302403277E+03  0.12509000000E+03 0.  0.
         25    1    4    4    0    0  0.15980726931E+02  0.58067211931E+02  0.66356068263E+02  0.15387599108E+03  0.12509000000E+03 0.  0.
         25    1    3    3    0    0 -0.15703989112E+02 -0.45309267582E+02 -0.17272525038E+02  0.13507550934E+03  0.12509000000E+03 0.  0.
<mgrwt>
<rscale>  2 0.42534718E+03</rscale>
<asrwt>0</asrwt>
<pdfrwt beam="1">  1       21 0.44472114E-01 0.42534718E+03</pdfrwt>
<pdfrwt beam="2">  1       21 0.21994876E-01 0.42534718E+03</pdfrwt>
<totfact> 0.87684703E+04</totfact>
</mgrwt>
</event>
<event>
 7    0  0.4748297E-002  0.4401641E+03  0.7546771E-02  0.1030696E+00
         21   -1    0    0  502  501  0.00000000000E+00  0.00000000000E+00  0.52492725447E+03  0.52492725447E+03  0.00000000000E+00 0. -1.
         21   -1    0    0  501  502 -0.00000000000E+00 -0.00000000000E+00 -0.92272034734E+02  0.92272034734E+02  0.00000000000E+00 0. -1.
      99926    2    1    2    0    0 -0.71054273576E-14 -0.88817841970E-15  0.43265521973E+03  0.61719928920E+03  0.44016408694E+03 0.  0.
      99925    2    3    3    0    0 -0.41973384103E+02  0.36220193497E+01  0.40111344621E+03  0.48148902587E+03  0.26299201756E+03 0.  0.
         25    1    4    4    0    0 -0.57732782636E+02  0.17754928901E+02  0.19391718037E+03  0.23853656456E+03  0.12509000000E+03 0.  0.
         25    1    3    3    0    0  0.41973384103E+02 -0.36220193497E+01  0.31541773521E+02  0.13571026333E+03  0.12509000000E+03 0.  0.
         25    1    4    4    0    0  0.15759398533E+02 -0.14132909552E+02  0.20719626584E+03  0.24295246131E+03  0.12509000000E+03 0.  0.
<mgrwt>
<rscale>  2 0.44016409E+03</rscale>
<asrwt>0</asrwt>
<pdfrwt beam="1">  1       21 0.77195183E-01 0.44016409E+03</pdfrwt>
<pdfrwt beam="2">  1       21 0.13569417E-01 0.44016409E+03</pdfrwt>
<totfact> 0.64908286E+04</totfact>
</mgrwt>
</event>
<event>
 7    0  0.4748297E-002  0.4532864E+03  0.7546771E-02  0.1026747E+00
         21   -1    0    0  502  501  0.00000000000E+00  0.00000000000E+00  0.66824091661E+02  0.66824091661E+02  0.00000000000E+00 0.  1.
         21   -1    0    0  501  502 -0.00000000000E+00 -0.00000000000E+00 -0.76869181214E+03  0.76869181214E+03  0.00000000000E+00 0.  1.
      99926    2    1    2    0    0  0.71054273576E-14  0.14210854715E-13 -0.70186772047E+03  0.83551590380E+03  0.45328636473E+03 0.  0.
      99925    2    3    3    0    0  0.50285810328E+02  0.73497229411E+02 -0.31874311183E+03  0.42276600458E+03  0.26306542502E+03 0.  0.
         25    1    4    4    0    0  0.20272269175E+02  0.29068600133E+02 -0.95536465187E+02  0.16134023891E+03  0.12509000000E+03 0.  0.
         25    1    4    4    0    0  0.30013541152E+02  0.44428629279E+02 -0.22320664664E+03  0.26142576567E+03  0.12509000000E+03 0.  0.
         25    1    3    3    0    0 -0.50285810328E+02 -0.73497229411E+02 -0.38312460864E+03  0.41274989921E+03  0.12509000000E+03 0.  0.
<mgrwt>
<rscale>  2 0.45328636E+03</rscale>
<asrwt>0</asrwt>
<pdfrwt beam="1">  1       21 0.98270725E-02 0.45328636E+03</pdfrwt>
<pdfrwt beam="2">  1       21 0.11304291E+00 0.45328636E+03</pdfrwt>
<totfact> 0.46719381E+04</totfact>
</mgrwt>
</event>
<event>
 7    0  0.4748297E-002  0.4495185E+03  0.7546771E-02  0.1027866E+00
         21   -1    0    0  502  501  0.00000000000E+00  0.00000000000E+00  0.23781354351E+03  0.23781354351E+03  0.00000000000E+00 0. -1.
         21   -1    0    0  501  502 -0.00000000000E+00 -0.00000000000E+00 -0.21242155442E+03  0.21242155442E+03  0.00000000000E+00 0. -1.
      99926    2    1    2    0    0  0.00000000000E+00  0.35527136788E-14  0.25391989087E+02  0.45023509793E+03  0.44951850941E+03 0.  0.
      99925    2    3    3    0    0  0.70797022809E+02  0.12986654179E+02  0.96721362782E+02  0.28924982135E+03  0.26292501879E+03 0.  0.
         25    1    3    3    0    0 -0.70797022809E+02 -0.12986654179E+02 -0.71329373695E+02  0.16098527658E+03  0.12509000000E+03 0.  0.
         25    1    4    4    0    0  0.55643916175E+02 -0.17969918539E+02  0.22900088070E+02  0.13996815893E+03  0.12509000000E+03 0.  0.
         25    1    4    4    0    0  0.15153106634E+02  0.30956572718E+02  0.73821274712E+02  0.14928166242E+03  0.12509000000E+03 0.  0.
<mgrwt>
<rscale>  2 0.44951851E+03</rscale>
<asrwt>0</asrwt>
<pdfrwt beam="1">  1       21 0.34972580E-01 0.44951851E+03</pdfrwt>
<pdfrwt beam="2">  1       21 0.31238464E-01 0.44951851E+03</pdfrwt>
<totfact> 0.71993884E+04</totfact>
</mgrwt>
</event>
<event>
 7    0  0.4748297E-002  0.4475836E+03  0.7546771E-02  0.1028445E+00
         21   -1    0    0  502  501  0.00000000000E+00  0.00000000000E+00  0.66308714497E+03  0.66308714497E+03  0.00000000000E+00 0. -1.
         21   -1    0    0  501  502 -0.00000000000E+00 -0.00000000000E+00 -0.75529697162E+02  0.75529697162E+02  0.00000000000E+00 0. -1.
      99926    2    1    2    0    0  0.00000000000E+00  0.00000000000E+00  0.58755744781E+03  0.73861684213E+03  0.44758360672E+03 0.  0.
      99925    2    3    3    0    0  0.71879831960E+02  0.20417667012E+02  0.24800702541E+03  0.36912314960E+03  0.26298445496E+03 0.  0.
         25    1    4    4    0    0  0.71260287565E+02  0.17628142112E+02  0.10470727936E+03  0.17888516548E+03  0.12509000000E+03 0.  0.
         25    1    4    4    0    0  0.61954439563E+00  0.27895249004E+01  0.14329974605E+03  0.19023798412E+03  0.12509000000E+03 0.  0.
         25    1    3    3    0    0 -0.71879831960E+02 -0.20417667012E+02  0.33955042240E+03  0.36949369253E+03  0.12509000000E+03 0.  0.
<mgrwt>
<rscale>  2 0.44758361E+03</rscale>
<asrwt>0</asrwt>
<pdfrwt beam="1">  1       21 0.97512813E-01 0.44758361E+03</pdfrwt>
<pdfrwt beam="2">  1       21 0.11107309E-01 0.44758361E+03</pdfrwt>
<totfact> 0.53932399E+04</totfact>
</mgrwt>
</event>
<event>
 7    0  0.4748297E-002  0.4363346E+03  0.7546771E-02  0.1031877E+00
         21   -1    0    0  502  501  0.00000000000E+00  0.00000000000E+00  0.33871921896E+02  0.33871921896E+02  0.00000000000E+00 0. -1.
         21   -1    0    0  501  502 -0.00000000000E+00 -0.00000000000E+00 -0.14052043980E+04  0.14052043980E+04  0.00000000000E+00 0. -1.
      99926    2    1    2    0    0  0.00000000000E+00 -0.35527136788E-14 -0.13713324761E+04  0.14390763199E+04  0.43633461296E+03 0.  0.
      99925    2    3    3    0    0 -0.77729741418E+02  0.18449188470E+02 -0.10455229659E+04  0.10810516974E+04  0.26300611214E+03 0.  0.
         25    1    4    4    0    0 -0.61842064902E+02 -0.23776989468E+02 -0.56596504714E+03  0.58339843066E+03  0.12509000000E+03 0.  0.
         25    1    3    3    0    0  0.77729741418E+02 -0.18449188470E+02 -0.32580951018E+03  0.35802462245E+03  0.12509000000E+03 0.  0.
         25    1    4    4    0    0 -0.15887676516E+02  0.42226177938E+02 -0.47955791877E+03  0.49765326676E+03  0.12509000000E+03 0.  0.
<mgrwt>
<rscale>  2 0.43633461E+03</rscale>
<asrwt>0</asrwt>
<pdfrwt beam="1">  1       21 0.49811648E-02 0.43633461E+03</pdfrwt>
<pdfrwt beam="2">  1       21 0.20664771E+00 0.43633461E+03</pdfrwt>
<totfact> 0.29339049E+04</totfact>
</mgrwt>
</event>
<event>
 7    0  0.4748297E-002  0.4529852E+03  0.7546771E-02  0.1026836E+00
         21   -1    0    0  502  501  0.00000000000E+00  0.00000000000E+00  0.31330883928E+04  0.31330883928E+04  0.00000000000E+00 0.  1.
         21   -1    0    0  501  502 -0.00000000000E+00 -0.00000000000E+00 -0.16373267172E+02  0.16373267172E+02  0.00000000000E+00 0.  1.
      99926    2    1    2    0    0  0.00000000000E+00  0.00000000000E+00  0.31167151256E+04  0.31494616600E+04  0.45298518002E+03 0.  0.
      99925    2    3    3    0    0 -0.97245131933E+02 -0.43779037333E+02  0.17430245747E+04  0.17659709814E+04  0.26295554656E+03 0.  0.
         25    1    4    4    0    0 -0.22916431300E+02 -0.32304568511E+02  0.63834681589E+03  0.65169234569E+03  0.12509000000E+03 0.  0.
         25    1    3    3    0    0  0.97245131933E+02  0.43779037333E+02  0.13736905509E+04  0.13834906786E+04  0.12509000000E+03 0.  0.
         25    1    4    4    0    0 -0.74328700633E+02 -0.11474468822E+02  0.11046777588E+04  0.11142786357E+04  0.12509000000E+03 0.  0.
<mgrwt>
<rscale>  2 0.45298518E+03</rscale>
<asrwt>0</asrwt>
<pdfrwt beam="1">  1       21 0.46074788E+00 0.45298518E+03</pdfrwt>
<pdfrwt beam="2">  1       21 0.24078356E-02 0.45298518E+03</pdfrwt>
<totfact> 0.25374931E+03</totfact>
</mgrwt>
</event>
<event>
 7    0  0.4748297E-002  0.4470908E+03  0.7546771E-02  0.1028593E+00
         21   -1    0    0  502  501  0.00000000000E+00  0.00000000000E+00  0.31259920264E+02  0.31259920264E+02  0.00000000000E+00 0.  1.
         21   -1    0    0  501  502 -0.00000000000E+00 -0.00000000000E+00 -0.15986140990E+04  0.15986140990E+04  0.00000000000E+00 0.  1.
      99926    2    1    2    0    0  0.00000000000E+00  0.00000000000E+00 -0.15673541787E+04  0.16298740192E+04  0.44709081523E+03 0.  0.
      99925    2    3    3    0    0  0.12442766016E+02 -0.40526371452E+02 -0.13460513880E+04  0.13721539337E+04  0.26297313442E+03 0.  0.
         25    1    4    4    0    0  0.10599909781E+01 -0.28800960650E+02 -0.47603492165E+03  0.49303891697E+03  0.12509000000E+03 0.  0.
         25    1    4    4    0    0  0.11382775038E+02 -0.11725410801E+02 -0.87001646638E+03  0.87911501676E+03  0.12509000000E+03 0.  0.
         25    1    3    3    0    0 -0.12442766016E+02  0.40526371452E+02 -0.22130279066E+03  0.25772008548E+03  0.12509000000E+03 0.  0.
<mgrwt>
<rscale>  2 0.44709082E+03</rscale>
<asrwt>0</asrwt>
<pdfrwt beam="1">  1       21 0.45970462E-02 0.44709082E+03</pdfrwt>
<pdfrwt beam="2">  1       21 0.23509035E+00 0.44709082E+03</pdfrwt>
<totfact> 0.22088731E+04</totfact>
</mgrwt>
</event>
<event>
 7    0  0.4748297E-002  0.4531754E+03  0.7546771E-02  0.1026779E+00
         21   -1    0    0  502  501  0.00000000000E+00  0.00000000000E+00  0.30007600225E+02  0.30007600225E+02  0.00000000000E+00 0. -1.
         21   -1    0    0  501  502 -0.00000000000E+00 -0.00000000000E+00 -0.17109659835E+04  0.17109659835E+04  0.00000000000E+00 0. -1.
      99926    2    1    2    0    0  0.14210854715E-13  0.00000000000E+00 -0.16809583833E+04  0.17409735837E+04  0.45317538870E+03 0.  0.
      99925    2    3    3    0    0 -0.96577627998E+02  0.33058492927E+02 -0.88708277853E+03  0.93084638007E+03  0.26294300741E+03 0.  0.
         25    1    4    4    0    0 -0.72616461125E+01  0.86974236733E+01 -0.43211796697E+03  0.45000202462E+03  0.12509000000E+03 0.  0.
         25    1    4    4    0    0 -0.89315981886E+02  0.24361069253E+02 -0.45496481156E+03  0.48084435545E+03  0.12509000000E+03 0.  0.
         25    1    3    3    0    0  0.96577627998E+02 -0.33058492927E+02 -0.79387560473E+03  0.81012720363E+03  0.12509000000E+03 0.  0.
<mgrwt>
<rscale>  2 0.45317539E+03</rscale>
<asrwt>0</asrwt>
<pdfrwt beam="1">  1       21 0.44128822E-02 0.45317539E+03</pdfrwt>
<pdfrwt beam="2">  1       21 0.25161266E+00 0.45317539E+03</pdfrwt>
<totfact> 0.18684996E+04</totfact>
</mgrwt>
</event>
<event>
 7    0  0.4748297E-002  0.4458294E+03  0.7546771E-02  0.1028973E+00
         21   -1    0    0  502  501  0.00000000000E+00  0.00000000000E+00  0.11715849397E+04  0.11715849397E+04  0.00000000000E+00 0. -1.
         21   -1    0    0  501  502 -0.00000000000E+00 -0.00000000000E+00 -0.42413455175E+02  0.42413455175E+02  0.00000000000E+00 0. -1.
      99926    2    1    2    0    0  0.14210854715E-13  0.00000000000E+00  0.11291714845E+04  0.12139983948E+04  0.44582940828E+03 0.  0.
      99925    2    3    3    0    0 -0.92853317017E+02 -0.43721499117E+02  0.76733616896E+03  0.81763289227E+03  0.26303125737E+03 0.  0.
         25    1    4    4    0    0 -0.88971249491E+02 -0.28003965548E+02  0.43856963219E+03  0.46550073652E+03  0.12509000000E+03 0.  0.
         25    1    3    3    0    0  0.92853317017E+02  0.43721499117E+02  0.36183531552E+03  0.39636550257E+03  0.12509000000E+03 0.  0.
         25    1    4    4    0    0 -0.38820675261E+01 -0.15717533570E+02  0.32876653677E+03  0.35213215575E+03  0.12509000000E+03 0.  0.
<mgrwt>
<rscale>  2 0.44582941E+03</rscale>
<asrwt>0</asrwt>
<pdfrwt beam="1">  1       21 0.17229188E+00 0.44582941E+03</pdfrwt>
<pdfrwt beam="2">  1       21 0.62372736E-02 0.44582941E+03</pdfrwt>
<totfact> 0.34085771E+04</totfact>
</mgrwt>
</event>
<event>
 7    0  0.4748297E-002  0.4541861E+03  0.7546771E-02  0.1026481E+00
         21   -1    0    0  502  501  0.00000000000E+00  0.00000000000E+00  0.75226987437E+03  0.75226987437E+03  0.00000000000E+00 0. -1.
         21   -1    0    0  501  502 -0.00000000000E+00 -0.00000000000E+00 -0.68554191846E+02  0.68554191846E+02  0.00000000000E+00 0. -1.
      99926    2    1    2    0    0  0.00000000000E+00  0.00000000000E+00  0.68371568253E+03  0.82082406622E+03  0.45418609969E+03 0.  0.
      99925    2    3    3    0    0  0.10487322514E+03  0.14179366384E+02  0.36397387427E+03  0.46154453739E+03  0.26333805473E+03 0.  0.
         25    1    3    3    0    0 -0.10487322514E+03 -0.14179366384E+02  0.31974180826E+03  0.35927952882E+03  0.12509000000E+03 0.  0.
         25    1    4    4    0    0  0.47287012867E+02 -0.31840200381E+02  0.15635469174E+03  0.20819259755E+03  0.12509000000E+03 0.  0.
         25    1    4    4    0    0  0.57586212273E+02  0.46019566766E+02  0.20761918252E+03  0.25335193984E+03  0.12509000000E+03 0.  0.
<mgrwt>
<rscale>  2 0.45418610E+03</rscale>
<asrwt>0</asrwt>
<pdfrwt beam="1">  1       21 0.11062792E+00 0.45418610E+03</pdfrwt>
<pdfrwt beam="2">  1       21 0.10081499E-01 0.45418610E+03</pdfrwt>
<totfact> 0.47073932E+04</totfact>
</mgrwt>
</event>
<event>
 7    0  0.4748297E-002  0.4554830E+03  0.7546771E-02  0.1026099E+00
         21   -1    0    0  502  501  0.00000000000E+00  0.00000000000E+00  0.70694033749E+03  0.70694033749E+03  0.00000000000E+00 0.  1.
         21   -1    0    0  501  502 -0.00000000000E+00 -0.00000000000E+00 -0.73367152799E+02  0.73367152799E+02  0.00000000000E+00 0.  1.
      99926    2    1    2    0    0  0.00000000000E+00 -0.15543122345E-14  0.63357318469E+03  0.78030749029E+03  0.45548303925E+03 0.  0.
      99925    2    3    3    0    0 -0.11354544497E+03  0.10108377329E+00  0.39055717535E+03  0.48433981099E+03  0.26297826337E+03 0.  0.
         25    1    4    4    0    0 -0.60424263576E+02  0.29054189302E+02  0.24477516686E+03  0.28294456693E+03  0.12509000000E+03 0.  0.
         25    1    3    3    0    0  0.11354544497E+03 -0.10108377329E+00  0.24301600934E+03  0.29596767929E+03  0.12509000000E+03 0.  0.
         25    1    4    4    0    0 -0.53121181389E+02 -0.28953105528E+02  0.14578200849E+03  0.20139524406E+03  0.12509000000E+03 0.  0.
<mgrwt>
<rscale>  2 0.45548304E+03</rscale>
<asrwt>0</asrwt>
<pdfrwt beam="1">  1       21 0.10396181E+00 0.45548304E+03</pdfrwt>
<pdfrwt beam="2">  1       21 0.10789288E-01 0.45548304E+03</pdfrwt>
<totfact> 0.48547774E+04</totfact>
</mgrwt>
</event>
<event>
 7    0  0.4748297E-002  0.4528108E+03  0.7546771E-02  0.1026887E+00
         21   -1    0    0  502  501  0.00000000000E+00  0.00000000000E+00  0.10989550722E+04  0.10989550722E+04  0.00000000000E+00 0.  1.
         21   -1    0    0  501  502 -0.00000000000E+00 -0.00000000000E+00 -0.46643758509E+02  0.46643758509E+02  0.00000000000E+00 0.  1.
      99926    2    1    2    0    0 -0.17763568394E-14  0.00000000000E+00  0.10523113137E+04  0.11455988307E+04  0.45281075517E+03 0.  0.
      99925    2    3    3    0    0  0.13916373403E+02  0.99666616989E+02  0.54555588683E+03  0.61402035979E+03  0.26317803212E+03 0.  0.
         25    1    4    4    0    0  0.34904748586E+02  0.81737316441E+02  0.30917806823E+03  0.34516360809E+03  0.12509000000E+03 0.  0.
         25    1    3    3    0    0 -0.13916373403E+02 -0.99666616989E+02  0.50675542687E+03  0.53157847093E+03  0.12509000000E+03 0.  0.
         25    1    4    4    0    0 -0.20988375184E+02  0.17929300548E+02  0.23637781860E+03  0.26885675170E+03  0.12509000000E+03 0.  0.
<mgrwt>
<rscale>  2 0.45281076E+03</rscale>
<asrwt>0</asrwt>
<pdfrwt beam="1">  1       21 0.16161102E+00 0.45281076E+03</pdfrwt>
<pdfrwt beam="2">  1       21 0.68593770E-02 0.45281076E+03</pdfrwt>
<totfact> 0.34514832E+04</totfact>
</mgrwt>
</event>
<event>
 7    0  0.4748297E-002  0.4587444E+03  0.7546771E-02  0.1025146E+00
         21   -1    0    0  502  501  0.00000000000E+00  0.00000000000E+00  0.79540049330E+02  0.79540049330E+02  0.00000000000E+00 0.  1.
         21   -1    0    0  501  502 -0.00000000000E+00 -0.00000000000E+00 -0.66144800929E+03  0.66144800929E+03  0.00000000000E+00 0.  1.
      99926    2    1    2    0    0  0.00000000000E+00 -0.14210854715E-13 -0.58190795996E+03  0.74098805862E+03  0.45874440504E+03 0.  0.
      99925    2    3    3    0    0  0.70315446615E+02 -0.90897337776E+02 -0.33157328327E+03  0.43846277620E+03  0.26287292727E+03 0.  0.
         25    1    4    4    0    0  0.18235760299E+02 -0.12580270236E+02 -0.11570614465E+03  0.17183197072E+03  0.12509000000E+03 0.  0.
         25    1    4    4    0    0  0.52079686316E+02 -0.78317067539E+02 -0.21586713862E+03  0.26663080548E+03  0.12509000000E+03 0.  0.
         25    1    3    3    0    0 -0.70315446615E+02  0.90897337776E+02 -0.25033467669E+03  0.30252528242E+03  0.12509000000E+03 0.  0.
<mgrwt>
<rscale>  2 0.45874441E+03</rscale>
<asrwt>0</asrwt>
<pdfrwt beam="1">  1       21 0.11697066E-01 0.45874441E+03</pdfrwt>
<pdfrwt beam="2">  1       21 0.97271768E-01 0.45874441E+03</pdfrwt>
<totfact> 0.49267101E+04</totfact>
</mgrwt>
</event>
<event>
 7    0  0.4748297E-002  0.4546029E+03  0.7546771E-02  0.1026358E+00
         21   -1    0    0  502  501  0.00000000000E+00  0.00000000000E+00  0.31454858435E+03  0.31454858435E+03  0.00000000000E+00 0. -1.
         21   -1    0    0  501  502 -0.00000000000E+00 -0.00000000000E+00 -0.16425429575E+03  0.16425429575E+03  0.00000000000E+00 0. -1.
      99926    2    1    2    0    0  0.17763568394E-14 -0.35527136788E-14  0.15029428859E+03  0.47880288010E+03  0.45460293093E+03 0.  0.
      99925    2    3    3    0    0  0.93332342706E+01 -0.21342581208E+02  0.21086091496E+03  0.33788290507E+03  0.26298273146E+03 0.  0.
         25    1    4    4    0    0 -0.11255145746E+02 -0.25411054570E+02  0.14974778967E+03  0.19708959539E+03  0.12509000000E+03 0.  0.
         25    1    4    4    0    0  0.20588380016E+02  0.40684733618E+01  0.61113125292E+02  0.14079330968E+03  0.12509000000E+03 0.  0.
         25    1    3    3    0    0 -0.93332342706E+01  0.21342581208E+02 -0.60566626366E+02  0.14091997504E+03  0.12509000000E+03 0.  0.
<mgrwt>
<rscale>  2 0.45460293E+03</rscale>
<asrwt>0</asrwt>
<pdfrwt beam="1">  1       21 0.46257145E-01 0.45460293E+03</pdfrwt>
<pdfrwt beam="2">  1       21 0.24155043E-01 0.45460293E+03</pdfrwt>
<totfact> 0.66998244E+04</totfact>
</mgrwt>
</event>
<event>
 7    0  0.4748297E-002  0.4618099E+03  0.7546771E-02  0.1024258E+00
         21   -1    0    0  502  501  0.00000000000E+00  0.00000000000E+00  0.15271779753E+03  0.15271779753E+03  0.00000000000E+00 0. -1.
         21   -1    0    0  501  502 -0.00000000000E+00 -0.00000000000E+00 -0.34912168589E+03  0.34912168589E+03  0.00000000000E+00 0. -1.
      99926    2    1    2    0    0  0.00000000000E+00  0.00000000000E+00 -0.19640388836E+03  0.50183948342E+03  0.46180989569E+03 0.  0.
      99925    2    3    3    0    0 -0.19872248687E+02  0.90352822214E+02 -0.41685699252E+02  0.28242260875E+03  0.26356459106E+03 0.  0.
         25    1    3    3    0    0  0.19872248687E+02 -0.90352822214E+02 -0.15471818911E+03  0.21941687468E+03  0.12509000000E+03 0.  0.
         25    1    4    4    0    0  0.25348032075E+02  0.52570287187E+02 -0.11816151904E+00  0.13803506760E+03  0.12509000000E+03 0.  0.
         25    1    4    4    0    0 -0.45220280762E+02  0.37782535027E+02 -0.41567537733E+02  0.14438754115E+03  0.12509000000E+03 0.  0.
<mgrwt>
<rscale>  2 0.46180990E+03</rscale>
<asrwt>0</asrwt>
<pdfrwt beam="1">  1       21 0.22458500E-01 0.46180990E+03</pdfrwt>
<pdfrwt beam="2">  1       21 0.51341424E-01 0.46180990E+03</pdfrwt>
<totfact> 0.61736138E+04</totfact>
</mgrwt>
</event>
<event>
 7    0  0.4748297E-002  0.4482931E+03  0.7546771E-02  0.1028232E+00
         21   -1    0    0  502  501  0.00000000000E+00  0.00000000000E+00  0.25117319932E+03  0.25117319932E+03  0.00000000000E+00 0. -1.
         21   -1    0    0  501  502 -0.00000000000E+00 -0.00000000000E+00 -0.20002805572E+03  0.20002805572E+03  0.00000000000E+00 0. -1.
      99926    2    1    2    0    0 -0.14210854715E-13  0.00000000000E+00  0.51145143608E+02  0.45120125504E+03  0.44829314833E+03 0.  0.
      99925    2    3    3    0    0  0.66197169157E+02 -0.48387514224E+02  0.10115523544E+03  0.29349287187E+03  0.26302522207E+03 0.  0.
         25    1    4    4    0    0  0.65160907885E+02 -0.44961528883E+02  0.35760289367E+02  0.15229507343E+03  0.12509000000E+03 0.  0.
         25    1    4    4    0    0  0.10362612723E+01 -0.34259853414E+01  0.65394946069E+02  0.14119779844E+03  0.12509000000E+03 0.  0.
         25    1    3    3    0    0 -0.66197169157E+02  0.48387514224E+02 -0.50010091828E+02  0.15770838317E+03  0.12509000000E+03 0.  0.
<mgrwt>
<rscale>  2 0.44829315E+03</rscale>
<asrwt>0</asrwt>
<pdfrwt beam="1">  1       21 0.36937235E-01 0.44829315E+03</pdfrwt>
<pdfrwt beam="2">  1       21 0.29415890E-01 0.44829315E+03</pdfrwt>
<totfact> 0.72634470E+04</totfact>
</mgrwt>
</event>
<event>
 7    0  0.4748297E-002  0.4623071E+03  0.7546771E-02  0.1024114E+00
         21   -1    0    0  502  501  0.00000000000E+00  0.00000000000E+00  0.53326798765E+02  0.53326798765E+02  0.00000000000E+00 0.  1.
         21   -1    0    0  501  502 -0.00000000000E+00 -0.00000000000E+00 -0.10019722268E+04  0.10019722268E+04  0.00000000000E+00 0.  1.
      99926    2    1    2    0    0  0.00000000000E+00  0.71054273576E-14 -0.94864542803E+03  0.10552990256E+04  0.46230713300E+03 0.  0.
      99925    2    3    3    0    0 -0.46369142978E+02  0.40848684482E+02 -0.82746951868E+03  0.87050232226E+03  0.26315352224E+03 0.  0.
         25    1    4    4    0    0 -0.24611297009E+01  0.38441733054E+02 -0.31395902696E+03  0.34014938293E+03  0.12509000000E+03 0.  0.
         25    1    3    3    0    0  0.46369142978E+02 -0.40848684482E+02 -0.12117590935E+03  0.18479670330E+03  0.12509000000E+03 0.  0.
         25    1    4    4    0    0 -0.43908013277E+02  0.24069514282E+01 -0.51351049173E+03  0.53035293933E+03  0.12509000000E+03 0.  0.
<mgrwt>
<rscale>  2 0.46230713E+03</rscale>
<asrwt>0</asrwt>
<pdfrwt beam="1">  1       21 0.78421775E-02 0.46230713E+03</pdfrwt>
<pdfrwt beam="2">  1       21 0.14734883E+00 0.46230713E+03</pdfrwt>
<totfact> 0.35041995E+04</totfact>
</mgrwt>
</event>
<event>
 7    0  0.4748297E-002  0.4587411E+03  0.7546771E-02  0.1025147E+00
         21   -1    0    0  502  501  0.00000000000E+00  0.00000000000E+00  0.15918109150E+03  0.15918109150E+03  0.00000000000E+00 0. -1.
         21   -1    0    0  501  502 -0.00000000000E+00 -0.00000000000E+00 -0.33050940329E+03  0.33050940329E+03  0.00000000000E+00 0. -1.
      99926    2    1    2    0    0  0.00000000000E+00 -0.14210854715E-13 -0.17132831179E+03  0.48969049479E+03  0.45874109284E+03 0.  0.
      99925    2    3    3    0    0  0.72242235418E+02  0.83352232613E+02 -0.66894489162E+02  0.29291532697E+03  0.26297905018E+03 0.  0.
         25    1    4    4    0    0  0.46499893537E+02  0.19305864613E+02  0.73912639971E+00  0.13484439519E+03  0.12509000000E+03 0.  0.
         25    1    4    4    0    0  0.25742341881E+02  0.64046368001E+02 -0.67633615561E+02  0.15807093178E+03  0.12509000000E+03 0.  0.
         25    1    3    3    0    0 -0.72242235418E+02 -0.83352232613E+02 -0.10443382263E+03  0.19677516781E+03  0.12509000000E+03 0.  0.
<mgrwt>
<rscale>  2 0.45874109E+03</rscale>
<asrwt>0</asrwt>
<pdfrwt beam="1">  1       21 0.23408984E-01 0.45874109E+03</pdfrwt>
<pdfrwt beam="2">  1       21 0.48604324E-01 0.45874109E+03</pdfrwt>
<totfact> 0.64076917E+04</totfact>
</mgrwt>
</event>
<event>
 7    0  0.4748297E-002  0.4421148E+03  0.7546771E-02  0.1030100E+00
         21   -1    0    0  502  501  0.00000000000E+00  0.00000000000E+00  0.11434506408E+03  0.11434506408E+03  0.00000000000E+00 0.  1.
         21   -1    0    0  501  502 -0.00000000000E+00 -0.00000000000E+00 -0.42735885680E+03  0.42735885680E+03  0.00000000000E+00 0.  1.
      99926    2    1    2    0    0 -0.17763568394E-14  0.00000000000E+00 -0.31301379272E+03  0.54170392089E+03  0.44211480802E+03 0.  0.
      99925    2    3    3    0    0 -0.70502663053E+01  0.97311294717E+02 -0.22932048577E+03  0.36234040156E+03  0.26302754054E+03 0.  0.
         25    1    4    4    0    0 -0.23519084282E+02  0.40734148617E+02 -0.68253216683E+02  0.15006141368E+03  0.12509000000E+03 0.  0.
         25    1    3    3    0    0  0.70502663053E+01 -0.97311294717E+02 -0.83693306957E+02  0.17936351932E+03  0.12509000000E+03 0.  0.
         25    1    4    4    0    0  0.16468817977E+02  0.56577146100E+02 -0.16106726908E+03  0.21227898788E+03  0.12509000000E+03 0.  0.
<mgrwt>
<rscale>  2 0.44211481E+03</rscale>
<asrwt>0</asrwt>
<pdfrwt beam="1">  1       21 0.16815451E-01 0.44211481E+03</pdfrwt>
<pdfrwt beam="2">  1       21 0.62846891E-01 0.44211481E+03</pdfrwt>
<totfact> 0.69209751E+04</totfact>
</mgrwt>
</event>
<event>
 7    0  0.4748297E-002  0.4566467E+03  0.7546771E-02  0.1025758E+00
         21   -1    0    0  502  501  0.00000000000E+00  0.00000000000E+00  0.10104879093E+04  0.10104879093E+04  0.00000000000E+00 0.  1.
         21   -1    0    0  501  502 -0.00000000000E+00 -0.00000000000E+00 -0.51590467707E+02  0.51590467707E+02  0.00000000000E+00 0.  1.
      99926    2    1    2    0    0  0.00000000000E+00  0.00000000000E+00  0.95889744154E+03  0.10620783770E+04  0.45664666363E+03 0.  0.
      99925    2    3    3    0    0  0.10342111860E+03 -0.49223006123E+02  0.61733655449E+03  0.68072528628E+03  0.26298985108E+03 0.  0.
         25    1    4    4    0    0  0.17766621811E+02 -0.19993577404E+00  0.24281827728E+03  0.27372233505E+03  0.12509000000E+03 0.  0.
         25    1    4    4    0    0  0.85654496785E+02 -0.49023070349E+02  0.37451827721E+03  0.40700295123E+03  0.12509000000E+03 0.  0.
         25    1    3    3    0    0 -0.10342111860E+03  0.49223006123E+02  0.34156088706E+03  0.38135309068E+03  0.12509000000E+03 0.  0.
<mgrwt>
<rscale>  2 0.45664666E+03</rscale>
<asrwt>0</asrwt>
<pdfrwt beam="1">  1       21 0.14860115E+00 0.45664666E+03</pdfrwt>
<pdfrwt beam="2">  1       21 0.75868341E-02 0.45664666E+03</pdfrwt>
<totfact> 0.36367685E+04</totfact>
</mgrwt>
</event>
<event>
 7    0  0.4748297E-002  0.4520185E+03  0.7546771E-02  0.1027122E+00
         21   -1    0    0  502  501  0.00000000000E+00  0.00000000000E+00  0.16097046981E+03  0.16097046981E+03  0.00000000000E+00 0.  1.
         21   -1    0    0  501  502 -0.00000000000E+00 -0.00000000000E+00 -0.31732643022E+03  0.31732643022E+03  0.00000000000E+00 0.  1.
      99926    2    1    2    0    0  0.14210854715E-13  0.00000000000E+00 -0.15635596042E+03  0.47829690003E+03  0.45201851535E+03 0.  0.
      99925    2    3    3    0    0 -0.57537084916E+02  0.69207909827E+02 -0.16618762735E+03  0.32388051263E+03  0.26302092703E+03 0.  0.
         25    1    4    4    0    0 -0.86940224041E+01  0.50799488363E+02 -0.46506572644E+02  0.14306132756E+03  0.12509000000E+03 0.  0.
         25    1    4    4    0    0 -0.48843062512E+02  0.18408421464E+02 -0.11968105470E+03  0.18081918507E+03  0.12509000000E+03 0.  0.
         25    1    3    3    0    0  0.57537084916E+02 -0.69207909827E+02  0.98316669298E+01  0.15441638740E+03  0.12509000000E+03 0.  0.
<mgrwt>
<rscale>  2 0.45201852E+03</rscale>
<asrwt>0</asrwt>
<pdfrwt beam="1">  1       21 0.23672128E-01 0.45201852E+03</pdfrwt>
<pdfrwt beam="2">  1       21 0.46665651E-01 0.45201852E+03</pdfrwt>
<totfact> 0.68429405E+04</totfact>
</mgrwt>
</event>
<event>
 7    0  0.4748297E-002  0.4523426E+03  0.7546771E-02  0.1027026E+00
         21   -1    0    0  502  501  0.00000000000E+00  0.00000000000E+00  0.57214220238E+03  0.57214220238E+03  0.00000000000E+00 0.  1.
         21   -1    0    0  501  502 -0.00000000000E+00 -0.00000000000E+00 -0.89406894228E+02  0.89406894228E+02  0.00000000000E+00 0.  1.
      99926    2    1    2    0    0  0.17763568394E-14  0.00000000000E+00  0.48273530815E+03  0.66154909661E+03  0.45234260189E+03 0.  0.
      99925    2    3    3    0    0 -0.13830313750E+02  0.23080357642E+02  0.14768844738E+03  0.30290179423E+03  0.26308485128E+03 0.  0.
         25    1    4    4    0    0 -0.21402042645E+02  0.15475128373E+01  0.11580452711E+03  0.17180989152E+03  0.12509000000E+03 0.  0.
         25    1    3    3    0    0  0.13830313750E+02 -0.23080357642E+02  0.33504686078E+03  0.35864730238E+03  0.12509000000E+03 0.  0.
         25    1    4    4    0    0  0.75717288945E+01  0.21532844805E+02  0.31883920264E+02  0.13109190271E+03  0.12509000000E+03 0.  0.
<mgrwt>
<rscale>  2 0.45234260E+03</rscale>
<asrwt>0</asrwt>
<pdfrwt beam="1">  1       21 0.84138557E-01 0.45234260E+03</pdfrwt>
<pdfrwt beam="2">  1       21 0.13148073E-01 0.45234260E+03</pdfrwt>
<totfact> 0.56208960E+04</totfact>
</mgrwt>
</event>
<event>
 7    0  0.4748297E-002  0.4737551E+03  0.7546771E-02  0.1020866E+00
         21   -1    0    0  502  501  0.00000000000E+00  0.00000000000E+00  0.10337801912E+03  0.10337801912E+03  0.00000000000E+00 0. -1.
         21   -1    0    0  501  502 -0.00000000000E+00 -0.00000000000E+00 -0.54277477747E+03  0.54277477747E+03  0.00000000000E+00 0. -1.
      99926    2    1    2    0    0 -0.14210854715E-13  0.00000000000E+00 -0.43939675835E+03  0.64615279659E+03  0.47375513220E+03 0.  0.
      99925    2    3    3    0    0 -0.10167414996E+03  0.34616869823E+02 -0.37189793252E+03  0.46799679743E+03  0.26301515118E+03 0.  0.
         25    1    4    4    0    0 -0.65028531963E+02  0.95127489078E+01 -0.25302556260E+03  0.28980794639E+03  0.12509000000E+03 0.  0.
         25    1    3    3    0    0  0.10167414996E+03 -0.34616869823E+02 -0.67498825832E+02  0.17815599916E+03  0.12509000000E+03 0.  0.
         25    1    4    4    0    0 -0.36645617999E+02  0.25104120915E+02 -0.11887236991E+03  0.17818885104E+03  0.12509000000E+03 0.  0.
<mgrwt>
<rscale>  2 0.47375513E+03</rscale>
<asrwt>0</asrwt>
<pdfrwt beam="1">  1       21 0.15202650E-01 0.47375513E+03</pdfrwt>
<pdfrwt beam="2">  1       21 0.79819818E-01 0.47375513E+03</pdfrwt>
<totfact> 0.48359138E+04</totfact>
</mgrwt>
</event>
<event>
 7    0  0.4748297E-002  0.4561849E+03  0.7546771E-02  0.1025894E+00
         21   -1    0    0  502  501  0.00000000000E+00  0.00000000000E+00  0.79750867463E+03  0.79750867463E+03  0.00000000000E+00 0. -1.
         21   -1    0    0  501  502 -0.00000000000E+00 -0.00000000000E+00 -0.65235862509E+02  0.65235862509E+02  0.00000000000E+00 0. -1.
      99926    2    1    2    0    0  0.00000000000E+00  0.14210854715E-13  0.73227281212E+03  0.86274453714E+03  0.45618490220E+03 0.  0.
      99925    2    3    3    0    0  0.44698839389E+02  0.91005776673E+02  0.36055408032E+03  0.45764904062E+03  0.26298928098E+03 0.  0.
         25    1    4    4    0    0 -0.99918007147E+01  0.18120731205E+02  0.15178934706E+03  0.19777692221E+03  0.12509000000E+03 0.  0.
         25    1    4    4    0    0  0.54690640104E+02  0.72885045468E+02  0.20876473326E+03  0.25987211840E+03  0.12509000000E+03 0.  0.
         25    1    3    3    0    0 -0.44698839389E+02 -0.91005776673E+02  0.37171873180E+03  0.40509549653E+03  0.12509000000E+03 0.  0.
<mgrwt>
<rscale>  2 0.45618490E+03</rscale>
<asrwt>0</asrwt>
<pdfrwt beam="1">  1       21 0.11728068E+00 0.45618490E+03</pdfrwt>
<pdfrwt beam="2">  1       21 0.95935097E-02 0.45618490E+03</pdfrwt>
<totfact> 0.44459859E+04</totfact>
</mgrwt>
</event>
<event>
 7    0  0.4748297E-002  0.4560172E+03  0.7546771E-02  0.1025943E+00
         21   -1    0    0  502  501  0.00000000000E+00  0.00000000000E+00  0.38923442307E+03  0.38923442307E+03  0.00000000000E+00 0. -1.
         21   -1    0    0  501  502 -0.00000000000E+00 -0.00000000000E+00 -0.13356454645E+03  0.13356454645E+03  0.00000000000E+00 0. -1.
      99926    2    1    2    0    0 -0.71054273576E-14  0.17763568394E-14  0.25566987662E+03  0.52279896952E+03  0.45601718906E+03 0.  0.
      99925    2    3    3    0    0 -0.42854687156E+02  0.96377117391E+01  0.28149724289E+03  0.38772872613E+03  0.26298946293E+03 0.  0.
         25    1    4    4    0    0 -0.40451783097E+02  0.40739093374E+02  0.14071721248E+03  0.19683714709E+03  0.12509000000E+03 0.  0.
         25    1    3    3    0    0  0.42854687156E+02 -0.96377117391E+01 -0.25827366279E+02  0.13507024338E+03  0.12509000000E+03 0.  0.
         25    1    4    4    0    0 -0.24029040597E+01 -0.31101381635E+02  0.14078003041E+03  0.19089157905E+03  0.12509000000E+03 0.  0.
<mgrwt>
<rscale>  2 0.45601719E+03</rscale>
<asrwt>0</asrwt>
<pdfrwt beam="1">  1       21 0.57240356E-01 0.45601719E+03</pdfrwt>
<pdfrwt beam="2">  1       21 0.19641845E-01 0.45601719E+03</pdfrwt>
<totfact> 0.63185480E+04</totfact>
</mgrwt>
</event>
<event>
 7    0  0.4748297E-002  0.4655473E+03  0.7546771E-02  0.1023185E+00
         21   -1    0    0  502  501  0.00000000000E+00  0.00000000000E+00  0.14362719389E+03  0.14362719389E+03  0.00000000000E+00 0.  1.
         21   -1    0    0  501  502 -0.00000000000E+00 -0.00000000000E+00 -0.37725148047E+03  0.37725148047E+03  0.00000000000E+00 0.  1.
      99926    2    1    2    0    0  0.00000000000E+00  0.00000000000E+00 -0.23362428658E+03  0.52087867436E+03  0.46554729740E+03 0.  0.
      99925    2    3    3    0    0 -0.10559405499E+03  0.41595166912E+02 -0.19783467512E+03  0.34822680861E+03  0.26314081628E+03 0.  0.
         25    1    4    4    0    0 -0.87693901367E+02  0.45676474121E+02 -0.98272354727E+02  0.18730062581E+03  0.12509000000E+03 0.  0.
         25    1    4    4    0    0 -0.17900153618E+02 -0.40813072090E+01 -0.99562320392E+02  0.16092618280E+03  0.12509000000E+03 0.  0.
         25    1    3    3    0    0  0.10559405499E+03 -0.41595166912E+02 -0.35789611464E+02  0.17265186575E+03  0.12509000000E+03 0.  0.
<mgrwt>
<rscale>  2 0.46554730E+03</rscale>
<asrwt>0</asrwt>
<pdfrwt beam="1">  1       21 0.21121646E-01 0.46554730E+03</pdfrwt>
<pdfrwt beam="2">  1       21 0.55478158E-01 0.46554730E+03</pdfrwt>
<totfact> 0.58753926E+04</totfact>
</mgrwt>
</event>
<event>
 7    0  0.4748297E-002  0.4554143E+03  0.7546771E-02  0.1026120E+00
         21   -1    0    0  502  501  0.00000000000E+00  0.00000000000E+00  0.53117637544E+02  0.53117637544E+02  0.00000000000E+00 0.  1.
         21   -1    0    0  501  502 -0.00000000000E+00 -0.00000000000E+00 -0.97614552195E+03  0.97614552195E+03  0.00000000000E+00 0.  1.
      99926    2    1    2    0    0  0.88817841970E-15  0.00000000000E+00 -0.92302788440E+03  0.10292631595E+04  0.45541429062E+03 0.  0.
      99925    2    3    3    0    0 -0.78935870093E+01 -0.10612184723E+03 -0.49094041766E+03  0.56701729181E+03  0.26298661628E+03 0.  0.
         25    1    4    4    0    0 -0.40725865879E+02 -0.71503616756E+02 -0.25199860228E+03  0.29312483179E+03  0.12509000000E+03 0.  0.
         25    1    3    3    0    0  0.78935870093E+01  0.10612184723E+03 -0.43208746674E+03  0.46224586768E+03  0.12509000000E+03 0.  0.
         25    1    4    4    0    0  0.32832278870E+02 -0.34618230473E+02 -0.23894181538E+03  0.27389246002E+03  0.12509000000E+03 0.  0.
<mgrwt>
<rscale>  2 0.45541429E+03</rscale>
<asrwt>0</asrwt>
<pdfrwt beam="1">  1       21 0.78114186E-02 0.45541429E+03</pdfrwt>
<pdfrwt beam="2">  1       21 0.14355079E+00 0.45541429E+03</pdfrwt>
<totfact> 0.37924808E+04</totfact>
</mgrwt>
</event>
<event>
 7    0  0.4748297E-002  0.4488441E+03  0.7546771E-02  0.1028067E+00
         21   -1    0    0  502  501  0.00000000000E+00  0.00000000000E+00  0.60321237542E+02  0.60321237542E+02  0.00000000000E+00 0.  1.
         21   -1    0    0  501  502 -0.00000000000E+00 -0.00000000000E+00 -0.83495068673E+03  0.83495068673E+03  0.00000000000E+00 0.  1.
      99926    2    1    2    0    0 -0.14210854715E-13  0.00000000000E+00 -0.77462944919E+03  0.89527192428E+03  0.44884410973E+03 0.  0.
      99925    2    3    3    0    0 -0.83254537944E+02 -0.41678782025E+02 -0.59655154241E+03  0.65857023873E+03  0.26300680147E+03 0.  0.
         25    1    4    4    0    0 -0.40583165703E+02 -0.49648898924E+02 -0.37483645917E+03  0.40032722331E+03  0.12509000000E+03 0.  0.
         25    1    3    3    0    0  0.83254537944E+02  0.41678782025E+02 -0.17807790678E+03  0.23670168555E+03  0.12509000000E+03 0.  0.
         25    1    4    4    0    0 -0.42671372241E+02  0.79701168986E+01 -0.22171508325E+03  0.25824301542E+03  0.12509000000E+03 0.  0.
<mgrwt>
<rscale>  2 0.44884411E+03</rscale>
<asrwt>0</asrwt>
<pdfrwt beam="1">  1       21 0.88707702E-02 0.44884411E+03</pdfrwt>
<pdfrwt beam="2">  1       21 0.12278687E+00 0.44884411E+03</pdfrwt>
<totfact> 0.45596958E+04</totfact>
</mgrwt>
</event>
<event>
 7    0  0.4748297E-002  0.4520657E+03  0.7546771E-02  0.1027108E+00
         21   -1    0    0  502  501  0.00000000000E+00  0.00000000000E+00  0.43799418516E+02  0.43799418516E+02  0.00000000000E+00 0.  1.
         21   -1    0    0  501  502 -0.00000000000E+00 -0.00000000000E+00 -0.11664730892E+04  0.11664730892E+04  0.00000000000E+00 0.  1.
      99926    2    1    2    0    0  0.44408920985E-15  0.00000000000E+00 -0.11226736707E+04  0.12102725077E+04  0.45206567231E+03 0.  0.
      99925    2    3    3    0    0 -0.21004979670E+01  0.48380977514E+02 -0.97395963418E+03  0.10100014318E+04  0.26298363491E+03 0.  0.
         25    1    3    3    0    0  0.21004979670E+01 -0.48380977514E+02 -0.14871403649E+03  0.20027107586E+03  0.12509000000E+03 0.  0.
         25    1    4    4    0    0  0.27365894890E+02  0.51776910023E+02 -0.46717789570E+03  0.48716776878E+03  0.12509000000E+03 0.  0.
         25    1    4    4    0    0 -0.29466392857E+02 -0.33959325087E+01 -0.50678173849E+03  0.52283366306E+03  0.12509000000E+03 0.  0.
<mgrwt>
<rscale>  2 0.45206567E+03</rscale>
<asrwt>0</asrwt>
<pdfrwt beam="1">  1       21 0.64410913E-02 0.45206567E+03</pdfrwt>
<pdfrwt beam="2">  1       21 0.17154015E+00 0.45206567E+03</pdfrwt>
<totfact> 0.32570133E+04</totfact>
</mgrwt>
</event>
<event>
 7    0  0.4748297E-002  0.4521798E+03  0.7546771E-02  0.1027074E+00
         21   -1    0    0  502  501  0.00000000000E+00  0.00000000000E+00  0.28716966769E+03  0.28716966769E+03  0.00000000000E+00 0.  1.
         21   -1    0    0  501  502 -0.00000000000E+00 -0.00000000000E+00 -0.17800156719E+03  0.17800156719E+03  0.00000000000E+00 0.  1.
      99926    2    1    2    0    0  0.00000000000E+00  0.00000000000E+00  0.10916810050E+03  0.46517123488E+03  0.45217983546E+03 0.  0.
      99925    2    3    3    0    0 -0.43960300740E+02 -0.35645072609E+02  0.16645697877E+03  0.31640093235E+03  0.26305616314E+03 0.  0.
         25    1    4    4    0    0 -0.44887664976E+02 -0.20192065154E+02  0.12540911137E+03  0.18384116861E+03  0.12509000000E+03 0.  0.
         25    1    4    4    0    0  0.92736423631E+00 -0.15453007455E+02  0.41047867405E+02  0.13255976374E+03  0.12509000000E+03 0.  0.
         25    1    3    3    0    0  0.43960300740E+02  0.35645072609E+02 -0.57288878270E+02  0.14877030253E+03  0.12509000000E+03 0.  0.
<mgrwt>
<rscale>  2 0.45217984E+03</rscale>
<asrwt>0</asrwt>
<pdfrwt beam="1">  1       21 0.42230834E-01 0.45217984E+03</pdfrwt>
<pdfrwt beam="2">  1       21 0.26176701E-01 0.45217984E+03</pdfrwt>
<totfact> 0.69334814E+04</totfact>
</mgrwt>
</event>
<event>
 7    0  0.4748297E-002  0.4444245E+03  0.7546771E-02  0.1029398E+00
         21   -1    0    0  502  501  0.00000000000E+00  0.00000000000E+00  0.77419908352E+02  0.77419908352E+02  0.00000000000E+00 0. -1.
         21   -1    0    0  501  502 -0.00000000000E+00 -0.00000000000E+00 -0.63779817543E+03  0.63779817543E+03  0.00000000000E+00 0. -1.
      99926    2    1    2    0    0  0.00000000000E+00  0.00000000000E+00 -0.56037826708E+03  0.71521808378E+03  0.44442446507E+03 0.  0.
      99925    2    3    3    0    0 -0.83423024647E+02  0.49503449761E+01 -0.25955698574E+03  0.37887769316E+03  0.26304860876E+03 0.  0.
         25    1    4    4    0    0 -0.52960586017E+02 -0.58642827998E+01 -0.18538765878E+03  0.22990281775E+03  0.12509000000E+03 0.  0.
         25    1    4    4    0    0 -0.30462438630E+02  0.10814627776E+02 -0.74169326965E+02  0.14897487541E+03  0.12509000000E+03 0.  0.
         25    1    3    3    0    0  0.83423024647E+02 -0.49503449761E+01 -0.30082128133E+03  0.33634039062E+03  0.12509000000E+03 0.  0.
<mgrwt>
<rscale>  2 0.44442447E+03</rscale>
<asrwt>0</asrwt>
<pdfrwt beam="1">  1       21 0.11385280E-01 0.44442447E+03</pdfrwt>
<pdfrwt beam="2">  1       21 0.93793851E-01 0.44442447E+03</pdfrwt>
<totfact> 0.56652484E+04</totfact>
</mgrwt>
</event>
<event>
 7    0  0.4748297E-002  0.4581036E+03  0.7546771E-02  0.1025333E+00
         21   -1    0    0  502  501  0.00000000000E+00  0.00000000000E+00  0.10520212952E+04  0.10520212952E+04  0.00000000000E+00 0. -1.
         21   -1    0    0  501  502 -0.00000000000E+00 -0.00000000000E+00 -0.49870397467E+02  0.49870397467E+02  0.00000000000E+00 0. -1.
      99926    2    1    2    0    0 -0.14210854715E-13  0.00000000000E+00  0.10021508977E+04  0.11018916927E+04  0.45810356967E+03 0.  0.
      99925    2    3    3    0    0 -0.85533042341E+02  0.43940581715E+02  0.78534283856E+03  0.83375009076E+03  0.26292425469E+03 0.  0.
         25    1    3    3    0    0  0.85533042341E+02 -0.43940581715E+02  0.21680805919E+03  0.26814160192E+03  0.12509000000E+03 0.  0.
         25    1    4    4    0    0 -0.43604500325E+02  0.59662928968E+02  0.45720937877E+03  0.47973840964E+03  0.12509000000E+03 0.  0.
         25    1    4    4    0    0 -0.41928542016E+02 -0.15722347252E+02  0.32813345979E+03  0.35401168112E+03  0.12509000000E+03 0.  0.
<mgrwt>
<rscale>  2 0.45810357E+03</rscale>
<asrwt>0</asrwt>
<pdfrwt beam="1">  1       21 0.15470900E+00 0.45810357E+03</pdfrwt>
<pdfrwt beam="2">  1       21 0.73338826E-02 0.45810357E+03</pdfrwt>
<totfact> 0.34583781E+04</totfact>
</mgrwt>
</event>
<event>
 7    0  0.4748297E-002  0.4510376E+03  0.7546771E-02  0.1027413E+00
         21   -1    0    0  502  501  0.00000000000E+00  0.00000000000E+00  0.91659323326E+03  0.91659323326E+03  0.00000000000E+00 0.  1.
         21   -1    0    0  501  502 -0.00000000000E+00 -0.00000000000E+00 -0.55486695944E+02  0.55486695944E+02  0.00000000000E+00 0.  1.
      99926    2    1    2    0    0 -0.71054273576E-14  0.00000000000E+00  0.86110653732E+03  0.97207992920E+03  0.45103760392E+03 0.  0.
      99925    2    3    3    0    0 -0.57472945104E+02 -0.72278435235E+02  0.67027180639E+03  0.72592405532E+03  0.26300974893E+03 0.  0.
         25    1    4    4    0    0 -0.65844255884E+02 -0.46144537814E+02  0.31667211731E+03  0.34984785606E+03  0.12509000000E+03 0.  0.
         25    1    3    3    0    0  0.57472945104E+02  0.72278435235E+02  0.19083473092E+03  0.24615587388E+03  0.12509000000E+03 0.  0.
         25    1    4    4    0    0  0.83713107794E+01 -0.26133897420E+02  0.35359968908E+03  0.37607619927E+03  0.12509000000E+03 0.  0.
<mgrwt>
<rscale>  2 0.45103760E+03</rscale>
<asrwt>0</asrwt>
<pdfrwt beam="1">  1       21 0.13479311E+00 0.45103760E+03</pdfrwt>
<pdfrwt beam="2">  1       21 0.81598088E-02 0.45103760E+03</pdfrwt>
<totfact> 0.41531073E+04</totfact>
</mgrwt>
</event>
<event>
 7    0  0.4748297E-002  0.4509928E+03  0.7546771E-02  0.1027426E+00
         21   -1    0    0  502  501  0.00000000000E+00  0.00000000000E+00  0.87398392335E+02  0.87398392335E+02  0.00000000000E+00 0.  1.
         21   -1    0    0  501  502 -0.00000000000E+00 -0.00000000000E+00 -0.58180284566E+03  0.58180284566E+03  0.00000000000E+00 0.  1.
      99926    2    1    2    0    0  0.00000000000E+00  0.00000000000E+00 -0.49440445332E+03  0.66920123799E+03  0.45099283084E+03 0.  0.
      99925    2    3    3    0    0 -0.20455987220E+02  0.82112657034E+02 -0.20827609533E+03  0.34566162495E+03  0.26256826012E+03 0.  0.
         25    1    3    3    0    0  0.20455987220E+02 -0.82112657034E+02 -0.28612835800E+03  0.32353961304E+03  0.12509000000E+03 0.  0.
         25    1    4    4    0    0  0.25622292286E+02  0.22456483240E+02 -0.91816711110E+02  0.15886664861E+03  0.12509000000E+03 0.  0.
         25    1    4    4    0    0 -0.46078279506E+02  0.59656173794E+02 -0.11645938422E+03  0.18679497634E+03  0.12509000000E+03 0.  0.
<mgrwt>
<rscale>  2 0.45099283E+03</rscale>
<asrwt>0</asrwt>
<pdfrwt beam="1">  1       21 0.12852705E-01 0.45099283E+03</pdfrwt>
<pdfrwt beam="2">  1       21 0.85559244E-01 0.45099283E+03</pdfrwt>
<totfact> 0.56366467E+04</totfact>
</mgrwt>
</event>
<event>
 7    0  0.4748297E-002  0.4540570E+03  0.7546771E-02  0.1026519E+00
         21   -1    0    0  502  501  0.00000000000E+00  0.00000000000E+00  0.80855959642E+03  0.80855959642E+03  0.00000000000E+00 0.  1.
         21   -1    0    0  501  502 -0.00000000000E+00 -0.00000000000E+00 -0.63745368105E+02  0.63745368105E+02  0.00000000000E+00 0.  1.
      99926    2    1    2    0    0 -0.14210854715E-13 -0.17763568394E-14  0.74481422832E+03  0.87230496453E+03  0.45405695285E+03 0.  0.
      99925    2    3    3    0    0  0.10238879798E+03  0.11400560277E+02  0.38335583265E+03  0.47618235898E+03  0.26301046719E+03 0.  0.
         25    1    3    3    0    0 -0.10238879798E+03 -0.11400560277E+02  0.36145839567E+03  0.39612260555E+03  0.12509000000E+03 0.  0.
         25    1    4    4    0    0  0.90789520525E+02  0.21982387449E+02  0.22251197014E+03  0.27181804088E+03  0.12509000000E+03 0.  0.
         25    1    4    4    0    0  0.11599277453E+02 -0.10581827172E+02  0.16084386251E+03  0.20436431810E+03  0.12509000000E+03 0.  0.
<mgrwt>
<rscale>  2 0.45405695E+03</rscale>
<asrwt>0</asrwt>
<pdfrwt beam="1">  1       21 0.11890582E+00 0.45405695E+03</pdfrwt>
<pdfrwt beam="2">  1       21 0.93743193E-02 0.45405695E+03</pdfrwt>
<totfact> 0.44782700E+04</totfact>
</mgrwt>
</event>
<event>
 7    0  0.4748297E-002  0.4551334E+03  0.7546771E-02  0.1026202E+00
         21   -1    0    0  502  501  0.00000000000E+00  0.00000000000E+00  0.39886847129E+03  0.39886847129E+03  0.00000000000E+00 0.  1.
         21   -1    0    0  501  502 -0.00000000000E+00 -0.00000000000E+00 -0.12983378631E+03  0.12983378631E+03  0.00000000000E+00 0.  1.
      99926    2    1    2    0    0 -0.14210854715E-13  0.35527136788E-14  0.26903468499E+03  0.52870225760E+03  0.45513340403E+03 0.  0.
      99925    2    3    3    0    0  0.90193849409E+02 -0.92847118050E+01  0.24811235290E+03  0.37279719538E+03  0.26305298493E+03 0.  0.
         25    1    4    4    0    0  0.70428162831E+02 -0.37407739109E+02  0.13878522030E+03  0.20314603255E+03  0.12509000000E+03 0.  0.
         25    1    4    4    0    0  0.19765686578E+02  0.28123027304E+02  0.10932713260E+03  0.16965116284E+03  0.12509000000E+03 0.  0.
         25    1    3    3    0    0 -0.90193849409E+02  0.92847118050E+01  0.20922332089E+02  0.15590506222E+03  0.12509000000E+03 0.  0.
<mgrwt>
<rscale>  2 0.45513340E+03</rscale>
<asrwt>0</asrwt>
<pdfrwt beam="1">  1       21 0.58657128E-01 0.45513340E+03</pdfrwt>
<pdfrwt beam="2">  1       21 0.19093204E-01 0.45513340E+03</pdfrwt>
<totfact> 0.63227590E+04</totfact>
</mgrwt>
</event>
<event>
 7    0  0.4748297E-002  0.4368716E+03  0.7546771E-02  0.1031711E+00
         21   -1    0    0  502  501  0.00000000000E+00  0.00000000000E+00  0.79516971803E+03  0.79516971803E+03  0.00000000000E+00 0.  1.
         21   -1    0    0  501  502 -0.00000000000E+00 -0.00000000000E+00 -0.60005036528E+02  0.60005036528E+02  0.00000000000E+00 0.  1.
      99926    2    1    2    0    0  0.00000000000E+00  0.00000000000E+00  0.73516468150E+03  0.85517475456E+03  0.43687155081E+03 0.  0.
      99925    2    3    3    0    0  0.88703745604E+02 -0.33510914372E+02  0.45406383178E+03  0.53321741006E+03  0.26297434701E+03 0.  0.
         25    1    3    3    0    0 -0.88703745604E+02  0.33510914372E+02  0.28110084972E+03  0.32195734450E+03  0.12509000000E+03 0.  0.
         25    1    4    4    0    0  0.45199191289E+02  0.23879992418E+02  0.21334850645E+03  0.25254368777E+03  0.12509000000E+03 0.  0.
         25    1    4    4    0    0  0.43504554316E+02 -0.57390906790E+02  0.24071532534E+03  0.28067372228E+03  0.12509000000E+03 0.  0.
<mgrwt>
<rscale>  2 0.43687155E+03</rscale>
<asrwt>0</asrwt>
<pdfrwt beam="1">  1       21 0.11693672E+00 0.43687155E+03</pdfrwt>
<pdfrwt beam="2">  1       21 0.88242706E-02 0.43687155E+03</pdfrwt>
<totfact> 0.52251232E+04</totfact>
</mgrwt>
</event>
<event>
 7    0  0.4748297E-002  0.4530128E+03  0.7546771E-02  0.1026827E+00
         21   -1    0    0  502  501  0.00000000000E+00  0.00000000000E+00  0.11798737361E+04  0.11798737361E+04  0.00000000000E+00 0.  1.
         21   -1    0    0  501  502 -0.00000000000E+00 -0.00000000000E+00 -0.43483601502E+02  0.43483601502E+02  0.00000000000E+00 0.  1.
      99926    2    1    2    0    0 -0.71054273576E-14  0.00000000000E+00  0.11363901346E+04  0.12233573376E+04  0.45301284469E+03 0.  0.
      99925    2    3    3    0    0 -0.62594899047E+02  0.35650051880E+02  0.94561590353E+03  0.98412656424E+03  0.26291939801E+03 0.  0.
         25    1    4    4    0    0 -0.24920371582E+02  0.12049427167E+02  0.60792399136E+03  0.62127715312E+03  0.12509000000E+03 0.  0.
         25    1    3    3    0    0  0.62594899047E+02 -0.35650051880E+02  0.19077423108E+03  0.23923077338E+03  0.12509000000E+03 0.  0.
         25    1    4    4    0    0 -0.37674527465E+02  0.23600624712E+02  0.33769191217E+03  0.36284941112E+03  0.12509000000E+03 0.  0.
<mgrwt>
<rscale>  2 0.45301284E+03</rscale>
<asrwt>0</asrwt>
<pdfrwt beam="1">  1       21 0.17351082E+00 0.45301284E+03</pdfrwt>
<pdfrwt beam="2">  1       21 0.63946481E-02 0.45301284E+03</pdfrwt>
<totfact> 0.31915252E+04</totfact>
</mgrwt>
</event>
<event>
 7    0  0.4748297E-002  0.4537488E+03  0.7546771E-02  0.1026610E+00
         21   -1    0    0  502  501  0.00000000000E+00  0.00000000000E+00  0.28078031917E+03  0.28078031917E+03  0.00000000000E+00 0. -1.
         21   -1    0    0  501  502 -0.00000000000E+00 -0.00000000000E+00 -0.18331764108E+03  0.18331764108E+03  0.00000000000E+00 0. -1.
      99926    2    1    2    0    0  0.00000000000E+00  0.17763568394E-14  0.97462678081E+02  0.46409796025E+03  0.45374876649E+03 0.  0.
      99925    2    3    3    0    0  0.16335159140E+02  0.84124466877E+01  0.17439962115E+03  0.31609658190E+03  0.26299090203E+03 0.  0.
         25    1    4    4    0    0 -0.31112894321E+01 -0.14566261303E+02  0.12727657462E+03  0.17907733144E+03  0.12509000000E+03 0.  0.
         25    1    3    3    0    0 -0.16335159140E+02 -0.84124466877E+01 -0.76936943066E+02  0.14800137834E+03  0.12509000000E+03 0.  0.
         25    1    4    4    0    0  0.19446448572E+02  0.22978707990E+02  0.47123046531E+02  0.13701925046E+03  0.12509000000E+03 0.  0.
<mgrwt>
<rscale>  2 0.45374877E+03</rscale>
<asrwt>0</asrwt>
<pdfrwt beam="1">  1       21 0.41291224E-01 0.45374877E+03</pdfrwt>
<pdfrwt beam="2">  1       21 0.26958476E-01 0.45374877E+03</pdfrwt>
<totfact> 0.68555690E+04</totfact>
</mgrwt>
</event>
<event>
 7    0  0.4748297E-002  0.4509423E+03  0.7546771E-02  0.1027441E+00
         21   -1    0    0  502  501  0.00000000000E+00  0.00000000000E+00  0.75913087193E+02  0.75913087193E+02  0.00000000000E+00 0.  1.
         21   -1    0    0  501  502 -0.00000000000E+00 -0.00000000000E+00 -0.66967697455E+03  0.66967697455E+03  0.00000000000E+00 0.  1.
      99926    2    1    2    0    0  0.00000000000E+00  0.14210854715E-13 -0.59376388736E+03  0.74559006174E+03  0.45094233139E+03 0.  0.
      99925    2    3    3    0    0 -0.66306368386E+02 -0.70968160817E+02 -0.29214483438E+03  0.40492222417E+03  0.26302165126E+03 0.  0.
         25    1    4    4    0    0 -0.26047970351E+02 -0.16710508397E+02 -0.87580048268E+02  0.15580600375E+03  0.12509000000E+03 0.  0.
         25    1    4    4    0    0 -0.40258398035E+02 -0.54257652421E+02 -0.20456478611E+03  0.24911622042E+03  0.12509000000E+03 0.  0.
         25    1    3    3    0    0  0.66306368386E+02  0.70968160817E+02 -0.30161905298E+03  0.34066783758E+03  0.12509000000E+03 0.  0.
<mgrwt>
<rscale>  2 0.45094233E+03</rscale>
<asrwt>0</asrwt>
<pdfrwt beam="1">  1       21 0.11163689E-01 0.45094233E+03</pdfrwt>
<pdfrwt beam="2">  1       21 0.98481909E-01 0.45094233E+03</pdfrwt>
<totfact> 0.52139797E+04</totfact>
</mgrwt>
</event>
<event>
 7    0  0.4748297E-002  0.4497153E+03  0.7546771E-02  0.1027807E+00
         21   -1    0    0  502  501  0.00000000000E+00  0.00000000000E+00  0.10469616448E+03  0.10469616448E+03  0.00000000000E+00 0. -1.
         21   -1    0    0  501  502 -0.00000000000E+00 -0.00000000000E+00 -0.48293032113E+03  0.48293032113E+03  0.00000000000E+00 0. -1.
      99926    2    1    2    0    0  0.00000000000E+00  0.00000000000E+00 -0.37823415665E+03  0.58762648561E+03  0.44971525362E+03 0.  0.
      99925    2    3    3    0    0 -0.99382424895E+02 -0.21051870327E+02 -0.28788049849E+03  0.40287979616E+03  0.26290093404E+03 0.  0.
         25    1    4    4    0    0 -0.54865241760E+02 -0.47538003358E+02 -0.12575152359E+03  0.19165335975E+03  0.12509000000E+03 0.  0.
         25    1    4    4    0    0 -0.44517183134E+02  0.26486133031E+02 -0.16212897490E+03  0.21122643641E+03  0.12509000000E+03 0.  0.
         25    1    3    3    0    0  0.99382424895E+02  0.21051870327E+02 -0.90353658158E+02  0.18474668946E+03  0.12509000000E+03 0.  0.
<mgrwt>
<rscale>  2 0.44971525E+03</rscale>
<asrwt>0</asrwt>
<pdfrwt beam="1">  1       21 0.15396495E-01 0.44971525E+03</pdfrwt>
<pdfrwt beam="2">  1       21 0.71019162E-01 0.44971525E+03</pdfrwt>
<totfact> 0.61995689E+04</totfact>
</mgrwt>
</event>
<event>
 7    0  0.4748297E-002  0.4572181E+03  0.7546771E-02  0.1025591E+00
         21   -1    0    0  502  501  0.00000000000E+00  0.00000000000E+00  0.14511752379E+03  0.14511752379E+03  0.00000000000E+00 0. -1.
         21   -1    0    0  501  502 -0.00000000000E+00 -0.00000000000E+00 -0.36013633960E+03  0.36013633960E+03  0.00000000000E+00 0. -1.
      99926    2    1    2    0    0  0.00000000000E+00  0.00000000000E+00 -0.21501881581E+03  0.50525386340E+03  0.45721808290E+03 0.  0.
      99925    2    3    3    0    0  0.75517914798E+02 -0.65519991907E+02 -0.19833315279E+03  0.34425155209E+03  0.26301571593E+03 0.  0.
         25    1    3    3    0    0 -0.75517914798E+02  0.65519991907E+02 -0.16685663019E+02  0.16100231130E+03  0.12509000000E+03 0.  0.
         25    1    4    4    0    0  0.66642421756E+02 -0.17117472564E+02 -0.72478092075E+02  0.16010871986E+03  0.12509000000E+03 0.  0.
         25    1    4    4    0    0  0.88754930417E+01 -0.48402519343E+02 -0.12585506071E+03  0.18414283223E+03  0.12509000000E+03 0.  0.
<mgrwt>
<rscale>  2 0.45721808E+03</rscale>
<asrwt>0</asrwt>
<pdfrwt beam="1">  1       21 0.21340813E-01 0.45721808E+03</pdfrwt>
<pdfrwt beam="2">  1       21 0.52961225E-01 0.45721808E+03</pdfrwt>
<totfact> 0.63772916E+04</totfact>
</mgrwt>
</event>
<event>
 7    0  0.4748297E-002  0.4469380E+03  0.7546771E-02  0.1028639E+00
         21   -1    0    0  502  501  0.00000000000E+00  0.00000000000E+00  0.13012031558E+04  0.13012031558E+04  0.00000000000E+00 0.  1.
         21   -1    0    0  501  502 -0.00000000000E+00 -0.00000000000E+00 -0.38378630406E+02  0.38378630406E+02  0.00000000000E+00 0.  1.
      99926    2    1    2    0    0  0.00000000000E+00  0.35527136788E-14  0.12628245254E+04  0.13395817862E+04  0.44693800465E+03 0.  0.
      99925    2    3    3    0    0  0.36566368056E+02 -0.28755138883E+02  0.10841710944E+04  0.11165828763E+04  0.26299505811E+03 0.  0.
         25    1    4    4    0    0  0.28141951199E+02  0.18030961578E+02  0.43980765840E+03  0.45847068552E+03  0.12509000000E+03 0.  0.
         25    1    4    4    0    0  0.84244168570E+01 -0.46786100460E+02  0.64436343596E+03  0.65811219082E+03  0.12509000000E+03 0.  0.
         25    1    3    3    0    0 -0.36566368056E+02  0.28755138883E+02  0.17865343104E+03  0.22299890988E+03  0.12509000000E+03 0.  0.
<mgrwt>
<rscale>  2 0.44693800E+03</rscale>
<asrwt>0</asrwt>
<pdfrwt beam="1">  1       21 0.19135338E+00 0.44693800E+03</pdfrwt>
<pdfrwt beam="2">  1       21 0.56439171E-02 0.44693800E+03</pdfrwt>
<totfact> 0.29811875E+04</totfact>
</mgrwt>
</event>
<event>
 7    0  0.4748297E-002  0.4645630E+03  0.7546771E-02  0.1023466E+00
         21   -1    0    0  502  501  0.00000000000E+00  0.00000000000E+00  0.11210189753E+03  0.11210189753E+03  0.00000000000E+00 0.  1.
         21   -1    0    0  501  502 -0.00000000000E+00 -0.00000000000E+00 -0.48130055355E+03  0.48130055355E+03  0.00000000000E+00 0.  1.
      99926    2    1    2    0    0  0.00000000000E+00  0.00000000000E+00 -0.36919865602E+03  0.59340245108E+03  0.46456304345E+03 0.  0.
      99925    2    3    3    0    0 -0.27118083312E+02  0.48627667900E+02 -0.36895229329E+03  0.45648054150E+03  0.26296130801E+03 0.  0.
         25    1    4    4    0    0 -0.45599878413E+02  0.36449794805E+01 -0.16061344389E+03  0.20865478965E+03  0.12509000000E+03 0.  0.
         25    1    3    3    0    0  0.27118083312E+02 -0.48627667900E+02 -0.24636272426E+00  0.13692190958E+03  0.12509000000E+03 0.  0.
         25    1    4    4    0    0  0.18481795101E+02  0.44982688419E+02 -0.20833884940E+03  0.24782575185E+03  0.12509000000E+03 0.  0.
<mgrwt>
<rscale>  2 0.46456304E+03</rscale>
<asrwt>0</asrwt>
<pdfrwt beam="1">  1       21 0.16485573E-01 0.46456304E+03</pdfrwt>
<pdfrwt beam="2">  1       21 0.70779493E-01 0.46456304E+03</pdfrwt>
<totfact> 0.54823777E+04</totfact>
</mgrwt>
</event>
<event>
 7    0  0.4748297E-002  0.4488315E+03  0.7546771E-02  0.1028071E+00
         21   -1    0    0  502  501  0.00000000000E+00  0.00000000000E+00  0.58728918306E+03  0.58728918306E+03  0.00000000000E+00 0. -1.
         21   -1    0    0  501  502 -0.00000000000E+00 -0.00000000000E+00 -0.85754073321E+02  0.85754073321E+02  0.00000000000E+00 0. -1.
      99926    2    1    2    0    0  0.00000000000E+00  0.35527136788E-14  0.50153510973E+03  0.67304325638E+03  0.44883154820E+03 0.  0.
      99925    2    3    3    0    0 -0.97360236210E+02  0.26746776047E+02  0.37178373087E+03  0.46645832459E+03  0.26299395510E+03 0.  0.
         25    1    4    4    0    0 -0.85343200495E+02 -0.61930440847E+01  0.20979559397E+03  0.25881173663E+03  0.12509000000E+03 0.  0.
         25    1    4    4    0    0 -0.12017035716E+02  0.32939820132E+02  0.16198813689E+03  0.20764658796E+03  0.12509000000E+03 0.  0.
         25    1    3    3    0    0  0.97360236210E+02 -0.26746776047E+02  0.12975137887E+03  0.20658493179E+03  0.12509000000E+03 0.  0.
<mgrwt>
<rscale>  2 0.44883155E+03</rscale>
<asrwt>0</asrwt>
<pdfrwt beam="1">  1       21 0.86366054E-01 0.44883155E+03</pdfrwt>
<pdfrwt beam="2">  1       21 0.12610893E-01 0.44883155E+03</pdfrwt>
<totfact> 0.57116495E+04</totfact>
</mgrwt>
</event>
<event>
 7    0  0.4748297E-002  0.4550054E+03  0.7546771E-02  0.1026240E+00
         21   -1    0    0  502  501  0.00000000000E+00  0.00000000000E+00  0.29230323228E+03  0.29230323228E+03  0.00000000000E+00 0. -1.
         21   -1    0    0  501  502 -0.00000000000E+00 -0.00000000000E+00 -0.17706778650E+03  0.17706778650E+03  0.00000000000E+00 0. -1.
      99926    2    1    2    0    0  0.00000000000E+00  0.00000000000E+00  0.11523544579E+03  0.46937101878E+03  0.45500543437E+03 0.  0.
      99925    2    3    3    0    0  0.75896762043E+02 -0.23159742633E+02  0.15585225339E+03  0.31576787647E+03  0.26291202855E+03 0.  0.
         25    1    4    4    0    0  0.52695060533E+02 -0.31636201301E+02  0.11839857893E+03  0.18287523132E+03  0.12509000000E+03 0.  0.
         25    1    3    3    0    0 -0.75896762043E+02  0.23159742633E+02 -0.40616807606E+02  0.15360314231E+03  0.12509000000E+03 0.  0.
         25    1    4    4    0    0  0.23201701510E+02  0.84764586679E+01  0.37453674458E+02  0.13289264515E+03  0.12509000000E+03 0.  0.
<mgrwt>
<rscale>  2 0.45500543E+03</rscale>
<asrwt>0</asrwt>
<pdfrwt beam="1">  1       21 0.42985770E-01 0.45500543E+03</pdfrwt>
<pdfrwt beam="2">  1       21 0.26039380E-01 0.45500543E+03</pdfrwt>
<totfact> 0.67479635E+04</totfact>
</mgrwt>
</event>
<event>
 7    0  0.4748297E-002  0.4376745E+03  0.7546771E-02  0.1031463E+00
         21   -1    0    0  502  501  0.00000000000E+00  0.00000000000E+00  0.50751803883E+03  0.50751803883E+03  0.00000000000E+00 0. -1.
         21   -1    0    0  501  502 -0.00000000000E+00 -0.00000000000E+00 -0.94360666377E+02  0.94360666377E+02  0.00000000000E+00 0. -1.
      99926    2    1    2    0    0  0.35527136788E-14  0.00000000000E+00  0.41315737245E+03  0.60187870521E+03  0.43767449248E+03 0.  0.
      99925    2    3    3    0    0 -0.25742181226E+02  0.46364802837E+02  0.37442542158E+03  0.46059874571E+03  0.26295332930E+03 0.  0.
         25    1    4    4    0    0 -0.49473086466E+02  0.13489922668E+02  0.16499359193E+03  0.21330719110E+03  0.12509000000E+03 0.  0.
         25    1    4    4    0    0  0.23730905240E+02  0.32874880169E+02  0.20943182966E+03  0.24729155461E+03  0.12509000000E+03 0.  0.
         25    1    3    3    0    0  0.25742181226E+02 -0.46364802837E+02  0.38731950868E+02  0.14127995949E+03  0.12509000000E+03 0.  0.
<mgrwt>
<rscale>  2 0.43767449E+03</rscale>
<asrwt>0</asrwt>
<pdfrwt beam="1">  1       21 0.74635004E-01 0.43767449E+03</pdfrwt>
<pdfrwt beam="2">  1       21 0.13876569E-01 0.43767449E+03</pdfrwt>
<totfact> 0.67313922E+04</totfact>
</mgrwt>
</event>
<event>
 7    0  0.4748297E-002  0.4557984E+03  0.7546771E-02  0.1026007E+00
         21   -1    0    0  502  501  0.00000000000E+00  0.00000000000E+00  0.18851033879E+03  0.18851033879E+03  0.00000000000E+00 0. -1.
         21   -1    0    0  501  502 -0.00000000000E+00 -0.00000000000E+00 -0.27551823336E+03  0.27551823336E+03  0.00000000000E+00 0. -1.
      99926    2    1    2    0    0  0.14210854715E-13 -0.71054273576E-14 -0.87007894571E+02  0.46402857216E+03  0.45579835680E+03 0.  0.
      99925    2    3    3    0    0  0.10050132108E+03 -0.53529492025E+02 -0.49448786560E+02  0.29075388632E+03  0.26291960343E+03 0.  0.
         25    1    4    4    0    0  0.69211515344E+02 -0.26093289221E+02 -0.62674607655E+02  0.15826151820E+03  0.12509000000E+03 0.  0.
         25    1    3    3    0    0 -0.10050132108E+03  0.53529492025E+02 -0.37559108011E+02  0.17327468583E+03  0.12509000000E+03 0.  0.
         25    1    4    4    0    0  0.31289805737E+02 -0.27436202804E+02  0.13225821095E+02  0.13249236812E+03  0.12509000000E+03 0.  0.
<mgrwt>
<rscale>  2 0.45579836E+03</rscale>
<asrwt>0</asrwt>
<pdfrwt beam="1">  1       21 0.27722109E-01 0.45579836E+03</pdfrwt>
<pdfrwt beam="2">  1       21 0.40517387E-01 0.45579836E+03</pdfrwt>
<totfact> 0.67453250E+04</totfact>
</mgrwt>
</event>
<event>
 7    0  0.4748297E-002  0.4436869E+03  0.7546771E-02  0.1029622E+00
         21   -1    0    0  502  501  0.00000000000E+00  0.00000000000E+00  0.12897935657E+04  0.12897935657E+04  0.00000000000E+00 0. -1.
         21   -1    0    0  501  502 -0.00000000000E+00 -0.00000000000E+00 -0.38156890620E+02  0.38156890620E+02  0.00000000000E+00 0. -1.
      99926    2    1    2    0    0  0.00000000000E+00  0.22204460493E-15  0.12516366750E+04  0.13279504563E+04  0.44368688061E+03 0.  0.
      99925    2    3    3    0    0 -0.10167637814E+03 -0.10266525231E+01  0.81150473646E+03  0.85922583419E+03  0.26341973534E+03 0.  0.
         25    1    4    4    0    0 -0.89966905570E+02 -0.17580254014E+02  0.41956324120E+03  0.44730742325E+03  0.12509000000E+03 0.  0.
         25    1    3    3    0    0  0.10167637814E+03  0.10266525231E+01  0.44013193859E+03  0.46872462209E+03  0.12509000000E+03 0.  0.
         25    1    4    4    0    0 -0.11709472574E+02  0.16553601491E+02  0.39194149526E+03  0.41191841095E+03  0.12509000000E+03 0.  0.
<mgrwt>
<rscale>  2 0.44368688E+03</rscale>
<asrwt>0</asrwt>
<pdfrwt beam="1">  1       21 0.18967550E+00 0.44368688E+03</pdfrwt>
<pdfrwt beam="2">  1       21 0.56113083E-02 0.44368688E+03</pdfrwt>
<totfact> 0.30947837E+04</totfact>
</mgrwt>
</event>
<event>
 7    0  0.4748297E-002  0.4619366E+03  0.7546771E-02  0.1024221E+00
         21   -1    0    0  502  501  0.00000000000E+00  0.00000000000E+00  0.95794770051E+02  0.95794770051E+02  0.00000000000E+00 0.  1.
         21   -1    0    0  501  502 -0.00000000000E+00 -0.00000000000E+00 -0.55688177844E+03  0.55688177844E+03  0.00000000000E+00 0.  1.
      99926    2    1    2    0    0  0.00000000000E+00 -0.71054273576E-14 -0.46108700838E+03  0.65267654849E+03  0.46193662730E+03 0.  0.
      99925    2    3    3    0    0  0.10708352740E+03 -0.32994520956E+02 -0.34708114037E+03  0.44969781488E+03  0.26307277786E+03 0.  0.
         25    1    4    4    0    0  0.25266400516E+02  0.13885109943E+02 -0.17439047234E+03  0.21654267990E+03  0.12509000000E+03 0.  0.
         25    1    4    4    0    0  0.81817126888E+02 -0.46879630899E+02 -0.17269066803E+03  0.23315513499E+03  0.12509000000E+03 0.  0.
         25    1    3    3    0    0 -0.10708352740E+03  0.32994520956E+02 -0.11400586801E+03  0.20297873360E+03  0.12509000000E+03 0.  0.
<mgrwt>
<rscale>  2 0.46193663E+03</rscale>
<asrwt>0</asrwt>
<pdfrwt beam="1">  1       21 0.14087467E-01 0.46193663E+03</pdfrwt>
<pdfrwt beam="2">  1       21 0.81894377E-01 0.46193663E+03</pdfrwt>
<totfact> 0.52609078E+04</totfact>
</mgrwt>
</event>
<event>
 7    0  0.4748297E-002  0.4596464E+03  0.7546771E-02  0.1024884E+00
         21   -1    0    0  502  501  0.00000000000E+00  0.00000000000E+00  0.93724118686E+02  0.93724118686E+02  0.00000000000E+00 0.  1.
         21   -1    0    0  501  502 -0.00000000000E+00 -0.00000000000E+00 -0.56355495820E+03  0.56355495820E+03  0.00000000000E+00 0.  1.
      99926    2    1    2    0    0  0.26645352591E-14  0.00000000000E+00 -0.46983083951E+03  0.65727907689E+03  0.45964635009E+03 0.  0.
      99925    2    3    3    0    0 -0.78782440226E+01  0.93004595728E+02 -0.39640916493E+03  0.48479669531E+03  0.26301271488E+03 0.  0.
         25    1    3    3    0    0  0.78782440226E+01 -0.93004595728E+02 -0.73421674581E+02  0.17248238157E+03  0.12509000000E+03 0.  0.
         25    1    4    4    0    0  0.22218140680E+02  0.76839921348E+02 -0.19173533052E+03  0.24250353473E+03  0.12509000000E+03 0.  0.
         25    1    4    4    0    0 -0.30096384703E+02  0.16164674381E+02 -0.20467383441E+03  0.24229316058E+03  0.12509000000E+03 0.  0.
<mgrwt>
<rscale>  2 0.45964635E+03</rscale>
<asrwt>0</asrwt>
<pdfrwt beam="1">  1       21 0.13782959E-01 0.45964635E+03</pdfrwt>
<pdfrwt beam="2">  1       21 0.82875726E-01 0.45964635E+03</pdfrwt>
<totfact> 0.53303616E+04</totfact>
</mgrwt>
</event>
<event>
 7    0  0.4748297E-002  0.4505499E+03  0.7546771E-02  0.1027558E+00
         21   -1    0    0  502  501  0.00000000000E+00  0.00000000000E+00  0.54670522808E+02  0.54670522808E+02  0.00000000000E+00 0.  1.
         21   -1    0    0  501  502 -0.00000000000E+00 -0.00000000000E+00 -0.92826640324E+03  0.92826640324E+03  0.00000000000E+00 0.  1.
      99926    2    1    2    0    0  0.00000000000E+00  0.00000000000E+00 -0.87359588043E+03  0.98293692604E+03  0.45054992873E+03 0.  0.
      99925    2    3    3    0    0 -0.21702878950E+02  0.75444017039E+02 -0.38731500600E+03  0.47472495098E+03  0.26303621528E+03 0.  0.
         25    1    4    4    0    0 -0.73216867103E+01  0.63157990459E+02 -0.25876801358E+03  0.29436530334E+03  0.12509000000E+03 0.  0.
         25    1    3    3    0    0  0.21702878950E+02 -0.75444017039E+02 -0.48628087443E+03  0.50821197506E+03  0.12509000000E+03 0.  0.
         25    1    4    4    0    0 -0.14381192240E+02  0.12286026580E+02 -0.12854699242E+03  0.18035964764E+03  0.12509000000E+03 0.  0.
<mgrwt>
<rscale>  2 0.45054993E+03</rscale>
<asrwt>0</asrwt>
<pdfrwt beam="1">  1       21 0.80397836E-02 0.45054993E+03</pdfrwt>
<pdfrwt beam="2">  1       21 0.13650975E+00 0.45054993E+03</pdfrwt>
<totfact> 0.41251181E+04</totfact>
</mgrwt>
</event>
<event>
 7    0  0.4748297E-002  0.4724196E+03  0.7546771E-02  0.1021240E+00
         21   -1    0    0  502  501  0.00000000000E+00  0.00000000000E+00  0.13411394083E+03  0.13411394083E+03  0.00000000000E+00 0.  1.
         21   -1    0    0  501  502 -0.00000000000E+00 -0.00000000000E+00 -0.41602736002E+03  0.41602736002E+03  0.00000000000E+00 0.  1.
      99926    2    1    2    0    0  0.00000000000E+00  0.00000000000E+00 -0.28191341919E+03  0.55014130086E+03  0.47241959632E+03 0.  0.
      99925    2    3    3    0    0  0.17367937931E+02 -0.76094780494E+02 -0.54376979693E+02  0.27900959801E+03  0.26229265902E+03 0.  0.
         25    1    4    4    0    0  0.19829358131E+02 -0.51567491499E+02 -0.64335244704E+02  0.15112558167E+03  0.12509000000E+03 0.  0.
         25    1    4    4    0    0 -0.24614202002E+01 -0.24527288995E+02  0.99582650105E+01  0.12788401635E+03  0.12509000000E+03 0.  0.
         25    1    3    3    0    0 -0.17367937931E+02  0.76094780494E+02 -0.22753643950E+03  0.27113170284E+03  0.12509000000E+03 0.  0.
<mgrwt>
<rscale>  2 0.47241960E+03</rscale>
<asrwt>0</asrwt>
<pdfrwt beam="1">  1       21 0.19722638E-01 0.47241960E+03</pdfrwt>
<pdfrwt beam="2">  1       21 0.61180494E-01 0.47241960E+03</pdfrwt>
<totfact> 0.54013556E+04</totfact>
</mgrwt>
</event>
<event>
 7    0  0.4748297E-002  0.4567450E+03  0.7546771E-02  0.1025729E+00
         21   -1    0    0  502  501  0.00000000000E+00  0.00000000000E+00  0.96549826465E+02  0.96549826465E+02  0.00000000000E+00 0. -1.
         21   -1    0    0  501  502 -0.00000000000E+00 -0.00000000000E+00 -0.54017707874E+03  0.54017707874E+03  0.00000000000E+00 0. -1.
      99926    2    1    2    0    0 -0.88817841970E-15 -0.17763568394E-14 -0.44362725227E+03  0.63672690520E+03  0.45674501951E+03 0.  0.
      99925    2    3    3    0    0  0.53038035349E+01  0.66966229719E+01 -0.43832869783E+03  0.51123364694E+03  0.26297303916E+03 0.  0.
         25    1    3    3    0    0 -0.53038035349E+01 -0.66966229719E+01 -0.52985544381E+01  0.12549325827E+03  0.12509000000E+03 0.  0.
         25    1    4    4    0    0 -0.10138025172E+02 -0.21798446113E+01 -0.14458326004E+03  0.19146633767E+03  0.12509000000E+03 0.  0.
         25    1    4    4    0    0  0.15441828707E+02  0.88764675832E+01 -0.29374543779E+03  0.31976730927E+03  0.12509000000E+03 0.  0.
<mgrwt>
<rscale>  2 0.45674502E+03</rscale>
<asrwt>0</asrwt>
<pdfrwt beam="1">  1       21 0.14198504E-01 0.45674502E+03</pdfrwt>
<pdfrwt beam="2">  1       21 0.79437806E-01 0.45674502E+03</pdfrwt>
<totfact> 0.55701579E+04</totfact>
</mgrwt>
</event>
<event>
 7    0  0.4748297E-002  0.4547817E+03  0.7546771E-02  0.1026306E+00
         21   -1    0    0  502  501  0.00000000000E+00  0.00000000000E+00  0.14865128830E+03  0.14865128830E+03  0.00000000000E+00 0.  1.
         21   -1    0    0  501  502 -0.00000000000E+00 -0.00000000000E+00 -0.34783827237E+03  0.34783827237E+03  0.00000000000E+00 0.  1.
      99926    2    1    2    0    0 -0.17763568394E-14  0.00000000000E+00 -0.19918698407E+03  0.49648956067E+03  0.45478173802E+03 0.  0.
      99925    2    3    3    0    0  0.13849386541E+02 -0.42383041939E+02 -0.23863602776E+03  0.35795486141E+03  0.26305208859E+03 0.  0.
         25    1    4    4    0    0  0.22041465639E+02  0.12908842614E+02 -0.92656863599E+02  0.15775064785E+03  0.12509000000E+03 0.  0.
         25    1    4    4    0    0 -0.81920790978E+01 -0.55291884552E+02 -0.14597916416E+03  0.20020421356E+03  0.12509000000E+03 0.  0.
         25    1    3    3    0    0 -0.13849386541E+02  0.42383041939E+02  0.39449043692E+02  0.13853469926E+03  0.12509000000E+03 0.  0.
<mgrwt>
<rscale>  2 0.45478174E+03</rscale>
<asrwt>0</asrwt>
<pdfrwt beam="1">  1       21 0.21860484E-01 0.45478174E+03</pdfrwt>
<pdfrwt beam="2">  1       21 0.51152686E-01 0.45478174E+03</pdfrwt>
<totfact> 0.65631630E+04</totfact>
</mgrwt>
</event>
<event>
 7    0  0.4748297E-002  0.4539404E+03  0.7546771E-02  0.1026553E+00
         21   -1    0    0  502  501  0.00000000000E+00  0.00000000000E+00  0.41590259996E+03  0.41590259996E+03  0.00000000000E+00 0. -1.
         21   -1    0    0  501  502 -0.00000000000E+00 -0.00000000000E+00 -0.12386424976E+03  0.12386424976E+03  0.00000000000E+00 0. -1.
      99926    2    1    2    0    0  0.17763568394E-14 -0.14210854715E-13  0.29203835020E+03  0.53976684972E+03  0.45394036400E+03 0.  0.
      99925    2    3    3    0    0 -0.15927710343E+02 -0.86187822359E+02  0.10044522761E+03  0.29474141144E+03  0.26287111516E+03 0.  0.
         25    1    3    3    0    0  0.15927710343E+02  0.86187822359E+02  0.19159312259E+03  0.24502543828E+03  0.12509000000E+03 0.  0.
         25    1    4    4    0    0 -0.43095117424E+02 -0.30796805518E+02  0.66238743507E+02  0.15113143822E+03  0.12509000000E+03 0.  0.
         25    1    4    4    0    0  0.27167407081E+02 -0.55391016841E+02  0.34206484102E+02  0.14360997322E+03  0.12509000000E+03 0.  0.
<mgrwt>
<rscale>  2 0.45394036E+03</rscale>
<asrwt>0</asrwt>
<pdfrwt beam="1">  1       21 0.61162147E-01 0.45394036E+03</pdfrwt>
<pdfrwt beam="2">  1       21 0.18215331E-01 0.45394036E+03</pdfrwt>
<totfact> 0.63075115E+04</totfact>
</mgrwt>
</event>
<event>
 7    0  0.4748297E-002  0.4560781E+03  0.7546771E-02  0.1025925E+00
         21   -1    0    0  502  501  0.00000000000E+00  0.00000000000E+00  0.10322260959E+04  0.10322260959E+04  0.00000000000E+00 0. -1.
         21   -1    0    0  501  502 -0.00000000000E+00 -0.00000000000E+00 -0.50378303601E+02  0.50378303601E+02  0.00000000000E+00 0. -1.
      99926    2    1    2    0    0  0.00000000000E+00 -0.35527136788E-14  0.98184779234E+03  0.10826043995E+04  0.45607806194E+03 0.  0.
      99925    2    3    3    0    0  0.56560391617E+02  0.27506964487E+02  0.84329724765E+03  0.88562858242E+03  0.26311979614E+03 0.  0.
         25    1    4    4    0    0  0.59961787077E+02 -0.69748143568E+01  0.38422371697E+03  0.40855775201E+03  0.12509000000E+03 0.  0.
         25    1    3    3    0    0 -0.56560391617E+02 -0.27506964487E+02  0.13855054470E+03  0.19697581712E+03  0.12509000000E+03 0.  0.
         25    1    4    4    0    0 -0.34013954594E+01  0.34481778844E+02  0.45907353067E+03  0.47707083041E+03  0.12509000000E+03 0.  0.
<mgrwt>
<rscale>  2 0.45607806E+03</rscale>
<asrwt>0</asrwt>
<pdfrwt beam="1">  1       21 0.15179794E+00 0.45607806E+03</pdfrwt>
<pdfrwt beam="2">  1       21 0.74085747E-02 0.45607806E+03</pdfrwt>
<totfact> 0.35801198E+04</totfact>
</mgrwt>
</event>
<event>
 7    0  0.4748297E-002  0.4554381E+03  0.7546771E-02  0.1026113E+00
         21   -1    0    0  502  501  0.00000000000E+00  0.00000000000E+00  0.31993588692E+03  0.31993588692E+03  0.00000000000E+00 0.  1.
         21   -1    0    0  501  502 -0.00000000000E+00 -0.00000000000E+00 -0.16208239591E+03  0.16208239591E+03  0.00000000000E+00 0.  1.
      99926    2    1    2    0    0  0.00000000000E+00 -0.71054273576E-14  0.15785349101E+03  0.48201828283E+03  0.45543814109E+03 0.  0.
      99925    2    3    3    0    0  0.56975951512E+02 -0.56061863853E+02  0.13855098585E+02  0.27520378442E+03  0.26297522236E+03 0.  0.
         25    1    4    4    0    0 -0.14590048302E+01  0.55622707106E+00  0.14838424341E+02  0.12597668443E+03  0.12509000000E+03 0.  0.
         25    1    3    3    0    0 -0.56975951512E+02  0.56061863853E+02  0.14399839243E+03  0.20681449841E+03  0.12509000000E+03 0.  0.
         25    1    4    4    0    0  0.58434956342E+02 -0.56618090924E+02 -0.98332575608E+00  0.14922709999E+03  0.12509000000E+03 0.  0.
<mgrwt>
<rscale>  2 0.45543814E+03</rscale>
<asrwt>0</asrwt>
<pdfrwt beam="1">  1       21 0.47049395E-01 0.45543814E+03</pdfrwt>
<pdfrwt beam="2">  1       21 0.23835646E-01 0.45543814E+03</pdfrwt>
<totfact> 0.66322513E+04</totfact>
</mgrwt>
</event>
<event>
 7    0  0.4748297E-002  0.4574658E+03  0.7546771E-02  0.1025519E+00
         21   -1    0    0  502  501  0.00000000000E+00  0.00000000000E+00  0.70705846431E+02  0.70705846431E+02  0.00000000000E+00 0.  1.
         21   -1    0    0  501  502 -0.00000000000E+00 -0.00000000000E+00 -0.73994923674E+03  0.73994923674E+03  0.00000000000E+00 0.  1.
      99926    2    1    2    0    0  0.00000000000E+00  0.00000000000E+00 -0.66924339031E+03  0.81065508317E+03  0.45746578932E+03 0.  0.
      99925    2    3    3    0    0 -0.10835742305E+03 -0.37025667233E+02 -0.43769023816E+03  0.52364184039E+03  0.26365849362E+03 0.  0.
         25    1    3    3    0    0  0.10835742305E+03  0.37025667233E+02 -0.23155315215E+03  0.28701324278E+03  0.12509000000E+03 0.  0.
         25    1    4    4    0    0 -0.95327853183E+02 -0.40108728759E+01 -0.24644352657E+03  0.29237887506E+03  0.12509000000E+03 0.  0.
         25    1    4    4    0    0 -0.13029569864E+02 -0.33014794357E+02 -0.19124671159E+03  0.23126296533E+03  0.12509000000E+03 0.  0.
<mgrwt>
<rscale>  2 0.45746579E+03</rscale>
<asrwt>0</asrwt>
<pdfrwt beam="1">  1       21 0.10397919E-01 0.45746579E+03</pdfrwt>
<pdfrwt beam="2">  1       21 0.10881606E+00 0.45746579E+03</pdfrwt>
<totfact> 0.46350364E+04</totfact>
</mgrwt>
</event>
<event>
 7    0  0.4748297E-002  0.4505844E+03  0.7546771E-02  0.1027548E+00
         21   -1    0    0  502  501  0.00000000000E+00  0.00000000000E+00  0.13109864764E+04  0.13109864764E+04  0.00000000000E+00 0. -1.
         21   -1    0    0  501  502 -0.00000000000E+00 -0.00000000000E+00 -0.38716322340E+02  0.38716322340E+02  0.00000000000E+00 0. -1.
      99926    2    1    2    0    0  0.00000000000E+00 -0.14210854715E-13  0.12722701540E+04  0.13497027987E+04  0.45058439832E+03 0.  0.
      99925    2    3    3    0    0 -0.14796719154E+02  0.10658116877E+03  0.75175878696E+03  0.80366426547E+03  0.26297621449E+03 0.  0.
         25    1    4    4    0    0 -0.74194488616E+01  0.93864453249E+02  0.45876668127E+03  0.48474731536E+03  0.12509000000E+03 0.  0.
         25    1    4    4    0    0 -0.73772702925E+01  0.12716715522E+02  0.29299210570E+03  0.31891695012E+03  0.12509000000E+03 0.  0.
         25    1    3    3    0    0  0.14796719154E+02 -0.10658116877E+03  0.52051136706E+03  0.54603853323E+03  0.12509000000E+03 0.  0.
<mgrwt>
<rscale>  2 0.45058440E+03</rscale>
<asrwt>0</asrwt>
<pdfrwt beam="1">  1       21 0.19279210E+00 0.45058440E+03</pdfrwt>
<pdfrwt beam="2">  1       21 0.56935777E-02 0.45058440E+03</pdfrwt>
<totfact> 0.28675386E+04</totfact>
</mgrwt>
</event>
<event>
 7    0  0.4748297E-002  0.4505244E+03  0.7546771E-02  0.1027566E+00
         21   -1    0    0  502  501  0.00000000000E+00  0.00000000000E+00  0.18199871775E+02  0.18199871775E+02  0.00000000000E+00 0. -1.
         21   -1    0    0  501  502 -0.00000000000E+00 -0.00000000000E+00 -0.27881000743E+04  0.27881000743E+04  0.00000000000E+00 0. -1.
      99926    2    1    2    0    0  0.00000000000E+00  0.71054273576E-14 -0.27699002026E+04  0.28062999461E+04  0.45052442264E+03 0.  0.
      99925    2    3    3    0    0  0.78130660955E+02 -0.53486379477E+02 -0.20852965867E+04  0.21039504520E+04  0.26302178021E+03 0.  0.
         25    1    3    3    0    0 -0.78130660955E+02  0.53486379477E+02 -0.68460361581E+03  0.70234949409E+03  0.12509000000E+03 0.  0.
         25    1    4    4    0    0  0.56097010201E+02 -0.40336902822E+02 -0.13611878858E+04  0.13686686629E+04  0.12509000000E+03 0.  0.
         25    1    4    4    0    0  0.22033650754E+02 -0.13149476656E+02 -0.72410870095E+03  0.73528178911E+03  0.12509000000E+03 0.  0.
<mgrwt>
<rscale>  2 0.45052442E+03</rscale>
<asrwt>0</asrwt>
<pdfrwt beam="1">  1       21 0.26764507E-02 0.45052442E+03</pdfrwt>
<pdfrwt beam="2">  1       21 0.41001488E+00 0.45052442E+03</pdfrwt>
<totfact> 0.46376483E+03</totfact>
</mgrwt>
</event>
<event>
 7    0  0.4748297E-002  0.4511185E+03  0.7546771E-02  0.1027389E+00
         21   -1    0    0  502  501  0.00000000000E+00  0.00000000000E+00  0.48804991194E+03  0.48804991194E+03  0.00000000000E+00 0. -1.
         21   -1    0    0  501  502 -0.00000000000E+00 -0.00000000000E+00 -0.10424541754E+03  0.10424541754E+03  0.00000000000E+00 0. -1.
      99926    2    1    2    0    0  0.00000000000E+00  0.17763568394E-14  0.38380449440E+03  0.59229532949E+03  0.45111846272E+03 0.  0.
      99925    2    3    3    0    0  0.74439023240E+02  0.79190254215E+01  0.13726075270E+03  0.30587744629E+03  0.26290039705E+03 0.  0.
         25    1    4    4    0    0  0.29895359188E+02  0.40874866408E+02  0.84616045552E+02  0.15928549987E+03  0.12509000000E+03 0.  0.
         25    1    4    4    0    0  0.44543664052E+02 -0.32955840986E+02  0.52644707148E+02  0.14659194641E+03  0.12509000000E+03 0.  0.
         25    1    3    3    0    0 -0.74439023240E+02 -0.79190254215E+01  0.24654374170E+03  0.28641788320E+03  0.12509000000E+03 0.  0.
<mgrwt>
<rscale>  2 0.45111846E+03</rscale>
<asrwt>0</asrwt>
<pdfrwt beam="1">  1       21 0.71772045E-01 0.45111846E+03</pdfrwt>
<pdfrwt beam="2">  1       21 0.15330209E-01 0.45111846E+03</pdfrwt>
<totfact> 0.61004952E+04</totfact>
</mgrwt>
</event>
<event>
 7    0  0.4748297E-002  0.4569811E+03  0.7546771E-02  0.1025660E+00
         21   -1    0    0  502  501  0.00000000000E+00  0.00000000000E+00  0.17474937406E+03  0.17474937406E+03  0.00000000000E+00 0.  1.
         21   -1    0    0  501  502 -0.00000000000E+00 -0.00000000000E+00 -0.29875884955E+03  0.29875884955E+03  0.00000000000E+00 0.  1.
      99926    2    1    2    0    0 -0.17763568394E-14  0.88817841970E-15 -0.12400947549E+03  0.47350822361E+03  0.45698105849E+03 0.  0.
      99925    2    3    3    0    0  0.93516909958E+01  0.56753715512E+01  0.40915723642E+02  0.26622220533E+03  0.26283169938E+03 0.  0.
         25    1    4    4    0    0 -0.18930521184E+02  0.43564942672E+00  0.53274301893E+02  0.13727422833E+03  0.12509000000E+03 0.  0.
         25    1    4    4    0    0  0.28282212180E+02  0.52397221244E+01 -0.12358578250E+02  0.12894797699E+03  0.12509000000E+03 0.  0.
         25    1    3    3    0    0 -0.93516909958E+01 -0.56753715512E+01 -0.16492519914E+03  0.20728601829E+03  0.12509000000E+03 0.  0.
<mgrwt>
<rscale>  2 0.45698106E+03</rscale>
<asrwt>0</asrwt>
<pdfrwt beam="1">  1       21 0.25698438E-01 0.45698106E+03</pdfrwt>
<pdfrwt beam="2">  1       21 0.43935124E-01 0.45698106E+03</pdfrwt>
<totfact> 0.66130208E+04</totfact>
</mgrwt>
</event>
<event>
 7    0  0.4748297E-002  0.4550840E+03  0.7546771E-02  0.1026217E+00
         21   -1    0    0  502  501  0.00000000000E+00  0.00000000000E+00  0.12019144588E+03  0.12019144588E+03  0.00000000000E+00 0. -1.
         21   -1    0    0  501  502 -0.00000000000E+00 -0.00000000000E+00 -0.43077400810E+03  0.43077400810E+03  0.00000000000E+00 0. -1.
      99926    2    1    2    0    0 -0.71054273576E-14  0.71054273576E-14 -0.31058256222E+03  0.55096545398E+03  0.45508395217E+03 0.  0.
      99925    2    3    3    0    0 -0.37162694839E+02  0.46847480043E+02 -0.31189885986E+03  0.41231123293E+03  0.26295228036E+03 0.  0.
         25    1    4    4    0    0 -0.40340018971E+02  0.17793988651E+01 -0.11469881765E+03  0.17445288837E+03  0.12509000000E+03 0.  0.
         25    1    3    3    0    0  0.37162694839E+02 -0.46847480043E+02  0.13162976358E+01  0.13865422104E+03  0.12509000000E+03 0.  0.
         25    1    4    4    0    0  0.31773241323E+01  0.45068081178E+02 -0.19720004221E+03  0.23785834456E+03  0.12509000000E+03 0.  0.
<mgrwt>
<rscale>  2 0.45508395E+03</rscale>
<asrwt>0</asrwt>
<pdfrwt beam="1">  1       21 0.17675213E-01 0.45508395E+03</pdfrwt>
<pdfrwt beam="2">  1       21 0.63349119E-01 0.45508395E+03</pdfrwt>
<totfact> 0.61761726E+04</totfact>
</mgrwt>
</event>
<event>
 7    0  0.4748297E-002  0.4625153E+03  0.7546771E-02  0.1024054E+00
         21   -1    0    0  502  501  0.00000000000E+00  0.00000000000E+00  0.55319754701E+02  0.55319754701E+02  0.00000000000E+00 0. -1.
         21   -1    0    0  501  502 -0.00000000000E+00 -0.00000000000E+00 -0.96674501271E+03  0.96674501271E+03  0.00000000000E+00 0. -1.
      99926    2    1    2    0    0  0.71054273576E-14  0.14210854715E-13 -0.91142525801E+03  0.10220647674E+04  0.46251528390E+03 0.  0.
      99925    2    3    3    0    0  0.45611985889E+02  0.11016006154E+03 -0.53716122103E+03  0.60983088974E+03  0.26293695879E+03 0.  0.
         25    1    3    3    0    0 -0.45611985889E+02 -0.11016006154E+03 -0.37426403699E+03  0.41223387767E+03  0.12509000000E+03 0.  0.
         25    1    4    4    0    0 -0.15915216520E+02  0.62967006779E+02 -0.28222354959E+03  0.31546121489E+03  0.12509000000E+03 0.  0.
         25    1    4    4    0    0  0.61527202409E+02  0.47193054766E+02 -0.25493767144E+03  0.29436967485E+03  0.12509000000E+03 0.  0.
<mgrwt>
<rscale>  2 0.46251528E+03</rscale>
<asrwt>0</asrwt>
<pdfrwt beam="1">  1       21 0.81352584E-02 0.46251528E+03</pdfrwt>
<pdfrwt beam="2">  1       21 0.14216838E+00 0.46251528E+03</pdfrwt>
<totfact> 0.36151107E+04</totfact>
</mgrwt>
</event>
<event>
 7    0  0.4748297E-002  0.4577482E+03  0.7546771E-02  0.1025436E+00
         21   -1    0    0  502  501  0.00000000000E+00  0.00000000000E+00  0.51242679497E+02  0.51242679497E+02  0.00000000000E+00 0.  1.
         21   -1    0    0  501  502 -0.00000000000E+00 -0.00000000000E+00 -0.10222601580E+04  0.10222601580E+04  0.00000000000E+00 0.  1.
      99926    2    1    2    0    0  0.14210854715E-13 -0.88817841970E-15 -0.97101747851E+03  0.10735028375E+04  0.45774818247E+03 0.  0.
      99925    2    3    3    0    0  0.88827097507E+02 -0.69863574312E+01 -0.78245593515E+03  0.83031150095E+03  0.26313653436E+03 0.  0.
         25    1    4    4    0    0  0.13468577668E+02  0.28511519666E+01 -0.28019625402E+03  0.30715953594E+03  0.12509000000E+03 0.  0.
         25    1    4    4    0    0  0.75358519839E+02 -0.98375093978E+01 -0.50225968113E+03  0.52315196501E+03  0.12509000000E+03 0.  0.
         25    1    3    3    0    0 -0.88827097507E+02  0.69863574312E+01 -0.18856154336E+03  0.24319133656E+03  0.12509000000E+03 0.  0.
<mgrwt>
<rscale>  2 0.45774818E+03</rscale>
<asrwt>0</asrwt>
<pdfrwt beam="1">  1       21 0.75356885E-02 0.45774818E+03</pdfrwt>
<pdfrwt beam="2">  1       21 0.15033237E+00 0.45774818E+03</pdfrwt>
<totfact> 0.35655852E+04</totfact>
</mgrwt>
</event>
<event>
 7    0  0.4748297E-002  0.4562758E+03  0.7546771E-02  0.1025867E+00
         21   -1    0    0  502  501  0.00000000000E+00  0.00000000000E+00  0.54340217101E+02  0.54340217101E+02  0.00000000000E+00 0.  1.
         21   -1    0    0  501  502 -0.00000000000E+00 -0.00000000000E+00 -0.95779706358E+03  0.95779706358E+03  0.00000000000E+00 0.  1.
      99926    2    1    2    0    0  0.00000000000E+00  0.14210854715E-13 -0.90345684648E+03  0.10121372807E+04  0.45627579543E+03 0.  0.
      99925    2    3    3    0    0  0.55993842779E+02  0.79628751787E+02 -0.43598654434E+03  0.51852605712E+03  0.26326594259E+03 0.  0.
         25    1    4    4    0    0  0.40235399173E+02  0.10172441691E+02 -0.25714110359E+03  0.28894882103E+03  0.12509000000E+03 0.  0.
         25    1    3    3    0    0 -0.55993842779E+02 -0.79628751787E+02 -0.46747030214E+03  0.49361122356E+03  0.12509000000E+03 0.  0.
         25    1    4    4    0    0  0.15758443607E+02  0.69456310096E+02 -0.17884544075E+03  0.22957723609E+03  0.12509000000E+03 0.  0.
<mgrwt>
<rscale>  2 0.45627580E+03</rscale>
<asrwt>0</asrwt>
<pdfrwt beam="1">  1       21 0.79912089E-02 0.45627580E+03</pdfrwt>
<pdfrwt beam="2">  1       21 0.14085250E+00 0.45627580E+03</pdfrwt>
<totfact> 0.38314866E+04</totfact>
</mgrwt>
</event>
<event>
 7    0  0.4748297E-002  0.4520519E+03  0.7546771E-02  0.1027112E+00
         21   -1    0    0  502  501  0.00000000000E+00  0.00000000000E+00  0.35372928725E+02  0.35372928725E+02  0.00000000000E+00 0.  1.
         21   -1    0    0  501  502 -0.00000000000E+00 -0.00000000000E+00 -0.14442608135E+04  0.14442608135E+04  0.00000000000E+00 0.  1.
      99926    2    1    2    0    0 -0.88817841970E-15  0.00000000000E+00 -0.14088878848E+04  0.14796337422E+04  0.45205192099E+03 0.  0.
      99925    2    3    3    0    0  0.60793951737E+01  0.96858896500E+02 -0.71700153610E+03  0.76986417929E+03  0.26302290189E+03 0.  0.
         25    1    3    3    0    0 -0.60793951737E+01 -0.96858896500E+02 -0.69188634870E+03  0.70976956295E+03  0.12509000000E+03 0.  0.
         25    1    4    4    0    0 -0.32626415105E+02  0.37445354415E+02 -0.30120554257E+03  0.32990744839E+03  0.12509000000E+03 0.  0.
         25    1    4    4    0    0  0.38705810279E+02  0.59413542085E+02 -0.41579599353E+03  0.43995673090E+03  0.12509000000E+03 0.  0.
<mgrwt>
<rscale>  2 0.45205192E+03</rscale>
<asrwt>0</asrwt>
<pdfrwt beam="1">  1       21 0.52019010E-02 0.45205192E+03</pdfrwt>
<pdfrwt beam="2">  1       21 0.21239131E+00 0.45205192E+03</pdfrwt>
<totfact> 0.24846856E+04</totfact>
</mgrwt>
</event>
<event>
 7    0  0.4748297E-002  0.4553228E+03  0.7546771E-02  0.1026147E+00
         21   -1    0    0  502  501  0.00000000000E+00  0.00000000000E+00  0.10681076822E+04  0.10681076822E+04  0.00000000000E+00 0.  1.
         21   -1    0    0  501  502 -0.00000000000E+00 -0.00000000000E+00 -0.48524802797E+02  0.48524802797E+02  0.00000000000E+00 0.  1.
      99926    2    1    2    0    0 -0.17763568394E-14 -0.14210854715E-13  0.10195828794E+04  0.11166324850E+04  0.45532280700E+03 0.  0.
      99925    2    3    3    0    0  0.11568046334E+02  0.11131085684E+03  0.59523758158E+03  0.66029887191E+03  0.26298839362E+03 0.  0.
         25    1    4    4    0    0 -0.26852008609E+02  0.31240364517E+02  0.25204400480E+03  0.28437770517E+03  0.12509000000E+03 0.  0.
         25    1    3    3    0    0 -0.11568046334E+02 -0.11131085684E+03  0.42434529779E+03  0.45633361306E+03  0.12509000000E+03 0.  0.
         25    1    4    4    0    0  0.38420054943E+02  0.80070492319E+02  0.34319357677E+03  0.37592116674E+03  0.12509000000E+03 0.  0.
<mgrwt>
<rscale>  2 0.45532281E+03</rscale>
<asrwt>0</asrwt>
<pdfrwt beam="1">  1       21 0.15707464E+00 0.45532281E+03</pdfrwt>
<pdfrwt beam="2">  1       21 0.71360011E-02 0.45532281E+03</pdfrwt>
<totfact> 0.34828398E+04</totfact>
</mgrwt>
</event>
<event>
 7    0  0.4748297E-002  0.4560764E+03  0.7546771E-02  0.1025925E+00
         21   -1    0    0  502  501  0.00000000000E+00  0.00000000000E+00  0.75082807272E+02  0.75082807272E+02  0.00000000000E+00 0. -1.
         21   -1    0    0  501  502 -0.00000000000E+00 -0.00000000000E+00 -0.69258753095E+03  0.69258753095E+03  0.00000000000E+00 0. -1.
      99926    2    1    2    0    0  0.00000000000E+00  0.00000000000E+00 -0.61750472368E+03  0.76767033822E+03  0.45607638003E+03 0.  0.
      99925    2    3    3    0    0  0.98798623798E+02  0.37569686386E+02 -0.31534688733E+03  0.42398513987E+03  0.26295834287E+03 0.  0.
         25    1    4    4    0    0  0.73193552456E+02  0.33245515477E+02 -0.21558811290E+03  0.26189368634E+03  0.12509000000E+03 0.  0.
         25    1    4    4    0    0  0.25605071342E+02  0.43241709090E+01 -0.99758774432E+02  0.16209145353E+03  0.12509000000E+03 0.  0.
         25    1    3    3    0    0 -0.98798623798E+02 -0.37569686386E+02 -0.30215783634E+03  0.34368519835E+03  0.12509000000E+03 0.  0.
<mgrwt>
<rscale>  2 0.45607638E+03</rscale>
<asrwt>0</asrwt>
<pdfrwt beam="1">  1       21 0.11041589E-01 0.45607638E+03</pdfrwt>
<pdfrwt beam="2">  1       21 0.10185111E+00 0.45607638E+03</pdfrwt>
<totfact> 0.48953230E+04</totfact>
</mgrwt>
</event>
<event>
 7    0  0.4748297E-002  0.4438018E+03  0.7546771E-02  0.1029587E+00
         21   -1    0    0  502  501  0.00000000000E+00  0.00000000000E+00  0.41000069437E+03  0.41000069437E+03  0.00000000000E+00 0. -1.
         21   -1    0    0  501  502 -0.00000000000E+00 -0.00000000000E+00 -0.12009739202E+03  0.12009739202E+03  0.00000000000E+00 0. -1.
      99926    2    1    2    0    0 -0.35527136788E-14  0.00000000000E+00  0.28990330235E+03  0.53009808639E+03  0.44380182117E+03 0.  0.
      99925    2    3    3    0    0  0.25410758306E+02  0.84031936398E+02  0.12147031292E+03  0.30266842034E+03  0.26295638949E+03 0.  0.
         25    1    4    4    0    0  0.30848054854E+02  0.37991291951E+02  0.21657717562E+02  0.13605699388E+03  0.12509000000E+03 0.  0.
         25    1    4    4    0    0 -0.54372965477E+01  0.46040644448E+02  0.99812595362E+02  0.16661142646E+03  0.12509000000E+03 0.  0.
         25    1    3    3    0    0 -0.25410758306E+02 -0.84031936398E+02  0.16843298942E+03  0.22742966605E+03  0.12509000000E+03 0.  0.
<mgrwt>
<rscale>  2 0.44380182E+03</rscale>
<asrwt>0</asrwt>
<pdfrwt beam="1">  1       21 0.60294219E-01 0.44380182E+03</pdfrwt>
<pdfrwt beam="2">  1       21 0.17661381E-01 0.44380182E+03</pdfrwt>
<totfact> 0.69128014E+04</totfact>
</mgrwt>
</event>
<event>
 7    0  0.4748297E-002  0.4503256E+03  0.7546771E-02  0.1027625E+00
         21   -1    0    0  502  501  0.00000000000E+00  0.00000000000E+00  0.33161272914E+02  0.33161272914E+02  0.00000000000E+00 0. -1.
         21   -1    0    0  501  502 -0.00000000000E+00 -0.00000000000E+00 -0.15288404297E+04  0.15288404297E+04  0.00000000000E+00 0. -1.
      99926    2    1    2    0    0 -0.35527136788E-14  0.00000000000E+00 -0.14956791567E+04  0.15620017026E+04  0.45032563654E+03 0.  0.
      99925    2    3    3    0    0  0.19464645023E+02  0.10253205527E+03 -0.10509212925E+04  0.10883470175E+04  0.26300565156E+03 0.  0.
         25    1    4    4    0    0 -0.16482448680E+02  0.21921376355E+02 -0.54030851783E+03  0.55527742652E+03  0.12509000000E+03 0.  0.
         25    1    4    4    0    0  0.35947093704E+02  0.80610678920E+02 -0.51061277462E+03  0.53306959096E+03  0.12509000000E+03 0.  0.
         25    1    3    3    0    0 -0.19464645023E+02 -0.10253205527E+03 -0.44475786430E+03  0.47365468510E+03  0.12509000000E+03 0.  0.
<mgrwt>
<rscale>  2 0.45032564E+03</rscale>
<asrwt>0</asrwt>
<pdfrwt beam="1">  1       21 0.48766573E-02 0.45032564E+03</pdfrwt>
<pdfrwt beam="2">  1       21 0.22482950E+00 0.45032564E+03</pdfrwt>
<totfact> 0.23127944E+04</totfact>
</mgrwt>
</event>
<event>
 7    0  0.4748297E-002  0.4550857E+03  0.7546771E-02  0.1026216E+00
         21   -1    0    0  502  501  0.00000000000E+00  0.00000000000E+00  0.18124582016E+04  0.18124582016E+04  0.00000000000E+00 0. -1.
         21   -1    0    0  501  502 -0.00000000000E+00 -0.00000000000E+00 -0.28566595278E+02  0.28566595278E+02  0.00000000000E+00 0. -1.
      99926    2    1    2    0    0  0.71054273576E-14 -0.11102230246E-15  0.17838916063E+04  0.18410247969E+04  0.45508574974E+03 0.  0.
      99925    2    3    3    0    0 -0.56843013109E+02  0.80891938223E+00  0.15184680622E+04  0.15421453089E+04  0.26312566425E+03 0.  0.
         25    1    3    3    0    0  0.56843013109E+02 -0.80891938223E+00  0.26542354409E+03  0.29887948800E+03  0.12509000000E+03 0.  0.
         25    1    4    4    0    0 -0.95349339271E+01  0.36501693745E+02  0.76069706723E+03  0.77183600901E+03  0.12509000000E+03 0.  0.
         25    1    4    4    0    0 -0.47308079182E+02 -0.35692774363E+02  0.75777099501E+03  0.77030929988E+03  0.12509000000E+03 0.  0.
<mgrwt>
<rscale>  2 0.45508575E+03</rscale>
<asrwt>0</asrwt>
<pdfrwt beam="1">  1       21 0.26653789E+00 0.45508575E+03</pdfrwt>
<pdfrwt beam="2">  1       21 0.42009711E-02 0.45508575E+03</pdfrwt>
<totfact> 0.16472998E+04</totfact>
</mgrwt>
</event>
<event>
 7    0  0.4748297E-002  0.4407071E+03  0.7546771E-02  0.1030530E+00
         21   -1    0    0  502  501  0.00000000000E+00  0.00000000000E+00  0.20705028450E+03  0.20705028450E+03  0.00000000000E+00 0. -1.
         21   -1    0    0  501  502 -0.00000000000E+00 -0.00000000000E+00 -0.23451158755E+03  0.23451158755E+03  0.00000000000E+00 0. -1.
      99926    2    1    2    0    0  0.00000000000E+00  0.00000000000E+00 -0.27461303043E+02  0.44156187205E+03  0.44070711780E+03 0.  0.
      99925    2    3    3    0    0 -0.18502277387E+02 -0.24803757133E+02 -0.11199341160E+03  0.28744910128E+03  0.26291995160E+03 0.  0.
         25    1    4    4    0    0 -0.18800512392E+02 -0.12974619194E+02 -0.13647349931E+02  0.12788885123E+03  0.12509000000E+03 0.  0.
         25    1    3    3    0    0  0.18502277387E+02  0.24803757133E+02  0.84532108559E+02  0.15411277077E+03  0.12509000000E+03 0.  0.
         25    1    4    4    0    0  0.29823500519E+00 -0.11829137939E+02 -0.98346061672E+02  0.15956025005E+03  0.12509000000E+03 0.  0.
<mgrwt>
<rscale>  2 0.44070712E+03</rscale>
<asrwt>0</asrwt>
<pdfrwt beam="1">  1       21 0.30448571E-01 0.44070712E+03</pdfrwt>
<pdfrwt beam="2">  1       21 0.34486998E-01 0.44070712E+03</pdfrwt>
<totfact> 0.78072401E+04</totfact>
</mgrwt>
</event>
<event>
 7    0  0.4748297E-002  0.4582104E+03  0.7546771E-02  0.1025302E+00
         21   -1    0    0  502  501  0.00000000000E+00  0.00000000000E+00  0.83109658189E+02  0.83109658189E+02  0.00000000000E+00 0. -1.
         21   -1    0    0  501  502 -0.00000000000E+00 -0.00000000000E+00 -0.63156554681E+03  0.63156554681E+03  0.00000000000E+00 0. -1.
      99926    2    1    2    0    0  0.00000000000E+00  0.00000000000E+00 -0.54845588862E+03  0.71467520500E+03  0.45821041769E+03 0.  0.
      99925    2    3    3    0    0  0.72374717832E+02 -0.45070163895E+02 -0.46717648505E+03  0.54285183930E+03  0.26299207553E+03 0.  0.
         25    1    4    4    0    0  0.44377066722E+02 -0.61146633270E+02 -0.22324589042E+03  0.26682291974E+03  0.12509000000E+03 0.  0.
         25    1    4    4    0    0  0.27997651111E+02  0.16076469375E+02 -0.24393059463E+03  0.27602891956E+03  0.12509000000E+03 0.  0.
         25    1    3    3    0    0 -0.72374717832E+02  0.45070163895E+02 -0.81279403570E+02  0.17182336570E+03  0.12509000000E+03 0.  0.
<mgrwt>
<rscale>  2 0.45821042E+03</rscale>
<asrwt>0</asrwt>
<pdfrwt beam="1">  1       21 0.12222009E-01 0.45821042E+03</pdfrwt>
<pdfrwt beam="2">  1       21 0.92877283E-01 0.45821042E+03</pdfrwt>
<totfact> 0.50817804E+04</totfact>
</mgrwt>
</event>
<event>
 7    0  0.4748297E-002  0.4356758E+03  0.7546771E-02  0.1032082E+00
         21   -1    0    0  502  501  0.00000000000E+00  0.00000000000E+00  0.20949946533E+02  0.20949946533E+02  0.00000000000E+00 0. -1.
         21   -1    0    0  501  502 -0.00000000000E+00 -0.00000000000E+00 -0.22650818094E+04  0.22650818094E+04  0.00000000000E+00 0. -1.
      99926    2    1    2    0    0  0.00000000000E+00  0.00000000000E+00 -0.22441318629E+04  0.22860317559E+04  0.43567576384E+03 0.  0.
      99925    2    3    3    0    0  0.64449760309E+02  0.55442697812E+02 -0.12270000708E+04  0.12577165052E+04  0.26285731753E+03 0.  0.
         25    1    3    3    0    0 -0.64449760309E+02 -0.55442697812E+02 -0.10171317921E+04  0.10283152507E+04  0.12509000000E+03 0.  0.
         25    1    4    4    0    0  0.88879809673E+01  0.11614981325E+01 -0.46466070086E+03  0.48128725342E+03  0.12509000000E+03 0.  0.
         25    1    4    4    0    0  0.55561779341E+02  0.54281199680E+02 -0.76233936993E+03  0.77642925177E+03  0.12509000000E+03 0.  0.
<mgrwt>
<rscale>  2 0.43567576E+03</rscale>
<asrwt>0</asrwt>
<pdfrwt beam="1">  1       21 0.30808739E-02 0.43567576E+03</pdfrwt>
<pdfrwt beam="2">  1       21 0.33310033E+00 0.43567576E+03</pdfrwt>
<totfact> 0.11160587E+04</totfact>
</mgrwt>
</event>
<event>
 7    0  0.4748297E-002  0.4535097E+03  0.7546771E-02  0.1026681E+00
         21   -1    0    0  502  501  0.00000000000E+00  0.00000000000E+00  0.93464839647E+03  0.93464839647E+03  0.00000000000E+00 0. -1.
         21   -1    0    0  501  502 -0.00000000000E+00 -0.00000000000E+00 -0.55012936668E+02  0.55012936668E+02  0.00000000000E+00 0. -1.
      99926    2    1    2    0    0  0.00000000000E+00 -0.14210854715E-13  0.87963545980E+03  0.98966133314E+03  0.45350966050E+03 0.  0.
      99925    2    3    3    0    0  0.49227722861E+02 -0.67030433962E+02  0.71728512589E+03  0.76847908521E+03  0.26295570884E+03 0.  0.
         25    1    4    4    0    0  0.12813157095E+01  0.12242673786E+01  0.34488121819E+03  0.36687014509E+03  0.12509000000E+03 0.  0.
         25    1    3    3    0    0 -0.49227722861E+02  0.67030433962E+02  0.16235033391E+03  0.22118224792E+03  0.12509000000E+03 0.  0.
         25    1    4    4    0    0  0.47946407152E+02 -0.68254701341E+02  0.37240390770E+03  0.40160894012E+03  0.12509000000E+03 0.  0.
<mgrwt>
<rscale>  2 0.45350966E+03</rscale>
<asrwt>0</asrwt>
<pdfrwt beam="1">  1       21 0.13744828E+00 0.45350966E+03</pdfrwt>
<pdfrwt beam="2">  1       21 0.80901384E-02 0.45350966E+03</pdfrwt>
<totfact> 0.40035303E+04</totfact>
</mgrwt>
</event>
<event>
 7    0  0.4748297E-002  0.4527247E+03  0.7546771E-02  0.1026913E+00
         21   -1    0    0  502  501  0.00000000000E+00  0.00000000000E+00  0.26023974636E+03  0.26023974636E+03  0.00000000000E+00 0. -1.
         21   -1    0    0  501  502 -0.00000000000E+00 -0.00000000000E+00 -0.19689500758E+03  0.19689500758E+03  0.00000000000E+00 0. -1.
      99926    2    1    2    0    0  0.00000000000E+00  0.00000000000E+00  0.63344738779E+02  0.45713475393E+03  0.45272467055E+03 0.  0.
      99925    2    3    3    0    0  0.58204190065E+02  0.63157891582E+02 -0.30961575369E+02  0.27847911870E+03  0.26308810957E+03 0.  0.
         25    1    3    3    0    0 -0.58204190065E+02 -0.63157891582E+02  0.94306314148E+02  0.17865563523E+03  0.12509000000E+03 0.  0.
         25    1    4    4    0    0  0.30134432892E+02  0.23014648851E+02  0.24773191585E+02  0.13303750309E+03  0.12509000000E+03 0.  0.
         25    1    4    4    0    0  0.28069757173E+02  0.40143242731E+02 -0.55734766955E+02  0.14544161561E+03  0.12509000000E+03 0.  0.
<mgrwt>
<rscale>  2 0.45272467E+03</rscale>
<asrwt>0</asrwt>
<pdfrwt beam="1">  1       21 0.38270551E-01 0.45272467E+03</pdfrwt>
<pdfrwt beam="2">  1       21 0.28955148E-01 0.45272467E+03</pdfrwt>
<totfact> 0.69645061E+04</totfact>
</mgrwt>
</event>
<event>
 7    0  0.4748297E-002  0.4857508E+03  0.7546771E-02  0.1017567E+00
         21   -1    0    0  502  501  0.00000000000E+00  0.00000000000E+00  0.41593593283E+03  0.41593593283E+03  0.00000000000E+00 0.  1.
         21   -1    0    0  501  502 -0.00000000000E+00 -0.00000000000E+00 -0.14182104327E+03  0.14182104327E+03  0.00000000000E+00 0.  1.
      99926    2    1    2    0    0  0.00000000000E+00  0.35527136788E-14  0.27411488957E+03  0.55775697610E+03  0.48575083294E+03 0.  0.
      99925    2    3    3    0    0  0.11123188246E+03 -0.31642611714E+02  0.25885089534E+03  0.38671813790E+03  0.26300826149E+03 0.  0.
         25    1    4    4    0    0  0.40680610723E+02 -0.46216873099E+01  0.17249655251E+03  0.21697659047E+03  0.12509000000E+03 0.  0.
         25    1    3    3    0    0 -0.11123188246E+03  0.31642611714E+02  0.15263994222E+02  0.17103883820E+03  0.12509000000E+03 0.  0.
         25    1    4    4    0    0  0.70551271739E+02 -0.27020924404E+02  0.86354342832E+02  0.16974154744E+03  0.12509000000E+03 0.  0.
<mgrwt>
<rscale>  2 0.48575083E+03</rscale>
<asrwt>0</asrwt>
<pdfrwt beam="1">  1       21 0.61167049E-01 0.48575083E+03</pdfrwt>
<pdfrwt beam="2">  1       21 0.20856036E-01 0.48575083E+03</pdfrwt>
<totfact> 0.48441162E+04</totfact>
</mgrwt>
</event>
<event>
 7    0  0.4748297E-002  0.4495111E+03  0.7546771E-02  0.1027868E+00
         21   -1    0    0  502  501  0.00000000000E+00  0.00000000000E+00  0.55738321330E+03  0.55738321330E+03  0.00000000000E+00 0.  1.
         21   -1    0    0  501  502 -0.00000000000E+00 -0.00000000000E+00 -0.90628936210E+02  0.90628936210E+02  0.00000000000E+00 0.  1.
      99926    2    1    2    0    0  0.00000000000E+00  0.00000000000E+00  0.46675427709E+03  0.64801214951E+03  0.44951105741E+03 0.  0.
      99925    2    3    3    0    0 -0.19493688222E+02  0.10380543327E+03  0.32838921276E+03  0.43365737120E+03  0.26279967406E+03 0.  0.
         25    1    4    4    0    0 -0.57852293425E+01  0.29603873527E+02  0.10187862351E+03  0.16412379545E+03  0.12509000000E+03 0.  0.
         25    1    3    3    0    0  0.19493688222E+02 -0.10380543327E+03  0.13836506433E+03  0.21435477831E+03  0.12509000000E+03 0.  0.
         25    1    4    4    0    0 -0.13708458880E+02  0.74201559741E+02  0.22651058925E+03  0.26953357575E+03  0.12509000000E+03 0.  0.
<mgrwt>
<rscale>  2 0.44951106E+03</rscale>
<asrwt>0</asrwt>
<pdfrwt beam="1">  1       21 0.81968118E-01 0.44951106E+03</pdfrwt>
<pdfrwt beam="2">  1       21 0.13327785E-01 0.44951106E+03</pdfrwt>
<totfact> 0.58299992E+04</totfact>
</mgrwt>
</event>
<event>
 7    0  0.4748297E-002  0.4534017E+03  0.7546771E-02  0.1026712E+00
         21   -1    0    0  502  501  0.00000000000E+00  0.00000000000E+00  0.17544448032E+03  0.17544448032E+03  0.00000000000E+00 0. -1.
         21   -1    0    0  501  502 -0.00000000000E+00 -0.00000000000E+00 -0.29293186654E+03  0.29293186654E+03  0.00000000000E+00 0. -1.
      99926    2    1    2    0    0  0.00000000000E+00  0.00000000000E+00 -0.11748738621E+03  0.46837634686E+03  0.45340171634E+03 0.  0.
      99925    2    3    3    0    0  0.12147533476E+02  0.10697156469E+03 -0.43198302480E+02  0.28738779948E+03  0.26293568744E+03 0.  0.
         25    1    4    4    0    0  0.33878383682E+01  0.42648750375E+02 -0.60516097517E+02  0.14539635317E+03  0.12509000000E+03 0.  0.
         25    1    4    4    0    0  0.87596951082E+01  0.64322814313E+02  0.17317795037E+02  0.14199144631E+03  0.12509000000E+03 0.  0.
         25    1    3    3    0    0 -0.12147533476E+02 -0.10697156469E+03 -0.74289083734E+02  0.18098854738E+03  0.12509000000E+03 0.  0.
<mgrwt>
<rscale>  2 0.45340172E+03</rscale>
<asrwt>0</asrwt>
<pdfrwt beam="1">  1       21 0.25800659E-01 0.45340172E+03</pdfrwt>
<pdfrwt beam="2">  1       21 0.43078215E-01 0.45340172E+03</pdfrwt>
<totfact> 0.68420065E+04</totfact>
</mgrwt>
</event>
<event>
 7    0  0.4748297E-002  0.4529321E+03  0.7546771E-02  0.1026851E+00
         21   -1    0    0  502  501  0.00000000000E+00  0.00000000000E+00  0.63366094636E+02  0.63366094636E+02  0.00000000000E+00 0.  1.
         21   -1    0    0  501  502 -0.00000000000E+00 -0.00000000000E+00 -0.80937415002E+03  0.80937415002E+03  0.00000000000E+00 0.  1.
      99926    2    1    2    0    0 -0.14210854715E-13  0.00000000000E+00 -0.74600805539E+03  0.87274024466E+03  0.45293213172E+03 0.  0.
      99925    2    3    3    0    0  0.78677865051E+02  0.76556964674E+02 -0.50548849078E+03  0.58025375891E+03  0.26291564260E+03 0.  0.
         25    1    4    4    0    0  0.76300057470E+02  0.56160129291E+02 -0.25258101686E+03  0.29735557346E+03  0.12509000000E+03 0.  0.
         25    1    4    4    0    0  0.23778075811E+01  0.20396835383E+02 -0.25290747392E+03  0.28289818545E+03  0.12509000000E+03 0.  0.
         25    1    3    3    0    0 -0.78677865051E+02 -0.76556964674E+02 -0.24051956461E+03  0.29248648575E+03  0.12509000000E+03 0.  0.
<mgrwt>
<rscale>  2 0.45293213E+03</rscale>
<asrwt>0</asrwt>
<pdfrwt beam="1">  1       21 0.93185432E-02 0.45293213E+03</pdfrwt>
<pdfrwt beam="2">  1       21 0.11902561E+00 0.45293213E+03</pdfrwt>
<totfact> 0.45160364E+04</totfact>
</mgrwt>
</event>
<event>
 7    0  0.4748297E-002  0.4213772E+03  0.7546771E-02  0.1036619E+00
         21   -1    0    0  502  501  0.00000000000E+00  0.00000000000E+00  0.20971147328E+03  0.20971147328E+03  0.00000000000E+00 0.  1.
         21   -1    0    0  501  502 -0.00000000000E+00 -0.00000000000E+00 -0.21167026136E+03  0.21167026136E+03  0.00000000000E+00 0.  1.
      99926    2    1    2    0    0  0.00000000000E+00  0.00000000000E+00 -0.19587880748E+01  0.42138173464E+03  0.42137718191E+03 0.  0.
      99925    2    3    3    0    0 -0.36056631959E+02  0.43619453990E+02  0.51652627866E+02  0.27398964023E+03  0.26305815234E+03 0.  0.
         25    1    3    3    0    0  0.36056631959E+02 -0.43619453990E+02 -0.53611415941E+02  0.14739209441E+03  0.12509000000E+03 0.  0.
         25    1    4    4    0    0 -0.11572580405E+02 -0.93290523417E+01  0.51166990275E+02  0.13596516035E+03  0.12509000000E+03 0.  0.
         25    1    4    4    0    0 -0.24484051555E+02  0.52948506332E+02  0.48563759099E+00  0.13802447988E+03  0.12509000000E+03 0.  0.
<mgrwt>
<rscale>  2 0.42137718E+03</rscale>
<asrwt>0</asrwt>
<pdfrwt beam="1">  1       21 0.30839923E-01 0.42137718E+03</pdfrwt>
<pdfrwt beam="2">  1       21 0.31127980E-01 0.42137718E+03</pdfrwt>
<totfact> 0.93842147E+04</totfact>
</mgrwt>
</event>
<event>
 7    0  0.4748297E-002  0.4538640E+03  0.7546771E-02  0.1026576E+00
         21   -1    0    0  502  501  0.00000000000E+00  0.00000000000E+00  0.99006318518E+03  0.99006318518E+03  0.00000000000E+00 0.  1.
         21   -1    0    0  501  502 -0.00000000000E+00 -0.00000000000E+00 -0.52014998011E+02  0.52014998011E+02  0.00000000000E+00 0.  1.
      99926    2    1    2    0    0  0.00000000000E+00 -0.44408920985E-15  0.93804818717E+03  0.10420781832E+04  0.45386400874E+03 0.  0.
      99925    2    3    3    0    0 -0.67888737898E+02 -0.94058226565E+00  0.79569437393E+03  0.84077770711E+03  0.26299781489E+03 0.  0.
         25    1    4    4    0    0 -0.62390333597E+01 -0.30106270076E+02  0.35707058927E+03  0.37959481932E+03  0.12509000000E+03 0.  0.
         25    1    4    4    0    0 -0.61649704538E+02  0.29165687811E+02  0.43862378466E+03  0.46118288779E+03  0.12509000000E+03 0.  0.
         25    1    3    3    0    0  0.67888737898E+02  0.94058226565E+00  0.14235381324E+03  0.20130047609E+03  0.12509000000E+03 0.  0.
<mgrwt>
<rscale>  2 0.45386401E+03</rscale>
<asrwt>0</asrwt>
<pdfrwt beam="1">  1       21 0.14559752E+00 0.45386401E+03</pdfrwt>
<pdfrwt beam="2">  1       21 0.76492650E-02 0.45386401E+03</pdfrwt>
<totfact> 0.37904418E+04</totfact>
</mgrwt>
</event>
<event>
 7    0  0.4748297E-002  0.4595390E+03  0.7546771E-02  0.1024915E+00
         21   -1    0    0  502  501  0.00000000000E+00  0.00000000000E+00  0.10308944268E+03  0.10308944268E+03  0.00000000000E+00 0. -1.
         21   -1    0    0  501  502 -0.00000000000E+00 -0.00000000000E+00 -0.51211872037E+03  0.51211872037E+03  0.00000000000E+00 0. -1.
      99926    2    1    2    0    0 -0.17763568394E-14  0.00000000000E+00 -0.40902927769E+03  0.61520816305E+03  0.45953904499E+03 0.  0.
      99925    2    3    3    0    0  0.97332302635E+01 -0.11398412718E+03 -0.29159998917E+03  0.40899404393E+03  0.26297995601E+03 0.  0.
         25    1    4    4    0    0  0.32194080306E+02 -0.75592711589E+02 -0.18972932646E+03  0.24165148928E+03  0.12509000000E+03 0.  0.
         25    1    3    3    0    0 -0.97332302635E+01  0.11398412718E+03 -0.11742928851E+03  0.20621411911E+03  0.12509000000E+03 0.  0.
         25    1    4    4    0    0 -0.22460850042E+02 -0.38391415595E+02 -0.10187066271E+03  0.16734255465E+03  0.12509000000E+03 0.  0.
<mgrwt>
<rscale>  2 0.45953904E+03</rscale>
<asrwt>0</asrwt>
<pdfrwt beam="1">  1       21 0.15160212E-01 0.45953904E+03</pdfrwt>
<pdfrwt beam="2">  1       21 0.75311579E-01 0.45953904E+03</pdfrwt>
<totfact> 0.55727013E+04</totfact>
</mgrwt>
</event>
<event>
 7    0  0.4748297E-002  0.4542210E+03  0.7546771E-02  0.1026471E+00
         21   -1    0    0  502  501  0.00000000000E+00  0.00000000000E+00  0.33000972717E+02  0.33000972717E+02  0.00000000000E+00 0.  1.
         21   -1    0    0  501  502 -0.00000000000E+00 -0.00000000000E+00 -0.15629593252E+04  0.15629593252E+04  0.00000000000E+00 0.  1.
      99926    2    1    2    0    0 -0.71054273576E-14  0.00000000000E+00 -0.15299583525E+04  0.15959602979E+04  0.45422099489E+03 0.  0.
      99925    2    3    3    0    0  0.47184492878E+02 -0.10092772401E+03 -0.90906345806E+03  0.95286562382E+03  0.26295198121E+03 0.  0.
         25    1    4    4    0    0  0.62207515756E+02 -0.40145030439E+02 -0.44004817421E+03  0.46343424799E+03  0.12509000000E+03 0.  0.
         25    1    4    4    0    0 -0.15023022878E+02 -0.60782693567E+02 -0.46901528386E+03  0.48943137583E+03  0.12509000000E+03 0.  0.
         25    1    3    3    0    0 -0.47184492878E+02  0.10092772401E+03 -0.62089489440E+03  0.64309467409E+03  0.12509000000E+03 0.  0.
<mgrwt>
<rscale>  2 0.45422099E+03</rscale>
<asrwt>0</asrwt>
<pdfrwt beam="1">  1       21 0.48530838E-02 0.45422099E+03</pdfrwt>
<pdfrwt beam="2">  1       21 0.22984698E+00 0.45422099E+03</pdfrwt>
<totfact> 0.21651894E+04</totfact>
</mgrwt>
</event>
<event>
 7    0  0.4748297E-002  0.4569166E+03  0.7546771E-02  0.1025679E+00
         21   -1    0    0  502  501  0.00000000000E+00  0.00000000000E+00  0.12947728850E+03  0.12947728850E+03  0.00000000000E+00 0. -1.
         21   -1    0    0  501  502 -0.00000000000E+00 -0.00000000000E+00 -0.40310691114E+03  0.40310691114E+03  0.00000000000E+00 0. -1.
      99926    2    1    2    0    0  0.00000000000E+00  0.00000000000E+00 -0.27362962265E+03  0.53258419964E+03  0.45691657807E+03 0.  0.
      99925    2    3    3    0    0  0.95003036181E+02 -0.20690093951E+02 -0.24327002456E+03  0.37126814288E+03  0.26307047002E+03 0.  0.
         25    1    4    4    0    0  0.36507009349E+02 -0.45938753146E+02 -0.99034482450E+02  0.16999549284E+03  0.12509000000E+03 0.  0.
         25    1    4    4    0    0  0.58496026832E+02  0.25248659196E+02 -0.14423554211E+03  0.20127265004E+03  0.12509000000E+03 0.  0.
         25    1    3    3    0    0 -0.95003036181E+02  0.20690093951E+02 -0.30359598086E+02  0.16131605676E+03  0.12509000000E+03 0.  0.
<mgrwt>
<rscale>  2 0.45691658E+03</rscale>
<asrwt>0</asrwt>
<pdfrwt beam="1">  1       21 0.19040778E-01 0.45691658E+03</pdfrwt>
<pdfrwt beam="2">  1       21 0.59280428E-01 0.45691658E+03</pdfrwt>
<totfact> 0.62083483E+04</totfact>
</mgrwt>
</event>
<event>
 7    0  0.4748297E-002  0.4517727E+03  0.7546771E-02  0.1027195E+00
         21   -1    0    0  502  501  0.00000000000E+00  0.00000000000E+00  0.44554842471E+02  0.44554842471E+02  0.00000000000E+00 0. -1.
         21   -1    0    0  501  502 -0.00000000000E+00 -0.00000000000E+00 -0.11452099056E+04  0.11452099056E+04  0.00000000000E+00 0. -1.
      99926    2    1    2    0    0 -0.14210854715E-13 -0.71054273576E-14 -0.11006550632E+04  0.11897647481E+04  0.45177271693E+03 0.  0.
      99925    2    3    3    0    0  0.72667935271E+02  0.61034836010E+02 -0.54546105438E+03  0.61279527273E+03  0.26264882336E+03 0.  0.
         25    1    4    4    0    0  0.77494754652E+02  0.34984267538E+02 -0.30561414724E+03  0.34099391647E+03  0.12509000000E+03 0.  0.
         25    1    4    4    0    0 -0.48268193804E+01  0.26050568472E+02 -0.23984690714E+03  0.27180135627E+03  0.12509000000E+03 0.  0.
         25    1    3    3    0    0 -0.72667935271E+02 -0.61034836010E+02 -0.55519400878E+03  0.57696947537E+03  0.12509000000E+03 0.  0.
<mgrwt>
<rscale>  2 0.45177272E+03</rscale>
<asrwt>0</asrwt>
<pdfrwt beam="1">  1       21 0.65521834E-02 0.45177272E+03</pdfrwt>
<pdfrwt beam="2">  1       21 0.16841320E+00 0.45177272E+03</pdfrwt>
<totfact> 0.33311739E+04</totfact>
</mgrwt>
</event>
<event>
 7    0  0.4748297E-002  0.4499848E+03  0.7546771E-02  0.1027727E+00
         21   -1    0    0  502  501  0.00000000000E+00  0.00000000000E+00  0.19143093619E+03  0.19143093619E+03  0.00000000000E+00 0.  1.
         21   -1    0    0  501  502 -0.00000000000E+00 -0.00000000000E+00 -0.26443781337E+03  0.26443781337E+03  0.00000000000E+00 0.  1.
      99926    2    1    2    0    0  0.00000000000E+00  0.00000000000E+00 -0.73006877177E+02  0.45586874956E+03  0.44998479164E+03 0.  0.
      99925    2    3    3    0    0 -0.51864260648E+02  0.95175960608E+02 -0.46701525147E+02  0.28827446369E+03  0.26300716522E+03 0.  0.
         25    1    4    4    0    0 -0.20156761672E+02  0.30330643742E+02 -0.59617215446E+02  0.14327583002E+03  0.12509000000E+03 0.  0.
         25    1    3    3    0    0  0.51864260648E+02 -0.95175960608E+02 -0.26305352029E+02  0.16759428587E+03  0.12509000000E+03 0.  0.
         25    1    4    4    0    0 -0.31707498976E+02  0.64845316866E+02  0.12915690299E+02  0.14499863367E+03  0.12509000000E+03 0.  0.
<mgrwt>
<rscale>  2 0.44998479E+03</rscale>
<asrwt>0</asrwt>
<pdfrwt beam="1">  1       21 0.28151608E-01 0.44998479E+03</pdfrwt>
<pdfrwt beam="2">  1       21 0.38887913E-01 0.44998479E+03</pdfrwt>
<totfact> 0.71291484E+04</totfact>
</mgrwt>
</event>
<event>
 7    0  0.4748297E-002  0.4527131E+03  0.7546771E-02  0.1026916E+00
         21   -1    0    0  502  501  0.00000000000E+00  0.00000000000E+00  0.16437181143E+03  0.16437181143E+03  0.00000000000E+00 0.  1.
         21   -1    0    0  501  502 -0.00000000000E+00 -0.00000000000E+00 -0.31171579972E+03  0.31171579972E+03  0.00000000000E+00 0.  1.
      99926    2    1    2    0    0  0.00000000000E+00  0.00000000000E+00 -0.14734398829E+03  0.47608761115E+03  0.45271311292E+03 0.  0.
      99925    2    3    3    0    0 -0.85543422837E+02  0.43637102778E+02 -0.34177585294E+02  0.28198450248E+03  0.26291686590E+03 0.  0.
         25    1    4    4    0    0 -0.42760129939E+02  0.60896526059E+02 -0.57517113700E+01  0.14566195757E+03  0.12509000000E+03 0.  0.
         25    1    3    3    0    0  0.85543422837E+02 -0.43637102778E+02 -0.11316640299E+03  0.19410310867E+03  0.12509000000E+03 0.  0.
         25    1    4    4    0    0 -0.42783292898E+02 -0.17259423281E+02 -0.28425873924E+02  0.13632254491E+03  0.12509000000E+03 0.  0.
<mgrwt>
<rscale>  2 0.45271311E+03</rscale>
<asrwt>0</asrwt>
<pdfrwt beam="1">  1       21 0.24172325E-01 0.45271311E+03</pdfrwt>
<pdfrwt beam="2">  1       21 0.45840559E-01 0.45271311E+03</pdfrwt>
<totfact> 0.68215765E+04</totfact>
</mgrwt>
</event>
<event>
 7    0  0.4748297E-002  0.4540539E+03  0.7546771E-02  0.1026520E+00
         21   -1    0    0  502  501  0.00000000000E+00  0.00000000000E+00  0.46603333985E+02  0.46603333985E+02  0.00000000000E+00 0. -1.
         21   -1    0    0  501  502 -0.00000000000E+00 -0.00000000000E+00 -0.11059557494E+04  0.11059557494E+04  0.00000000000E+00 0. -1.
      99926    2    1    2    0    0  0.00000000000E+00  0.00000000000E+00 -0.10593524154E+04  0.11525590834E+04  0.45405385215E+03 0.  0.
      99925    2    3    3    0    0 -0.82992918817E+02 -0.58682544113E+02 -0.55410817867E+03  0.62222832582E+03  0.26419831609E+03 0.  0.
         25    1    4    4    0    0 -0.18486772144E+02  0.75810604217E+01 -0.22505608726E+03  0.25825759183E+03  0.12509000000E+03 0.  0.
         25    1    3    3    0    0  0.82992918817E+02  0.58682544113E+02 -0.50524423677E+03  0.53033075759E+03  0.12509000000E+03 0.  0.
         25    1    4    4    0    0 -0.64506146673E+02 -0.66263604535E+02 -0.32905209141E+03  0.36397073399E+03  0.12509000000E+03 0.  0.
<mgrwt>
<rscale>  2 0.45405385E+03</rscale>
<asrwt>0</asrwt>
<pdfrwt beam="1">  1       21 0.68534326E-02 0.45405385E+03</pdfrwt>
<pdfrwt beam="2">  1       21 0.16264053E+00 0.45405385E+03</pdfrwt>
<totfact> 0.33946668E+04</totfact>
</mgrwt>
</event>
<event>
 7    0  0.4748297E-002  0.4572427E+03  0.7546771E-02  0.1025584E+00
         21   -1    0    0  502  501  0.00000000000E+00  0.00000000000E+00  0.39891844973E+02  0.39891844973E+02  0.00000000000E+00 0.  1.
         21   -1    0    0  501  502 -0.00000000000E+00 -0.00000000000E+00 -0.13102359909E+04  0.13102359909E+04  0.00000000000E+00 0.  1.
      99926    2    1    2    0    0  0.00000000000E+00  0.00000000000E+00 -0.12703441459E+04  0.13501278359E+04  0.45724274090E+03 0.  0.
      99925    2    3    3    0    0  0.35473613147E+02  0.62442953262E+02 -0.53167650934E+03  0.59750915083E+03  0.26302048417E+03 0.  0.
         25    1    4    4    0    0 -0.73245629199E+01  0.54789043027E+02 -0.22257056028E+03  0.26122911564E+03  0.12509000000E+03 0.  0.
         25    1    3    3    0    0 -0.35473613147E+02 -0.62442953262E+02 -0.73866763659E+03  0.75261868505E+03  0.12509000000E+03 0.  0.
         25    1    4    4    0    0  0.42798176066E+02  0.76539102341E+01 -0.30910594907E+03  0.33628003519E+03  0.12509000000E+03 0.  0.
<mgrwt>
<rscale>  2 0.45724274E+03</rscale>
<asrwt>0</asrwt>
<pdfrwt beam="1">  1       21 0.58664473E-02 0.45724274E+03</pdfrwt>
<pdfrwt beam="2">  1       21 0.19268178E+00 0.45724274E+03</pdfrwt>
<totfact> 0.27214282E+04</totfact>
</mgrwt>
</event>
<event>
 7    0  0.4748297E-002  0.4579586E+03  0.7546771E-02  0.1025375E+00
         21   -1    0    0  502  501  0.00000000000E+00  0.00000000000E+00  0.60691163866E+03  0.60691163866E+03  0.00000000000E+00 0. -1.
         21   -1    0    0  501  502 -0.00000000000E+00 -0.00000000000E+00 -0.86390688528E+02  0.86390688528E+02  0.00000000000E+00 0. -1.
      99926    2    1    2    0    0  0.00000000000E+00 -0.35527136788E-14  0.52052095013E+03  0.69330232719E+03  0.45795857603E+03 0.  0.
      99925    2    3    3    0    0  0.35721246323E+02 -0.30179505690E+02  0.16584261726E+03  0.31431547001E+03  0.26287569494E+03 0.  0.
         25    1    3    3    0    0 -0.35721246323E+02  0.30179505690E+02  0.35467833287E+03  0.37898685718E+03  0.12509000000E+03 0.  0.
         25    1    4    4    0    0 -0.10049417721E+02  0.11315700674E+02  0.62211966562E+02  0.14052356657E+03  0.12509000000E+03 0.  0.
         25    1    4    4    0    0  0.45770664044E+02 -0.41495206364E+02  0.10363065070E+03  0.17379190344E+03  0.12509000000E+03 0.  0.
<mgrwt>
<rscale>  2 0.45795858E+03</rscale>
<asrwt>0</asrwt>
<pdfrwt beam="1">  1       21 0.89251710E-01 0.45795858E+03</pdfrwt>
<pdfrwt beam="2">  1       21 0.12704513E-01 0.45795858E+03</pdfrwt>
<totfact> 0.52045496E+04</totfact>
</mgrwt>
</event>
<event>
 7    0  0.4748297E-002  0.4546099E+03  0.7546771E-02  0.1026356E+00
         21   -1    0    0  502  501  0.00000000000E+00  0.00000000000E+00  0.23192262641E+03  0.23192262641E+03  0.00000000000E+00 0.  1.
         21   -1    0    0  501  502 -0.00000000000E+00 -0.00000000000E+00 -0.22277918704E+03  0.22277918704E+03  0.00000000000E+00 0.  1.
      99926    2    1    2    0    0  0.00000000000E+00  0.00000000000E+00  0.91434393693E+01  0.45470181346E+03  0.45460987305E+03 0.  0.
      99925    2    3    3    0    0  0.68705231714E+02 -0.89293392949E+02 -0.72107701296E+00  0.28606452318E+03  0.26294233699E+03 0.  0.
         25    1    3    3    0    0 -0.68705231714E+02  0.89293392949E+02  0.98645163823E+01  0.16863729028E+03  0.12509000000E+03 0.  0.
         25    1    4    4    0    0  0.68103771137E+02 -0.71175306640E+02  0.75218525432E+01  0.15939929198E+03  0.12509000000E+03 0.  0.
         25    1    4    4    0    0  0.60146057637E+00 -0.18118086308E+02 -0.82429295562E+01  0.12666523120E+03  0.12509000000E+03 0.  0.
<mgrwt>
<rscale>  2 0.45460987E+03</rscale>
<asrwt>0</asrwt>
<pdfrwt beam="1">  1       21 0.34106269E-01 0.45460987E+03</pdfrwt>
<pdfrwt beam="2">  1       21 0.32761645E-01 0.45460987E+03</pdfrwt>
<totfact> 0.68781500E+04</totfact>
</mgrwt>
</event>
<event>
 7    0  0.4748297E-002  0.4553359E+03  0.7546771E-02  0.1026143E+00
         21   -1    0    0  502  501  0.00000000000E+00  0.00000000000E+00  0.16900695925E+03  0.16900695925E+03  0.00000000000E+00 0.  1.
         21   -1    0    0  501  502 -0.00000000000E+00 -0.00000000000E+00 -0.30668973446E+03  0.30668973446E+03  0.00000000000E+00 0.  1.
      99926    2    1    2    0    0  0.00000000000E+00  0.00000000000E+00 -0.13768277521E+03  0.47569669371E+03  0.45533591756E+03 0.  0.
      99925    2    3    3    0    0 -0.84659670874E+02  0.27089480826E+02 -0.16035086651E+03  0.32057593331E+03  0.26297419795E+03 0.  0.
         25    1    4    4    0    0 -0.54624000112E+02  0.12884227941E+02 -0.37527028956E+02  0.14214630041E+03  0.12509000000E+03 0.  0.
         25    1    3    3    0    0  0.84659670874E+02 -0.27089480826E+02  0.22668091294E+02  0.15512076040E+03  0.12509000000E+03 0.  0.
         25    1    4    4    0    0 -0.30035670762E+02  0.14205252885E+02 -0.12282383755E+03  0.17842963290E+03  0.12509000000E+03 0.  0.
<mgrwt>
<rscale>  2 0.45533592E+03</rscale>
<asrwt>0</asrwt>
<pdfrwt beam="1">  1       21 0.24853965E-01 0.45533592E+03</pdfrwt>
<pdfrwt beam="2">  1       21 0.45101431E-01 0.45533592E+03</pdfrwt>
<totfact> 0.66836356E+04</totfact>
</mgrwt>
</event>
<event>
 7    0  0.4748297E-002  0.4531757E+03  0.7546771E-02  0.1026779E+00
         21   -1    0    0  502  501  0.00000000000E+00  0.00000000000E+00  0.71962954615E+03  0.71962954615E+03  0.00000000000E+00 0. -1.
         21   -1    0    0  501  502 -0.00000000000E+00 -0.00000000000E+00 -0.71345118307E+02  0.71345118307E+02  0.00000000000E+00 0. -1.
      99926    2    1    2    0    0 -0.71054273576E-14 -0.14210854715E-13  0.64828442785E+03  0.79097466446E+03  0.45317570591E+03 0.  0.
      99925    2    3    3    0    0 -0.45946735437E+02  0.10016352100E+03  0.37924595370E+03  0.47447341311E+03  0.26297089746E+03 0.  0.
         25    1    3    3    0    0  0.45946735437E+02 -0.10016352100E+03  0.26903847414E+03  0.31650125135E+03  0.12509000000E+03 0.  0.
         25    1    4    4    0    0 -0.39151104951E+01  0.11001567757E+02  0.15776635010E+03  0.20167818897E+03  0.12509000000E+03 0.  0.
         25    1    4    4    0    0 -0.42031624942E+02  0.89161953240E+02  0.22147960360E+03  0.27279522414E+03  0.12509000000E+03 0.  0.
<mgrwt>
<rscale>  2 0.45317571E+03</rscale>
<asrwt>0</asrwt>
<pdfrwt beam="1">  1       21 0.10582787E+00 0.45317571E+03</pdfrwt>
<pdfrwt beam="2">  1       21 0.10491930E-01 0.45317571E+03</pdfrwt>
<totfact> 0.48900872E+04</totfact>
</mgrwt>
</event>
<event>
 7    0  0.4748297E-002  0.4513714E+03  0.7546771E-02  0.1027314E+00
         21   -1    0    0  502  501  0.00000000000E+00  0.00000000000E+00  0.50550552996E+02  0.50550552996E+02  0.00000000000E+00 0.  1.
         21   -1    0    0  501  502 -0.00000000000E+00 -0.00000000000E+00 -0.10075860001E+04  0.10075860001E+04  0.00000000000E+00 0.  1.
      99926    2    1    2    0    0  0.00000000000E+00  0.00000000000E+00 -0.95703544706E+03  0.10581365531E+04  0.45137137479E+03 0.  0.
      99925    2    3    3    0    0 -0.34910776625E+01  0.34811855508E+02 -0.84805633682E+03  0.88858417921E+03  0.26297954335E+03 0.  0.
         25    1    4    4    0    0 -0.71132335422E+00  0.46350313597E+02 -0.34035817892E+03  0.36556812718E+03  0.12509000000E+03 0.  0.
         25    1    3    3    0    0  0.34910776625E+01 -0.34811855508E+02 -0.10897911025E+03  0.16955237385E+03  0.12509000000E+03 0.  0.
         25    1    4    4    0    0 -0.27797543083E+01 -0.11538458089E+02 -0.50769815790E+03  0.52301605203E+03  0.12509000000E+03 0.  0.
<mgrwt>
<rscale>  2 0.45137137E+03</rscale>
<asrwt>0</asrwt>
<pdfrwt beam="1">  1       21 0.74339053E-02 0.45137137E+03</pdfrwt>
<pdfrwt beam="2">  1       21 0.14817440E+00 0.45137137E+03</pdfrwt>
<totfact> 0.38046341E+04</totfact>
</mgrwt>
</event>
<event>
 7    0  0.4748297E-002  0.4545383E+03  0.7546771E-02  0.1026377E+00
         21   -1    0    0  502  501  0.00000000000E+00  0.00000000000E+00  0.44149693785E+03  0.44149693785E+03  0.00000000000E+00 0.  1.
         21   -1    0    0  501  502 -0.00000000000E+00 -0.00000000000E+00 -0.11699120701E+03  0.11699120701E+03  0.00000000000E+00 0.  1.
      99926    2    1    2    0    0 -0.14210854715E-13  0.00000000000E+00  0.32450573084E+03  0.55848814486E+03  0.45453826968E+03 0.  0.
      99925    2    3    3    0    0 -0.10373469257E+03 -0.40324471104E+02  0.22611619875E+03  0.36428475267E+03  0.26303592204E+03 0.  0.
         25    1    3    3    0    0  0.10373469257E+03  0.40324471104E+02  0.98389532095E+02  0.19420339219E+03  0.12509000000E+03 0.  0.
         25    1    4    4    0    0 -0.19718682562E+02  0.80534407592E+01  0.90373930030E+02  0.15578395193E+03  0.12509000000E+03 0.  0.
         25    1    4    4    0    0 -0.84016010007E+02 -0.48377911863E+02  0.13574226872E+03  0.20850080074E+03  0.12509000000E+03 0.  0.
<mgrwt>
<rscale>  2 0.45453827E+03</rscale>
<asrwt>0</asrwt>
<pdfrwt beam="1">  1       21 0.64926020E-01 0.45453827E+03</pdfrwt>
<pdfrwt beam="2">  1       21 0.17204589E-01 0.45453827E+03</pdfrwt>
<totfact> 0.61533505E+04</totfact>
</mgrwt>
</event>
<event>
 7    0  0.4748297E-002  0.4507154E+03  0.7546771E-02  0.1027509E+00
         21   -1    0    0  502  501  0.00000000000E+00  0.00000000000E+00  0.33322687745E+03  0.33322687745E+03  0.00000000000E+00 0.  1.
         21   -1    0    0  501  502 -0.00000000000E+00 -0.00000000000E+00 -0.15240694755E+03  0.15240694755E+03  0.00000000000E+00 0.  1.
      99926    2    1    2    0    0  0.71054273576E-14  0.00000000000E+00  0.18081992990E+03  0.48563382500E+03  0.45071539239E+03 0.  0.
      99925    2    3    3    0    0  0.34377078814E+02 -0.91650053060E+02  0.16625379323E+03  0.32613085885E+03  0.26294390572E+03 0.  0.
         25    1    3    3    0    0 -0.34377078814E+02  0.91650053060E+02  0.14566136671E+02  0.15950296615E+03  0.12509000000E+03 0.  0.
         25    1    4    4    0    0  0.17832894692E+02 -0.75291480201E+02  0.12302120493E+03  0.19175125576E+03  0.12509000000E+03 0.  0.
         25    1    4    4    0    0  0.16544184122E+02 -0.16358572860E+02  0.43232588297E+02  0.13437960308E+03  0.12509000000E+03 0.  0.
<mgrwt>
<rscale>  2 0.45071539E+03</rscale>
<asrwt>0</asrwt>
<pdfrwt beam="1">  1       21 0.49003952E-01 0.45071539E+03</pdfrwt>
<pdfrwt beam="2">  1       21 0.22412786E-01 0.45071539E+03</pdfrwt>
<totfact> 0.68595919E+04</totfact>
</mgrwt>
</event>
<event>
 7    0  0.4748297E-002  0.4588923E+03  0.7546771E-02  0.1025103E+00
         21   -1    0    0  502  501  0.00000000000E+00  0.00000000000E+00  0.21032167277E+04  0.21032167277E+04  0.00000000000E+00 0.  1.
         21   -1    0    0  501  502 -0.00000000000E+00 -0.00000000000E+00 -0.25030959961E+02  0.25030959961E+02  0.00000000000E+00 0.  1.
      99926    2    1    2    0    0 -0.14210854715E-13 -0.71054273576E-14  0.20781857677E+04  0.21282476876E+04  0.45889229107E+03 0.  0.
      99925    2    3    3    0    0 -0.11050249821E+03 -0.35441029292E+02  0.13703408176E+04  0.14001276081E+04  0.26278602326E+03 0.  0.
         25    1    3    3    0    0  0.11050249821E+03  0.35441029292E+02  0.70784495014E+03  0.72812007953E+03  0.12509000000E+03 0.  0.
         25    1    4    4    0    0 -0.80737553784E+02 -0.10012863314E+02  0.57435375674E+03  0.59342106131E+03  0.12509000000E+03 0.  0.
         25    1    4    4    0    0 -0.29764944422E+02 -0.25428165978E+02  0.79598706083E+03  0.80670654680E+03  0.12509000000E+03 0.  0.
<mgrwt>
<rscale>  2 0.45889229E+03</rscale>
<asrwt>0</asrwt>
<pdfrwt beam="1">  1       21 0.30929646E+00 0.45889229E+03</pdfrwt>
<pdfrwt beam="2">  1       21 0.36810250E-02 0.45889229E+03</pdfrwt>
<totfact> 0.11378906E+04</totfact>
</mgrwt>
</event>
<event>
 7    0  0.4748297E-002  0.4493201E+03  0.7546771E-02  0.1027925E+00
         21   -1    0    0  502  501  0.00000000000E+00  0.00000000000E+00  0.62229307040E+03  0.62229307040E+03  0.00000000000E+00 0. -1.
         21   -1    0    0  501  502 -0.00000000000E+00 -0.00000000000E+00 -0.81106698777E+02  0.81106698777E+02  0.00000000000E+00 0. -1.
      99926    2    1    2    0    0  0.00000000000E+00  0.00000000000E+00  0.54118637162E+03  0.70339976918E+03  0.44932009353E+03 0.  0.
      99925    2    3    3    0    0  0.62985129605E+01  0.22854532125E+02  0.50686578688E+03  0.57153843466E+03  0.26302329835E+03 0.  0.
         25    1    3    3    0    0 -0.62985129605E+01 -0.22854532125E+02  0.34320584739E+02  0.13186133452E+03  0.12509000000E+03 0.  0.
         25    1    4    4    0    0  0.26764369960E+02 -0.21297863081E+02  0.25975670795E+03  0.29032909929E+03  0.12509000000E+03 0.  0.
         25    1    4    4    0    0 -0.20465856999E+02  0.44152395205E+02  0.24710907893E+03  0.28120933536E+03  0.12509000000E+03 0.  0.
<mgrwt>
<rscale>  2 0.44932009E+03</rscale>
<asrwt>0</asrwt>
<pdfrwt beam="1">  1       21 0.91513684E-01 0.44932009E+03</pdfrwt>
<pdfrwt beam="2">  1       21 0.11927456E-01 0.44932009E+03</pdfrwt>
<totfact> 0.55142322E+04</totfact>
</mgrwt>
</event>
<event>
 7    0  0.4748297E-002  0.4552119E+03  0.7546771E-02  0.1026179E+00
         21   -1    0    0  502  501  0.00000000000E+00  0.00000000000E+00  0.71898739835E+03  0.71898739835E+03  0.00000000000E+00 0. -1.
         21   -1    0    0  501  502 -0.00000000000E+00 -0.00000000000E+00 -0.72051994654E+02  0.72051994654E+02  0.00000000000E+00 0. -1.
      99926    2    1    2    0    0  0.71054273576E-14  0.17763568394E-14  0.64693540369E+03  0.79103939300E+03  0.45521193386E+03 0.  0.
      99925    2    3    3    0    0  0.56280856958E+02  0.13082836829E+02  0.57647793467E+03  0.63628003619E+03  0.26303379976E+03 0.  0.
         25    1    3    3    0    0 -0.56280856958E+02 -0.13082836829E+02  0.70457469025E+02  0.15475935681E+03  0.12509000000E+03 0.  0.
         25    1    4    4    0    0  0.34743904850E+01  0.50517760284E+01  0.35418550737E+03  0.37567602208E+03  0.12509000000E+03 0.  0.
         25    1    4    4    0    0  0.52806466473E+02  0.80310608007E+01  0.22229242730E+03  0.26060401411E+03  0.12509000000E+03 0.  0.
<mgrwt>
<rscale>  2 0.45521193E+03</rscale>
<asrwt>0</asrwt>
<pdfrwt beam="1">  1       21 0.10573344E+00 0.45521193E+03</pdfrwt>
<pdfrwt beam="2">  1       21 0.10595882E-01 0.45521193E+03</pdfrwt>
<totfact> 0.48121203E+04</totfact>
</mgrwt>
</event>
<event>
 7    0  0.4748297E-002  0.4501344E+03  0.7546771E-02  0.1027682E+00
         21   -1    0    0  502  501  0.00000000000E+00  0.00000000000E+00  0.26422903133E+03  0.26422903133E+03  0.00000000000E+00 0. -1.
         21   -1    0    0  501  502 -0.00000000000E+00 -0.00000000000E+00 -0.19170962126E+03  0.19170962126E+03  0.00000000000E+00 0. -1.
      99926    2    1    2    0    0  0.00000000000E+00  0.00000000000E+00  0.72519410070E+02  0.45593865259E+03  0.45013441336E+03 0.  0.
      99925    2    3    3    0    0 -0.41150852179E+02 -0.61355996985E+02 -0.34535610182E+02  0.27547747543E+03  0.26312958803E+03 0.  0.
         25    1    4    4    0    0 -0.35965358779E+02 -0.54130470880E+02 -0.49004117660E+02  0.14923982899E+03  0.12509000000E+03 0.  0.
         25    1    4    4    0    0 -0.51854934006E+01 -0.72255261049E+01  0.14468507479E+02  0.12623764644E+03  0.12509000000E+03 0.  0.
         25    1    3    3    0    0  0.41150852179E+02  0.61355996985E+02  0.10705502025E+03  0.18046117716E+03  0.12509000000E+03 0.  0.
<mgrwt>
<rscale>  2 0.45013441E+03</rscale>
<asrwt>0</asrwt>
<pdfrwt beam="1">  1       21 0.38857211E-01 0.45013441E+03</pdfrwt>
<pdfrwt beam="2">  1       21 0.28192591E-01 0.45013441E+03</pdfrwt>
<totfact> 0.71200299E+04</totfact>
</mgrwt>
</event>
<event>
 7    0  0.4748297E-002  0.4525350E+03  0.7546771E-02  0.1026969E+00
         21   -1    0    0  502  501  0.00000000000E+00  0.00000000000E+00  0.10063060355E+03  0.10063060355E+03  0.00000000000E+00 0.  1.
         21   -1    0    0  501  502 -0.00000000000E+00 -0.00000000000E+00 -0.50876158469E+03  0.50876158469E+03  0.00000000000E+00 0.  1.
      99926    2    1    2    0    0 -0.14210854715E-13  0.00000000000E+00 -0.40813098114E+03  0.60939218824E+03  0.45253501667E+03 0.  0.
      99925    2    3    3    0    0  0.10156516503E+03 -0.34487721599E+02 -0.29464470966E+03  0.40931338475E+03  0.26309134596E+03 0.  0.
         25    1    3    3    0    0 -0.10156516503E+03  0.34487721599E+02 -0.11348627148E+03  0.20007880348E+03  0.12509000000E+03 0.  0.
         25    1    4    4    0    0  0.55152166169E+02 -0.57125567896E+02 -0.14043960607E+03  0.20414671928E+03  0.12509000000E+03 0.  0.
         25    1    4    4    0    0  0.46412998858E+02  0.22637846297E+02 -0.15420510359E+03  0.20516666547E+03  0.12509000000E+03 0.  0.
<mgrwt>
<rscale>  2 0.45253502E+03</rscale>
<asrwt>0</asrwt>
<pdfrwt beam="1">  1       21 0.14798618E-01 0.45253502E+03</pdfrwt>
<pdfrwt beam="2">  1       21 0.74817879E-01 0.45253502E+03</pdfrwt>
<totfact> 0.59249077E+04</totfact>
</mgrwt>
</event>
<event>
 7    0  0.4748297E-002  0.4547648E+03  0.7546771E-02  0.1026311E+00
         21   -1    0    0  502  501  0.00000000000E+00  0.00000000000E+00  0.43984316648E+03  0.43984316648E+03  0.00000000000E+00 0. -1.
         21   -1    0    0  501  502 -0.00000000000E+00 -0.00000000000E+00 -0.11754815218E+03  0.11754815218E+03  0.00000000000E+00 0. -1.
      99926    2    1    2    0    0  0.00000000000E+00  0.14210854715E-13  0.32229501430E+03  0.55739131866E+03  0.45476478081E+03 0.  0.
      99925    2    3    3    0    0 -0.83244421415E+02 -0.71043014679E+02  0.17781818715E+03  0.33716914603E+03  0.26473946008E+03 0.  0.
         25    1    4    4    0    0 -0.34682903500E+02 -0.79142555522E+02  0.95392924316E+02  0.17948193781E+03  0.12509000000E+03 0.  0.
         25    1    4    4    0    0 -0.48561517914E+02  0.80995408425E+01  0.82425262837E+02  0.15768720822E+03  0.12509000000E+03 0.  0.
         25    1    3    3    0    0  0.83244421415E+02  0.71043014679E+02  0.14447682715E+03  0.22022217262E+03  0.12509000000E+03 0.  0.
<mgrwt>
<rscale>  2 0.45476478E+03</rscale>
<asrwt>0</asrwt>
<pdfrwt beam="1">  1       21 0.64682818E-01 0.45476478E+03</pdfrwt>
<pdfrwt beam="2">  1       21 0.17286493E-01 0.45476478E+03</pdfrwt>
<totfact> 0.61495057E+04</totfact>
</mgrwt>
</event>
<event>
 7    0  0.4748297E-002  0.4437058E+03  0.7546771E-02  0.1029616E+00
         21   -1    0    0  502  501  0.00000000000E+00  0.00000000000E+00  0.98838476202E+03  0.98838476202E+03  0.00000000000E+00 0.  1.
         21   -1    0    0  501  502 -0.00000000000E+00 -0.00000000000E+00 -0.49797105929E+02  0.49797105929E+02  0.00000000000E+00 0.  1.
      99926    2    1    2    0    0  0.00000000000E+00  0.00000000000E+00  0.93858765609E+03  0.10381818679E+04  0.44370576148E+03 0.  0.
      99925    2    3    3    0    0 -0.45909073624E+02 -0.81624640145E+02  0.69308942746E+03  0.74717136422E+03  0.26291038042E+03 0.  0.
         25    1    3    3    0    0  0.45909073624E+02  0.81624640145E+02  0.24549822863E+03  0.29101050373E+03  0.12509000000E+03 0.  0.
         25    1    4    4    0    0 -0.55000400408E+01 -0.76358928685E+02  0.39472498555E+03  0.42108937145E+03  0.12509000000E+03 0.  0.
         25    1    4    4    0    0 -0.40409033584E+02 -0.52657114598E+01  0.29836444191E+03  0.32608199277E+03  0.12509000000E+03 0.  0.
<mgrwt>
<rscale>  2 0.44370576E+03</rscale>
<asrwt>0</asrwt>
<pdfrwt beam="1">  1       21 0.14535069E+00 0.44370576E+03</pdfrwt>
<pdfrwt beam="2">  1       21 0.73231045E-02 0.44370576E+03</pdfrwt>
<totfact> 0.41230974E+04</totfact>
</mgrwt>
</event>
<event>
 7    0  0.4748297E-002  0.4543712E+03  0.7546771E-02  0.1026426E+00
         21   -1    0    0  502  501  0.00000000000E+00  0.00000000000E+00  0.95043565978E+02  0.95043565978E+02  0.00000000000E+00 0. -1.
         21   -1    0    0  501  502 -0.00000000000E+00 -0.00000000000E+00 -0.54304878225E+03  0.54304878225E+03  0.00000000000E+00 0. -1.
      99926    2    1    2    0    0 -0.15543122345E-14  0.00000000000E+00 -0.44800521627E+03  0.63809234823E+03  0.45437118203E+03 0.  0.
      99925    2    3    3    0    0 -0.19886268815E+01  0.70399234470E+02 -0.40546467595E+03  0.48836856080E+03  0.26294912224E+03 0.  0.
         25    1    4    4    0    0  0.82779779520E+01 -0.55903551918E+01 -0.18868328806E+03  0.22660244544E+03  0.12509000000E+03 0.  0.
         25    1    3    3    0    0  0.19886268815E+01 -0.70399234470E+02 -0.42540540325E+02  0.14972378743E+03  0.12509000000E+03 0.  0.
         25    1    4    4    0    0 -0.10266604834E+02  0.75989589662E+02 -0.21678138789E+03  0.26176611536E+03  0.12509000000E+03 0.  0.
<mgrwt>
<rscale>  2 0.45437118E+03</rscale>
<asrwt>0</asrwt>
<pdfrwt beam="1">  1       21 0.13976995E-01 0.45437118E+03</pdfrwt>
<pdfrwt beam="2">  1       21 0.79860116E-01 0.45437118E+03</pdfrwt>
<totfact> 0.56673480E+04</totfact>
</mgrwt>
</event>
<event>
 7    0  0.4748297E-002  0.4595143E+03  0.7546771E-02  0.1024922E+00
         21   -1    0    0  502  501  0.00000000000E+00  0.00000000000E+00  0.11925088392E+03  0.11925088392E+03  0.00000000000E+00 0. -1.
         21   -1    0    0  501  502 -0.00000000000E+00 -0.00000000000E+00 -0.44266623855E+03  0.44266623855E+03  0.00000000000E+00 0. -1.
      99926    2    1    2    0    0 -0.71054273576E-14 -0.14210854715E-13 -0.32341535463E+03  0.56191712247E+03  0.45951426628E+03 0.  0.
      99925    2    3    3    0    0  0.57753312998E+02  0.89494752302E+02 -0.26296117513E+03  0.38685435724E+03  0.26298851351E+03 0.  0.
         25    1    3    3    0    0 -0.57753312998E+02 -0.89494752302E+02 -0.60454179500E+02  0.17506276523E+03  0.12509000000E+03 0.  0.
         25    1    4    4    0    0  0.31101962530E+02  0.63198209528E+02 -0.18715075861E+03  0.23586915930E+03  0.12509000000E+03 0.  0.
         25    1    4    4    0    0  0.26651350467E+02  0.26296542774E+02 -0.75810416519E+02  0.15098519794E+03  0.12509000000E+03 0.  0.
<mgrwt>
<rscale>  2 0.45951427E+03</rscale>
<asrwt>0</asrwt>
<pdfrwt beam="1">  1       21 0.17536895E-01 0.45951427E+03</pdfrwt>
<pdfrwt beam="2">  1       21 0.65097976E-01 0.45951427E+03</pdfrwt>
<totfact> 0.58952498E+04</totfact>
</mgrwt>
</event>
<event>
 7    0  0.4748297E-002  0.4323417E+03  0.7546771E-02  0.1033123E+00
         21   -1    0    0  502  501  0.00000000000E+00  0.00000000000E+00  0.31904245386E+03  0.31904245386E+03  0.00000000000E+00 0.  1.
         21   -1    0    0  501  502 -0.00000000000E+00 -0.00000000000E+00 -0.14646899206E+03  0.14646899206E+03  0.00000000000E+00 0.  1.
      99926    2    1    2    0    0  0.00000000000E+00  0.35527136788E-14  0.17257346181E+03  0.46551144592E+03  0.43234165490E+03 0.  0.
      99925    2    3    3    0    0  0.32246147552E+02 -0.22908233331E+02  0.23608818896E+02  0.26701062949E+03  0.26300703174E+03 0.  0.
         25    1    4    4    0    0 -0.22907812436E+01 -0.47554246204E+02  0.98380508682E+01  0.13420487829E+03  0.12509000000E+03 0.  0.
         25    1    4    4    0    0  0.34536928795E+02  0.24646012873E+02  0.13770768027E+02  0.13280575121E+03  0.12509000000E+03 0.  0.
         25    1    3    3    0    0 -0.32246147552E+02  0.22908233331E+02  0.14896464291E+03  0.19850081643E+03  0.12509000000E+03 0.  0.
<mgrwt>
<rscale>  2 0.43234165E+03</rscale>
<asrwt>0</asrwt>
<pdfrwt beam="1">  1       21 0.46918008E-01 0.43234165E+03</pdfrwt>
<pdfrwt beam="2">  1       21 0.21539558E-01 0.43234165E+03</pdfrwt>
<totfact> 0.81464282E+04</totfact>
</mgrwt>
</event>
<event>
 7    0  0.4748297E-002  0.4570347E+03  0.7546771E-02  0.1025645E+00
         21   -1    0    0  502  501  0.00000000000E+00  0.00000000000E+00  0.11781934276E+03  0.11781934276E+03  0.00000000000E+00 0. -1.
         21   -1    0    0  501  502 -0.00000000000E+00 -0.00000000000E+00 -0.44322238142E+03  0.44322238142E+03  0.00000000000E+00 0. -1.
      99926    2    1    2    0    0  0.00000000000E+00  0.71054273576E-14 -0.32540303865E+03  0.56104172418E+03  0.45703465810E+03 0.  0.
      99925    2    3    3    0    0  0.97952320435E+02  0.42590045533E+02 -0.15212734145E+03  0.32212637432E+03  0.26308573500E+03 0.  0.
         25    1    4    4    0    0  0.49735572503E+02  0.62139453348E+02 -0.85488073713E+02  0.17114513631E+03  0.12509000000E+03 0.  0.
         25    1    4    4    0    0  0.48216747932E+02 -0.19549407815E+02 -0.66639267734E+02  0.15098123801E+03  0.12509000000E+03 0.  0.
         25    1    3    3    0    0 -0.97952320435E+02 -0.42590045533E+02 -0.17327569721E+03  0.23891534986E+03  0.12509000000E+03 0.  0.
<mgrwt>
<rscale>  2 0.45703466E+03</rscale>
<asrwt>0</asrwt>
<pdfrwt beam="1">  1       21 0.17326374E-01 0.45703466E+03</pdfrwt>
<pdfrwt beam="2">  1       21 0.65179762E-01 0.45703466E+03</pdfrwt>
<totfact> 0.60168522E+04</totfact>
</mgrwt>
</event>
<event>
 7    0  0.4748297E-002  0.4565155E+03  0.7546771E-02  0.1025797E+00
         21   -1    0    0  502  501  0.00000000000E+00  0.00000000000E+00  0.11570557364E+03  0.11570557364E+03  0.00000000000E+00 0.  1.
         21   -1    0    0  501  502 -0.00000000000E+00 -0.00000000000E+00 -0.45029455505E+03  0.45029455505E+03  0.00000000000E+00 0.  1.
      99926    2    1    2    0    0  0.00000000000E+00  0.00000000000E+00 -0.33458898141E+03  0.56600012869E+03  0.45651545340E+03 0.  0.
      99925    2    3    3    0    0  0.52567225030E+02  0.50670785950E+02 -0.32034618556E+03  0.42046248054E+03  0.26236649412E+03 0.  0.
         25    1    3    3    0    0 -0.52567225030E+02 -0.50670785950E+02 -0.14242795845E+02  0.14553764815E+03  0.12509000000E+03 0.  0.
         25    1    4    4    0    0  0.32228046763E+02  0.30443567491E+02 -0.22252588909E+03  0.25909600000E+03  0.12509000000E+03 0.  0.
         25    1    4    4    0    0  0.20339178267E+02  0.20227218459E+02 -0.97820296472E+02  0.16136648054E+03  0.12509000000E+03 0.  0.
<mgrwt>
<rscale>  2 0.45651545E+03</rscale>
<asrwt>0</asrwt>
<pdfrwt beam="1">  1       21 0.17015526E-01 0.45651545E+03</pdfrwt>
<pdfrwt beam="2">  1       21 0.66219788E-01 0.45651545E+03</pdfrwt>
<totfact> 0.60097896E+04</totfact>
</mgrwt>
</event>
<event>
 7    0  0.4748297E-002  0.4553257E+03  0.7546771E-02  0.1026146E+00
         21   -1    0    0  502  501  0.00000000000E+00  0.00000000000E+00  0.65248441446E+03  0.65248441446E+03  0.00000000000E+00 0.  1.
         21   -1    0    0  501  502 -0.00000000000E+00 -0.00000000000E+00 -0.79435432493E+02  0.79435432493E+02  0.00000000000E+00 0.  1.
      99926    2    1    2    0    0  0.00000000000E+00  0.00000000000E+00  0.57304898196E+03  0.73191984695E+03  0.45532573684E+03 0.  0.
      99925    2    3    3    0    0 -0.13501769383E+02 -0.99109676512E+02  0.27406146065E+03  0.39273542550E+03  0.26291900744E+03 0.  0.
         25    1    4    4    0    0  0.71210173004E+00 -0.79761253963E+02  0.18583482917E+03  0.23779078316E+03  0.12509000000E+03 0.  0.
         25    1    4    4    0    0 -0.14213871113E+02 -0.19348422548E+02  0.88226631483E+02  0.15494464234E+03  0.12509000000E+03 0.  0.
         25    1    3    3    0    0  0.13501769383E+02  0.99109676512E+02  0.29898752131E+03  0.33918442145E+03  0.12509000000E+03 0.  0.
<mgrwt>
<rscale>  2 0.45532574E+03</rscale>
<asrwt>0</asrwt>
<pdfrwt beam="1">  1       21 0.95953588E-01 0.45532574E+03</pdfrwt>
<pdfrwt beam="2">  1       21 0.11681682E-01 0.45532574E+03</pdfrwt>
<totfact> 0.51073036E+04</totfact>
</mgrwt>
</event>
<event>
 7    0  0.4748297E-002  0.4532466E+03  0.7546771E-02  0.1026758E+00
         21   -1    0    0  502  501  0.00000000000E+00  0.00000000000E+00  0.22932593243E+03  0.22932593243E+03  0.00000000000E+00 0. -1.
         21   -1    0    0  501  502 -0.00000000000E+00 -0.00000000000E+00 -0.22395249015E+03  0.22395249015E+03  0.00000000000E+00 0. -1.
      99926    2    1    2    0    0 -0.14210854715E-13  0.00000000000E+00  0.53734422830E+01  0.45327842257E+03  0.45324657140E+03 0.  0.
      99925    2    3    3    0    0 -0.74197841518E+02  0.77685212135E+02  0.33775838948E+02  0.28596280433E+03  0.26285662688E+03 0.  0.
         25    1    4    4    0    0 -0.69030196864E+02  0.16471647414E+02  0.27751320282E+02  0.14647227425E+03  0.12509000000E+03 0.  0.
         25    1    4    4    0    0 -0.51676446537E+01  0.61213564721E+02  0.60245186662E+01  0.13949053008E+03  0.12509000000E+03 0.  0.
         25    1    3    3    0    0  0.74197841518E+02 -0.77685212135E+02 -0.28402396665E+02  0.16731561824E+03  0.12509000000E+03 0.  0.
<mgrwt>
<rscale>  2 0.45324657E+03</rscale>
<asrwt>0</asrwt>
<pdfrwt beam="1">  1       21 0.33724402E-01 0.45324657E+03</pdfrwt>
<pdfrwt beam="2">  1       21 0.32934190E-01 0.45324657E+03</pdfrwt>
<totfact> 0.69641328E+04</totfact>
</mgrwt>
</event>
<event>
 7    0  0.4748297E-002  0.4578240E+03  0.7546771E-02  0.1025414E+00
         21   -1    0    0  502  501  0.00000000000E+00  0.00000000000E+00  0.55276512770E+03  0.55276512770E+03  0.00000000000E+00 0. -1.
         21   -1    0    0  501  502 -0.00000000000E+00 -0.00000000000E+00 -0.94797422249E+02  0.94797422249E+02  0.00000000000E+00 0. -1.
      99926    2    1    2    0    0  0.17763568394E-14  0.00000000000E+00  0.45796770545E+03  0.64756254995E+03  0.45782402390E+03 0.  0.
      99925    2    3    3    0    0 -0.12493611426E+02 -0.10901931156E+03  0.33972268343E+03  0.44342854016E+03  0.26301343687E+03 0.  0.
         25    1    4    4    0    0 -0.45626804445E+02 -0.45179438180E+02  0.16225942705E+03  0.21470588414E+03  0.12509000000E+03 0.  0.
         25    1    4    4    0    0  0.33133193019E+02 -0.63839873377E+02  0.17746325638E+03  0.22872265602E+03  0.12509000000E+03 0.  0.
         25    1    3    3    0    0  0.12493611426E+02  0.10901931156E+03  0.11824502202E+03  0.20413400978E+03  0.12509000000E+03 0.  0.
<mgrwt>
<rscale>  2 0.45782402E+03</rscale>
<asrwt>0</asrwt>
<pdfrwt beam="1">  1       21 0.81288988E-01 0.45782402E+03</pdfrwt>
<pdfrwt beam="2">  1       21 0.13940798E-01 0.45782402E+03</pdfrwt>
<totfact> 0.54615045E+04</totfact>
</mgrwt>
</event>
<event>
 7    0  0.4748297E-002  0.4434871E+03  0.7546771E-02  0.1029682E+00
         21   -1    0    0  502  501  0.00000000000E+00  0.00000000000E+00  0.24203846920E+03  0.24203846920E+03  0.00000000000E+00 0. -1.
         21   -1    0    0  501  502 -0.00000000000E+00 -0.00000000000E+00 -0.20315035276E+03  0.20315035276E+03  0.00000000000E+00 0. -1.
      99926    2    1    2    0    0  0.00000000000E+00  0.00000000000E+00  0.38888116445E+02  0.44518882196E+03  0.44348709293E+03 0.  0.
      99925    2    3    3    0    0  0.93816738144E+02 -0.39869790189E+02  0.22231429311E+02  0.28296633939E+03  0.26302952734E+03 0.  0.
         25    1    4    4    0    0  0.29828512938E+02  0.16288601428E+02 -0.24792482093E+01  0.12964842264E+03  0.12509000000E+03 0.  0.
         25    1    3    3    0    0 -0.93816738144E+02  0.39869790189E+02  0.16656687134E+02  0.16222248257E+03  0.12509000000E+03 0.  0.
         25    1    4    4    0    0  0.63988225206E+02 -0.56158391616E+02  0.24710677520E+02  0.15331791675E+03  0.12509000000E+03 0.  0.
<mgrwt>
<rscale>  2 0.44348709E+03</rscale>
<asrwt>0</asrwt>
<pdfrwt beam="1">  1       21 0.35593893E-01 0.44348709E+03</pdfrwt>
<pdfrwt beam="2">  1       21 0.29875052E-01 0.44348709E+03</pdfrwt>
<totfact> 0.76017036E+04</totfact>
</mgrwt>
</event>
<event>
 7    0  0.4748297E-002  0.4719870E+03  0.7546771E-02  0.1021361E+00
         21   -1    0    0  502  501  0.00000000000E+00  0.00000000000E+00  0.62599995477E+03  0.62599995477E+03  0.00000000000E+00 0. -1.
         21   -1    0    0  501  502 -0.00000000000E+00 -0.00000000000E+00 -0.88966357963E+02  0.88966357963E+02  0.00000000000E+00 0. -1.
      99926    2    1    2    0    0  0.00000000000E+00  0.00000000000E+00  0.53703359681E+03  0.71496631273E+03  0.47198701703E+03 0.  0.
      99925    2    3    3    0    0 -0.97775093959E+02 -0.29774667559E+02  0.21523273648E+03  0.35489715045E+03  0.26302158982E+03 0.  0.
         25    1    4    4    0    0 -0.62234592189E+02  0.13262196257E+02  0.76087174246E+02  0.15964271515E+03  0.12509000000E+03 0.  0.
         25    1    4    4    0    0 -0.35540501771E+02 -0.43036863815E+02  0.13914556224E+03  0.19525443530E+03  0.12509000000E+03 0.  0.
         25    1    3    3    0    0  0.97775093959E+02  0.29774667559E+02  0.32180086032E+03  0.36006916229E+03  0.12509000000E+03 0.  0.
<mgrwt>
<rscale>  2 0.47198702E+03</rscale>
<asrwt>0</asrwt>
<pdfrwt beam="1">  1       21 0.92058815E-01 0.47198702E+03</pdfrwt>
<pdfrwt beam="2">  1       21 0.13083288E-01 0.47198702E+03</pdfrwt>
<totfact> 0.45679514E+04</totfact>
</mgrwt>
</event>
<event>
 7    0  0.4748297E-002  0.4584393E+03  0.7546771E-02  0.1025235E+00
         21   -1    0    0  502  501  0.00000000000E+00  0.00000000000E+00  0.13571170778E+03  0.13571170778E+03  0.00000000000E+00 0.  1.
         21   -1    0    0  501  502 -0.00000000000E+00 -0.00000000000E+00 -0.38715627425E+03  0.38715627425E+03  0.00000000000E+00 0.  1.
      99926    2    1    2    0    0  0.00000000000E+00  0.00000000000E+00 -0.25144456647E+03  0.52286798203E+03  0.45843926165E+03 0.  0.
      99925    2    3    3    0    0  0.26189319645E+02 -0.24583414153E+02 -0.31538947452E+02  0.26733674305E+03  0.26302852367E+03 0.  0.
         25    1    4    4    0    0 -0.45063421253E+01 -0.22772696320E+02 -0.50988346282E+02  0.13706284097E+03  0.12509000000E+03 0.  0.
         25    1    4    4    0    0  0.30695661770E+02 -0.18107178337E+01  0.19449398830E+02  0.13027390209E+03  0.12509000000E+03 0.  0.
         25    1    3    3    0    0 -0.26189319645E+02  0.24583414153E+02 -0.21990561902E+03  0.25553123897E+03  0.12509000000E+03 0.  0.
<mgrwt>
<rscale>  2 0.45843926E+03</rscale>
<asrwt>0</asrwt>
<pdfrwt beam="1">  1       21 0.19957605E-01 0.45843926E+03</pdfrwt>
<pdfrwt beam="2">  1       21 0.56934745E-01 0.45843926E+03</pdfrwt>
<totfact> 0.61983661E+04</totfact>
</mgrwt>
</event>
<event>
 7    0  0.4748297E-002  0.4553635E+03  0.7546771E-02  0.1026135E+00
         21   -1    0    0  502  501  0.00000000000E+00  0.00000000000E+00  0.13237350164E+03  0.13237350164E+03  0.00000000000E+00 0.  1.
         21   -1    0    0  501  502 -0.00000000000E+00 -0.00000000000E+00 -0.39161146647E+03  0.39161146647E+03  0.00000000000E+00 0.  1.
      99926    2    1    2    0    0  0.14210854715E-13  0.00000000000E+00 -0.25923796483E+03  0.52398496811E+03  0.45536350798E+03 0.  0.
      99925    2    3    3    0    0  0.75940892672E+02  0.20641823605E+02 -0.25740120702E+03  0.37618785772E+03  0.26280947254E+03 0.  0.
         25    1    4    4    0    0  0.73125922161E+02  0.32460073862E+02 -0.14604808402E+03  0.20827531739E+03  0.12509000000E+03 0.  0.
         25    1    4    4    0    0  0.28149705106E+01 -0.11818250257E+02 -0.11135312300E+03  0.16791254033E+03  0.12509000000E+03 0.  0.
         25    1    3    3    0    0 -0.75940892672E+02 -0.20641823605E+02 -0.18367578083E+01  0.14779711039E+03  0.12509000000E+03 0.  0.
<mgrwt>
<rscale>  2 0.45536351E+03</rscale>
<asrwt>0</asrwt>
<pdfrwt beam="1">  1       21 0.19466692E-01 0.45536351E+03</pdfrwt>
<pdfrwt beam="2">  1       21 0.57589921E-01 0.45536351E+03</pdfrwt>
<totfact> 0.63432522E+04</totfact>
</mgrwt>
</event>
<event>
 7    0  0.4748297E-002  0.4564005E+03  0.7546771E-02  0.1025830E+00
         21   -1    0    0  502  501  0.00000000000E+00  0.00000000000E+00  0.23390779511E+03  0.23390779511E+03  0.00000000000E+00 0. -1.
         21   -1    0    0  501  502 -0.00000000000E+00 -0.00000000000E+00 -0.22263199069E+03  0.22263199069E+03  0.00000000000E+00 0. -1.
      99926    2    1    2    0    0  0.35527136788E-14  0.00000000000E+00  0.11275804418E+02  0.45653978580E+03  0.45640051737E+03 0.  0.
      99925    2    3    3    0    0  0.27834236891E+02  0.30369835050E+02 -0.99822347927E+02  0.28423952701E+03  0.26292686425E+03 0.  0.
         25    1    3    3    0    0 -0.27834236891E+02 -0.30369835050E+02  0.11109815235E+03  0.17230025879E+03  0.12509000000E+03 0.  0.
         25    1    4    4    0    0  0.37875533447E+02  0.15573418864E+02 -0.15972800839E+02  0.13258855862E+03  0.12509000000E+03 0.  0.
         25    1    4    4    0    0 -0.10041296556E+02  0.14796416186E+02 -0.83849547088E+02  0.15165096840E+03  0.12509000000E+03 0.  0.
<mgrwt>
<rscale>  2 0.45640052E+03</rscale>
<asrwt>0</asrwt>
<pdfrwt beam="1">  1       21 0.34398205E-01 0.45640052E+03</pdfrwt>
<pdfrwt beam="2">  1       21 0.32739998E-01 0.45640052E+03</pdfrwt>
<totfact> 0.67673745E+04</totfact>
</mgrwt>
</event>
<event>
 7    0  0.4748297E-002  0.4327336E+03  0.7546771E-02  0.1033000E+00
         21   -1    0    0  502  501  0.00000000000E+00  0.00000000000E+00  0.43023902942E+03  0.43023902942E+03  0.00000000000E+00 0. -1.
         21   -1    0    0  501  502 -0.00000000000E+00 -0.00000000000E+00 -0.10881064544E+03  0.10881064544E+03  0.00000000000E+00 0. -1.
      99926    2    1    2    0    0  0.00000000000E+00  0.00000000000E+00  0.32142838399E+03  0.53904967486E+03  0.43273357385E+03 0.  0.
      99925    2    3    3    0    0  0.53713186048E+02  0.72692371046E+02  0.19684081303E+03  0.34070941647E+03  0.26299679396E+03 0.  0.
         25    1    4    4    0    0  0.55942443524E+02  0.89640323411E+01  0.88587912307E+02  0.16341737108E+03  0.12509000000E+03 0.  0.
         25    1    4    4    0    0 -0.22292574758E+01  0.63728338705E+02  0.10825290072E+03  0.17729204539E+03  0.12509000000E+03 0.  0.
         25    1    3    3    0    0 -0.53713186048E+02 -0.72692371046E+02  0.12458757096E+03  0.19834025840E+03  0.12509000000E+03 0.  0.
<mgrwt>
<rscale>  2 0.43273357E+03</rscale>
<asrwt>0</asrwt>
<pdfrwt beam="1">  1       21 0.63270445E-01 0.43273357E+03</pdfrwt>
<pdfrwt beam="2">  1       21 0.16001566E-01 0.43273357E+03</pdfrwt>
<totfact> 0.74956844E+04</totfact>
</mgrwt>
</event>
<event>
 7    0  0.4748297E-002  0.4558597E+03  0.7546771E-02  0.1025989E+00
         21   -1    0    0  502  501  0.00000000000E+00  0.00000000000E+00  0.57454334782E+03  0.57454334782E+03  0.00000000000E+00 0.  1.
         21   -1    0    0  501  502 -0.00000000000E+00 -0.00000000000E+00 -0.90423141607E+02  0.90423141607E+02  0.00000000000E+00 0.  1.
      99926    2    1    2    0    0  0.00000000000E+00  0.00000000000E+00  0.48412020621E+03  0.66496648943E+03  0.45585969113E+03 0.  0.
      99925    2    3    3    0    0  0.87442822518E+02  0.72757065204E+02  0.29456144952E+03  0.41095887520E+03  0.26302264506E+03 0.  0.
         25    1    4    4    0    0  0.80433128944E+02  0.48743617834E+02  0.13508790498E+03  0.20674060724E+03  0.12509000000E+03 0.  0.
         25    1    4    4    0    0  0.70096935741E+01  0.24013447370E+02  0.15947354454E+03  0.20421826796E+03  0.12509000000E+03 0.  0.
         25    1    3    3    0    0 -0.87442822518E+02 -0.72757065204E+02  0.18955875669E+03  0.25400761423E+03  0.12509000000E+03 0.  0.
<mgrwt>
<rscale>  2 0.45585969E+03</rscale>
<asrwt>0</asrwt>
<pdfrwt beam="1">  1       21 0.84491667E-01 0.45585969E+03</pdfrwt>
<pdfrwt beam="2">  1       21 0.13297521E-01 0.45585969E+03</pdfrwt>
<totfact> 0.54476266E+04</totfact>
</mgrwt>
</event>
<event>
 7    0  0.4748297E-002  0.4556210E+03  0.7546771E-02  0.1026059E+00
         21   -1    0    0  502  501  0.00000000000E+00  0.00000000000E+00  0.52082146219E+03  0.52082146219E+03  0.00000000000E+00 0.  1.
         21   -1    0    0  501  502 -0.00000000000E+00 -0.00000000000E+00 -0.99645717883E+02  0.99645717883E+02  0.00000000000E+00 0.  1.
      99926    2    1    2    0    0  0.00000000000E+00  0.00000000000E+00  0.42117574431E+03  0.62046718008E+03  0.45562102010E+03 0.  0.
      99925    2    3    3    0    0 -0.49207785819E+02 -0.20644564317E+02  0.40120489402E+03  0.48301192487E+03  0.26360490960E+03 0.  0.
         25    1    4    4    0    0 -0.35498696977E+02 -0.10903781198E+02  0.27569160097E+03  0.30501215857E+03  0.12509000000E+03 0.  0.
         25    1    4    4    0    0 -0.13709088842E+02 -0.97407831181E+01  0.12551329305E+03  0.17799976630E+03  0.12509000000E+03 0.  0.
         25    1    3    3    0    0  0.49207785819E+02  0.20644564317E+02  0.19970850293E+02  0.13745525520E+03  0.12509000000E+03 0.  0.
<mgrwt>
<rscale>  2 0.45562102E+03</rscale>
<asrwt>0</asrwt>
<pdfrwt beam="1">  1       21 0.76591391E-01 0.45562102E+03</pdfrwt>
<pdfrwt beam="2">  1       21 0.14653782E-01 0.45562102E+03</pdfrwt>
<totfact> 0.57155025E+04</totfact>
</mgrwt>
</event>
<event>
 7    0  0.4748297E-002  0.4524891E+03  0.7546771E-02  0.1026982E+00
         21   -1    0    0  502  501  0.00000000000E+00  0.00000000000E+00  0.51230826593E+03  0.51230826593E+03  0.00000000000E+00 0.  1.
         21   -1    0    0  501  502 -0.00000000000E+00 -0.00000000000E+00 -0.99913676281E+02  0.99913676281E+02  0.00000000000E+00 0.  1.
      99926    2    1    2    0    0  0.00000000000E+00  0.00000000000E+00  0.41239458965E+03  0.61222194221E+03  0.45248912579E+03 0.  0.
      99925    2    3    3    0    0  0.36011839542E+02 -0.73033349560E+02  0.36158413753E+03  0.45455161248E+03  0.26314132544E+03 0.  0.
         25    1    4    4    0    0  0.47945678654E+02 -0.21415719356E+02  0.21898291317E+03  0.25760133054E+03  0.12509000000E+03 0.  0.
         25    1    3    3    0    0 -0.36011839542E+02  0.73033349560E+02  0.50810452118E+02  0.15767032974E+03  0.12509000000E+03 0.  0.
         25    1    4    4    0    0 -0.11933839112E+02 -0.51617630204E+02  0.14260122437E+03  0.19695028194E+03  0.12509000000E+03 0.  0.
<mgrwt>
<rscale>  2 0.45248913E+03</rscale>
<asrwt>0</asrwt>
<pdfrwt beam="1">  1       21 0.75339449E-01 0.45248913E+03</pdfrwt>
<pdfrwt beam="2">  1       21 0.14693188E-01 0.45248913E+03</pdfrwt>
<totfact> 0.59095482E+04</totfact>
</mgrwt>
</event>
<event>
 7    0  0.4748297E-002  0.4544316E+03  0.7546771E-02  0.1026409E+00
         21   -1    0    0  502  501  0.00000000000E+00  0.00000000000E+00  0.12985969796E+04  0.12985969796E+04  0.00000000000E+00 0.  1.
         21   -1    0    0  501  502 -0.00000000000E+00 -0.00000000000E+00 -0.39756003884E+02  0.39756003884E+02  0.00000000000E+00 0.  1.
      99926    2    1    2    0    0  0.17763568394E-14  0.00000000000E+00  0.12588409757E+04  0.13383529834E+04  0.45443162990E+03 0.  0.
      99925    2    3    3    0    0 -0.13885493749E+02  0.66932747694E+02  0.52889911528E+03  0.59462223425E+03  0.26299910202E+03 0.  0.
         25    1    4    4    0    0 -0.46388215365E+02  0.30427481433E+02  0.28661580341E+03  0.31760639952E+03  0.12509000000E+03 0.  0.
         25    1    4    4    0    0  0.32502721616E+02  0.36505266261E+02  0.24228331188E+03  0.27701583473E+03  0.12509000000E+03 0.  0.
         25    1    3    3    0    0  0.13885493749E+02 -0.66932747694E+02  0.72994186039E+03  0.74373074920E+03  0.12509000000E+03 0.  0.
<mgrwt>
<rscale>  2 0.45443163E+03</rscale>
<asrwt>0</asrwt>
<pdfrwt beam="1">  1       21 0.19097012E+00 0.45443163E+03</pdfrwt>
<pdfrwt beam="2">  1       21 0.58464720E-02 0.45443163E+03</pdfrwt>
<totfact> 0.28145101E+04</totfact>
</mgrwt>
</event>
<event>
 7    0  0.4748297E-002  0.4528656E+03  0.7546771E-02  0.1026871E+00
         21   -1    0    0  502  501  0.00000000000E+00  0.00000000000E+00  0.40422721355E+03  0.40422721355E+03  0.00000000000E+00 0.  1.
         21   -1    0    0  501  502 -0.00000000000E+00 -0.00000000000E+00 -0.12683906493E+03  0.12683906493E+03  0.00000000000E+00 0.  1.
      99926    2    1    2    0    0  0.00000000000E+00  0.00000000000E+00  0.27738814863E+03  0.53106627848E+03  0.45286555085E+03 0.  0.
      99925    2    3    3    0    0  0.75089281393E+02 -0.80562530569E+02  0.18954560154E+03  0.34267163235E+03  0.26337727891E+03 0.  0.
         25    1    4    4    0    0  0.21212884178E+02 -0.20858534008E+02  0.47645956826E+02  0.13712297473E+03  0.12509000000E+03 0.  0.
         25    1    4    4    0    0  0.53876397215E+02 -0.59703996562E+02  0.14189964471E+03  0.20554865763E+03  0.12509000000E+03 0.  0.
         25    1    3    3    0    0 -0.75089281393E+02  0.80562530569E+02  0.87842547086E+02  0.18839464613E+03  0.12509000000E+03 0.  0.
<mgrwt>
<rscale>  2 0.45286555E+03</rscale>
<asrwt>0</asrwt>
<pdfrwt beam="1">  1       21 0.59445178E-01 0.45286555E+03</pdfrwt>
<pdfrwt beam="2">  1       21 0.18652804E-01 0.45286555E+03</pdfrwt>
<totfact> 0.64213339E+04</totfact>
</mgrwt>
</event>
<event>
 7    0  0.4748297E-002  0.4536473E+03  0.7546771E-02  0.1026640E+00
         21   -1    0    0  502  501  0.00000000000E+00  0.00000000000E+00  0.56398119033E+02  0.56398119033E+02  0.00000000000E+00 0.  1.
         21   -1    0    0  501  502 -0.00000000000E+00 -0.00000000000E+00 -0.91224614531E+03  0.91224614531E+03  0.00000000000E+00 0.  1.
      99926    2    1    2    0    0  0.14210854715E-13 -0.35527136788E-14 -0.85584802627E+03  0.96864426434E+03  0.45364729335E+03 0.  0.
      99925    2    3    3    0    0 -0.10915744179E+03  0.18533013608E+02 -0.57320166118E+03  0.64032232555E+03  0.26304698539E+03 0.  0.
         25    1    3    3    0    0  0.10915744179E+03 -0.18533013608E+02 -0.28264636509E+03  0.32832193879E+03  0.12509000000E+03 0.  0.
         25    1    4    4    0    0 -0.30382917917E+02  0.28623971498E+02 -0.20890199308E+03  0.24704251508E+03  0.12509000000E+03 0.  0.
         25    1    4    4    0    0 -0.78774523868E+02 -0.10090957890E+02 -0.36429966811E+03  0.39327981047E+03  0.12509000000E+03 0.  0.
<mgrwt>
<rscale>  2 0.45364729E+03</rscale>
<asrwt>0</asrwt>
<pdfrwt beam="1">  1       21 0.82938412E-02 0.45364729E+03</pdfrwt>
<pdfrwt beam="2">  1       21 0.13415384E+00 0.45364729E+03</pdfrwt>
<totfact> 0.40824986E+04</totfact>
</mgrwt>
</event>
<event>
 7    0  0.4748297E-002  0.4534742E+03  0.7546771E-02  0.1026691E+00
         21   -1    0    0  502  501  0.00000000000E+00  0.00000000000E+00  0.48004389975E+03  0.48004389975E+03  0.00000000000E+00 0. -1.
         21   -1    0    0  501  502 -0.00000000000E+00 -0.00000000000E+00 -0.10709377131E+03  0.10709377131E+03  0.00000000000E+00 0. -1.
      99926    2    1    2    0    0  0.00000000000E+00  0.00000000000E+00  0.37295012845E+03  0.58713767106E+03  0.45347419604E+03 0.  0.
      99925    2    3    3    0    0  0.20869287725E+02  0.10973054584E+03  0.22512971157E+03  0.36358744492E+03  0.26274726109E+03 0.  0.
         25    1    4    4    0    0 -0.20741003915E+02  0.30918645587E+02  0.85590518977E+02  0.15607497214E+03  0.12509000000E+03 0.  0.
         25    1    3    3    0    0 -0.20869287725E+02 -0.10973054584E+03  0.14782041688E+03  0.22355022614E+03  0.12509000000E+03 0.  0.
         25    1    4    4    0    0  0.41610291640E+02  0.78811900256E+02  0.13953919259E+03  0.20751247279E+03  0.12509000000E+03 0.  0.
<mgrwt>
<rscale>  2 0.45347420E+03</rscale>
<asrwt>0</asrwt>
<pdfrwt beam="1">  1       21 0.70594690E-01 0.45347420E+03</pdfrwt>
<pdfrwt beam="2">  1       21 0.15749084E-01 0.45347420E+03</pdfrwt>
<totfact> 0.60199781E+04</totfact>
</mgrwt>
</event>
<event>
 7    0  0.4748297E-002  0.4548811E+03  0.7546771E-02  0.1026276E+00
         21   -1    0    0  502  501  0.00000000000E+00  0.00000000000E+00  0.40741525571E+02  0.40741525571E+02  0.00000000000E+00 0. -1.
         21   -1    0    0  501  502 -0.00000000000E+00 -0.00000000000E+00 -0.12696924853E+04  0.12696924853E+04  0.00000000000E+00 0. -1.
      99926    2    1    2    0    0  0.00000000000E+00  0.00000000000E+00 -0.12289509597E+04  0.13104340109E+04  0.45488112230E+03 0.  0.
      99925    2    3    3    0    0 -0.81245251799E+02  0.36496800482E+02 -0.97380546389E+03  0.10126429104E+04  0.26308891093E+03 0.  0.
         25    1    4    4    0    0 -0.32055401641E+02  0.96672626401E+01 -0.61642478470E+03  0.62987937578E+03  0.12509000000E+03 0.  0.
         25    1    4    4    0    0 -0.49189850158E+02  0.26829537842E+02 -0.35738067919E+03  0.38276353460E+03  0.12509000000E+03 0.  0.
         25    1    3    3    0    0  0.81245251799E+02 -0.36496800482E+02 -0.25514549583E+03  0.29779110049E+03  0.12509000000E+03 0.  0.
<mgrwt>
<rscale>  2 0.45488112E+03</rscale>
<asrwt>0</asrwt>
<pdfrwt beam="1">  1       21 0.59914007E-02 0.45488112E+03</pdfrwt>
<pdfrwt beam="2">  1       21 0.18671949E+00 0.45488112E+03</pdfrwt>
<totfact> 0.28839809E+04</totfact>
</mgrwt>
</event>
<event>
 7    0  0.4748297E-002  0.4550979E+03  0.7546771E-02  0.1026213E+00
         21   -1    0    0  502  501  0.00000000000E+00  0.00000000000E+00  0.36547469528E+03  0.36547469528E+03  0.00000000000E+00 0. -1.
         21   -1    0    0  501  502 -0.00000000000E+00 -0.00000000000E+00 -0.14167470150E+03  0.14167470150E+03  0.00000000000E+00 0. -1.
      99926    2    1    2    0    0  0.00000000000E+00  0.00000000000E+00  0.22379999378E+03  0.50714939678E+03  0.45509787238E+03 0.  0.
      99925    2    3    3    0    0 -0.11085218963E+03  0.11717657271E+02  0.16322841425E+03  0.32898673014E+03  0.26298905292E+03 0.  0.
         25    1    4    4    0    0 -0.19865632971E+02  0.28520761085E+02  0.80656591572E+02  0.15284328919E+03  0.12509000000E+03 0.  0.
         25    1    4    4    0    0 -0.90986556661E+02 -0.16803103814E+02  0.82571822676E+02  0.17614344095E+03  0.12509000000E+03 0.  0.
         25    1    3    3    0    0  0.11085218963E+03 -0.11717657271E+02  0.60571579533E+02  0.17816266664E+03  0.12509000000E+03 0.  0.
<mgrwt>
<rscale>  2 0.45509787E+03</rscale>
<asrwt>0</asrwt>
<pdfrwt beam="1">  1       21 0.53746279E-01 0.45509787E+03</pdfrwt>
<pdfrwt beam="2">  1       21 0.20834515E-01 0.45509787E+03</pdfrwt>
<totfact> 0.64720967E+04</totfact>
</mgrwt>
</event>
<event>
 7    0  0.4748297E-002  0.4471401E+03  0.7546771E-02  0.1028578E+00
         21   -1    0    0  502  501  0.00000000000E+00  0.00000000000E+00  0.16509889501E+04  0.16509889501E+04  0.00000000000E+00 0.  1.
         21   -1    0    0  501  502 -0.00000000000E+00 -0.00000000000E+00 -0.30274927934E+02  0.30274927934E+02  0.00000000000E+00 0.  1.
      99926    2    1    2    0    0  0.00000000000E+00  0.00000000000E+00  0.16207140222E+04  0.16812638780E+04  0.44714011891E+03 0.  0.
      99925    2    3    3    0    0  0.98911018983E+02  0.24434352795E+02  0.11324187608E+04  0.11670069407E+04  0.26296867199E+03 0.  0.
         25    1    4    4    0    0  0.19463511606E+02  0.38173265186E+02  0.58121989122E+03  0.59607054658E+03  0.12509000000E+03 0.  0.
         25    1    4    4    0    0  0.79447507377E+02 -0.13738912391E+02  0.55119886961E+03  0.57093639410E+03  0.12509000000E+03 0.  0.
         25    1    3    3    0    0 -0.98911018983E+02 -0.24434352795E+02  0.48829526135E+03  0.51425693737E+03  0.12509000000E+03 0.  0.
<mgrwt>
<rscale>  2 0.44714012E+03</rscale>
<asrwt>0</asrwt>
<pdfrwt beam="1">  1       21 0.24279243E+00 0.44714012E+03</pdfrwt>
<pdfrwt beam="2">  1       21 0.44521964E-02 0.44714012E+03</pdfrwt>
<totfact> 0.20900981E+04</totfact>
</mgrwt>
</event>
<event>
 7    0  0.4748297E-002  0.4540304E+03  0.7546771E-02  0.1026527E+00
         21   -1    0    0  502  501  0.00000000000E+00  0.00000000000E+00  0.12213297101E+03  0.12213297101E+03  0.00000000000E+00 0. -1.
         21   -1    0    0  501  502 -0.00000000000E+00 -0.00000000000E+00 -0.42196559022E+03  0.42196559022E+03  0.00000000000E+00 0. -1.
      99926    2    1    2    0    0  0.00000000000E+00  0.00000000000E+00 -0.29983261921E+03  0.54409856123E+03  0.45403044478E+03 0.  0.
      99925    2    3    3    0    0  0.83356472631E+02 -0.71602875432E+02 -0.21638050501E+03  0.35785399952E+03  0.26298990233E+03 0.  0.
         25    1    3    3    0    0 -0.83356472631E+02  0.71602875432E+02 -0.83452114202E+02  0.18624456170E+03  0.12509000000E+03 0.  0.
         25    1    4    4    0    0  0.10310768650E+02 -0.60132189652E+02 -0.94857579870E+02  0.16842701904E+03  0.12509000000E+03 0.  0.
         25    1    4    4    0    0  0.73045703981E+02 -0.11470685780E+02 -0.12152292514E+03  0.18942698049E+03  0.12509000000E+03 0.  0.
<mgrwt>
<rscale>  2 0.45403044E+03</rscale>
<asrwt>0</asrwt>
<pdfrwt beam="1">  1       21 0.17960731E-01 0.45403044E+03</pdfrwt>
<pdfrwt beam="2">  1       21 0.62053763E-01 0.45403044E+03</pdfrwt>
<totfact> 0.62738130E+04</totfact>
</mgrwt>
</event>
<event>
 7    0  0.4748297E-002  0.4554640E+03  0.7546771E-02  0.1026105E+00
         21   -1    0    0  502  501  0.00000000000E+00  0.00000000000E+00  0.26918386096E+02  0.26918386096E+02  0.00000000000E+00 0.  1.
         21   -1    0    0  501  502 -0.00000000000E+00 -0.00000000000E+00 -0.19266332294E+04  0.19266332294E+04  0.00000000000E+00 0.  1.
      99926    2    1    2    0    0  0.00000000000E+00  0.00000000000E+00 -0.18997148433E+04  0.19535516155E+04  0.45546397062E+03 0.  0.
      99925    2    3    3    0    0  0.65194424974E+02 -0.64156977477E+02 -0.14836611511E+04  0.15095756998E+04  0.26306263776E+03 0.  0.
         25    1    4    4    0    0 -0.85120490456E+01 -0.30490138440E+02 -0.73069495652E+03  0.74200049266E+03  0.12509000000E+03 0.  0.
         25    1    3    3    0    0 -0.65194424974E+02  0.64156977477E+02 -0.41605369219E+03  0.44397591567E+03  0.12509000000E+03 0.  0.
         25    1    4    4    0    0  0.73706474020E+02 -0.33666839036E+02 -0.75296619459E+03  0.76757520717E+03  0.12509000000E+03 0.  0.
<mgrwt>
<rscale>  2 0.45546397E+03</rscale>
<asrwt>0</asrwt>
<pdfrwt beam="1">  1       21 0.39585856E-02 0.45546397E+03</pdfrwt>
<pdfrwt beam="2">  1       21 0.28332846E+00 0.45546397E+03</pdfrwt>
<totfact> 0.14431234E+04</totfact>
</mgrwt>
</event>
<event>
 7    0  0.4748297E-002  0.4535990E+03  0.7546771E-02  0.1026654E+00
         21   -1    0    0  502  501  0.00000000000E+00  0.00000000000E+00  0.60620378398E+03  0.60620378398E+03  0.00000000000E+00 0.  1.
         21   -1    0    0  501  502 -0.00000000000E+00 -0.00000000000E+00 -0.84852684859E+02  0.84852684859E+02  0.00000000000E+00 0.  1.
      99926    2    1    2    0    0  0.00000000000E+00  0.00000000000E+00  0.52135109912E+03  0.69105646884E+03  0.45359902399E+03 0.  0.
      99925    2    3    3    0    0 -0.95955525889E+02  0.53814387289E+02  0.29788963281E+03  0.41233440969E+03  0.26301707331E+03 0.  0.
         25    1    3    3    0    0  0.95955525889E+02 -0.53814387289E+02  0.22346146631E+03  0.27872205914E+03  0.12509000000E+03 0.  0.
         25    1    4    4    0    0 -0.66491197825E+02  0.14022816167E+02  0.10381157574E+03  0.17618759922E+03  0.12509000000E+03 0.  0.
         25    1    4    4    0    0 -0.29464328064E+02  0.39791571122E+02  0.19407805707E+03  0.23614681048E+03  0.12509000000E+03 0.  0.
<mgrwt>
<rscale>  2 0.45359902E+03</rscale>
<asrwt>0</asrwt>
<pdfrwt beam="1">  1       21 0.89147613E-01 0.45359902E+03</pdfrwt>
<pdfrwt beam="2">  1       21 0.12478336E-01 0.45359902E+03</pdfrwt>
<totfact> 0.53984195E+04</totfact>
</mgrwt>
</event>
<event>
 7    0  0.4748297E-002  0.4556527E+03  0.7546771E-02  0.1026050E+00
         21   -1    0    0  502  501  0.00000000000E+00  0.00000000000E+00  0.46097677398E+03  0.46097677398E+03  0.00000000000E+00 0.  1.
         21   -1    0    0  501  502 -0.00000000000E+00 -0.00000000000E+00 -0.11259752110E+03  0.11259752110E+03  0.00000000000E+00 0.  1.
      99926    2    1    2    0    0  0.00000000000E+00 -0.35527136788E-14  0.34837925287E+03  0.57357429508E+03  0.45565268368E+03 0.  0.
      99925    2    3    3    0    0  0.73488155133E+02 -0.30027547657E+02  0.11641382450E+03  0.29833325413E+03  0.26296081347E+03 0.  0.
         25    1    4    4    0    0  0.52034227670E+02 -0.36550348208E+02  0.26877114422E+02  0.14287538690E+03  0.12509000000E+03 0.  0.
         25    1    3    3    0    0 -0.73488155133E+02  0.30027547657E+02  0.23196542837E+03  0.27524104095E+03  0.12509000000E+03 0.  0.
         25    1    4    4    0    0  0.21453927463E+02  0.65228005508E+01  0.89536710080E+02  0.15545786723E+03  0.12509000000E+03 0.  0.
<mgrwt>
<rscale>  2 0.45565268E+03</rscale>
<asrwt>0</asrwt>
<pdfrwt beam="1">  1       21 0.67790701E-01 0.45565268E+03</pdfrwt>
<pdfrwt beam="2">  1       21 0.16558459E-01 0.45565268E+03</pdfrwt>
<totfact> 0.60024677E+04</totfact>
</mgrwt>
</event>
<event>
 7    0  0.4748297E-002  0.4594004E+03  0.7546771E-02  0.1024955E+00
         21   -1    0    0  502  501  0.00000000000E+00  0.00000000000E+00  0.12828858851E+03  0.12828858851E+03  0.00000000000E+00 0. -1.
         21   -1    0    0  501  502 -0.00000000000E+00 -0.00000000000E+00 -0.41127722082E+03  0.41127722082E+03  0.00000000000E+00 0. -1.
      99926    2    1    2    0    0  0.00000000000E+00  0.00000000000E+00 -0.28298863231E+03  0.53956580933E+03  0.45940036632E+03 0.  0.
      99925    2    3    3    0    0  0.71598550357E+02 -0.60710117508E+02 -0.25994580451E+03  0.38148181016E+03  0.26295337879E+03 0.  0.
         25    1    4    4    0    0  0.97522176352E+01 -0.18747581457E+02 -0.16262366513E+03  0.20625358693E+03  0.12509000000E+03 0.  0.
         25    1    3    3    0    0 -0.71598550357E+02  0.60710117508E+02 -0.23042827798E+02  0.15808399917E+03  0.12509000000E+03 0.  0.
         25    1    4    4    0    0  0.61846332722E+02 -0.41962536051E+02 -0.97322139383E+02  0.17522822323E+03  0.12509000000E+03 0.  0.
<mgrwt>
<rscale>  2 0.45940037E+03</rscale>
<asrwt>0</asrwt>
<pdfrwt beam="1">  1       21 0.18865969E-01 0.45940037E+03</pdfrwt>
<pdfrwt beam="2">  1       21 0.60481943E-01 0.45940037E+03</pdfrwt>
<totfact> 0.60428598E+04</totfact>
</mgrwt>
</event>
<event>
 7    0  0.4748297E-002  0.4552026E+03  0.7546771E-02  0.1026182E+00
         21   -1    0    0  502  501  0.00000000000E+00  0.00000000000E+00  0.26558854539E+03  0.26558854539E+03  0.00000000000E+00 0.  1.
         21   -1    0    0  501  502 -0.00000000000E+00 -0.00000000000E+00 -0.19504742923E+03  0.19504742923E+03  0.00000000000E+00 0.  1.
      99926    2    1    2    0    0 -0.71054273576E-14  0.71054273576E-14  0.70541116161E+02  0.46063597461E+03  0.45520264942E+03 0.  0.
      99925    2    3    3    0    0  0.47637869400E+02 -0.35290150648E+02  0.14207143223E+03  0.30481923754E+03  0.26308879563E+03 0.  0.
         25    1    3    3    0    0 -0.47637869400E+02  0.35290150648E+02 -0.71530316068E+02  0.15581673707E+03  0.12509000000E+03 0.  0.
         25    1    4    4    0    0  0.11246717294E+02  0.21659244658E+02  0.70304689151E+02  0.14555366346E+03  0.12509000000E+03 0.  0.
         25    1    4    4    0    0  0.36391152106E+02 -0.56949395306E+02  0.71766743079E+02  0.15926557409E+03  0.12509000000E+03 0.  0.
<mgrwt>
<rscale>  2 0.45520265E+03</rscale>
<asrwt>0</asrwt>
<pdfrwt beam="1">  1       21 0.39057139E-01 0.45520265E+03</pdfrwt>
<pdfrwt beam="2">  1       21 0.28683445E-01 0.45520265E+03</pdfrwt>
<totfact> 0.68024234E+04</totfact>
</mgrwt>
</event>
<event>
 7    0  0.4748297E-002  0.4432702E+03  0.7546771E-02  0.1029748E+00
         21   -1    0    0  502  501  0.00000000000E+00  0.00000000000E+00  0.69442512637E+03  0.69442512637E+03  0.00000000000E+00 0. -1.
         21   -1    0    0  501  502 -0.00000000000E+00 -0.00000000000E+00 -0.70737812331E+02  0.70737812331E+02  0.00000000000E+00 0. -1.
      99926    2    1    2    0    0  0.00000000000E+00  0.00000000000E+00  0.62368731404E+03  0.76516293870E+03  0.44327018518E+03 0.  0.
      99925    2    3    3    0    0 -0.42161129647E+02 -0.20319071598E+02  0.24061478135E+03  0.35947525226E+03  0.26293831684E+03 0.  0.
         25    1    4    4    0    0  0.69351167063E+01 -0.22503850643E+02  0.81265902883E+02  0.15101713217E+03  0.12509000000E+03 0.  0.
         25    1    3    3    0    0  0.42161129647E+02  0.20319071598E+02  0.38307253269E+03  0.40568768644E+03  0.12509000000E+03 0.  0.
         25    1    4    4    0    0 -0.49096246353E+02  0.21847790447E+01  0.15934887847E+03  0.20845812009E+03  0.12509000000E+03 0.  0.
<mgrwt>
<rscale>  2 0.44327019E+03</rscale>
<asrwt>0</asrwt>
<pdfrwt beam="1">  1       21 0.10212134E+00 0.44327019E+03</pdfrwt>
<pdfrwt beam="2">  1       21 0.10402620E-01 0.44327019E+03</pdfrwt>
<totfact> 0.54328764E+04</totfact>
</mgrwt>
</event>
<event>
 7    0  0.4748297E-002  0.4607702E+03  0.7546771E-02  0.1024558E+00
         21   -1    0    0  502  501  0.00000000000E+00  0.00000000000E+00  0.57130197967E+03  0.57130197967E+03  0.00000000000E+00 0.  1.
         21   -1    0    0  501  502 -0.00000000000E+00 -0.00000000000E+00 -0.92905854863E+02  0.92905854863E+02  0.00000000000E+00 0.  1.
      99926    2    1    2    0    0  0.22204460493E-15  0.00000000000E+00  0.47839612480E+03  0.66420783453E+03  0.46077021955E+03 0.  0.
      99925    2    3    3    0    0  0.66827511272E+00 -0.76804875825E+02  0.16945334378E+03  0.32216604529E+03  0.26301537878E+03 0.  0.
         25    1    3    3    0    0 -0.66827511272E+00  0.76804875825E+02  0.30894278102E+03  0.34204178924E+03  0.12509000000E+03 0.  0.
         25    1    4    4    0    0  0.56687950345E+01 -0.63003885614E+02  0.12729485648E+03  0.18934918385E+03  0.12509000000E+03 0.  0.
         25    1    4    4    0    0 -0.50005199218E+01 -0.13800990211E+02  0.42158487303E+02  0.13281686144E+03  0.12509000000E+03 0.  0.
<mgrwt>
<rscale>  2 0.46077022E+03</rscale>
<asrwt>0</asrwt>
<pdfrwt beam="1">  1       21 0.84014995E-01 0.46077022E+03</pdfrwt>
<pdfrwt beam="2">  1       21 0.13662626E-01 0.46077022E+03</pdfrwt>
<totfact> 0.52461518E+04</totfact>
</mgrwt>
</event>
<event>
 7    0  0.4748297E-002  0.4487649E+03  0.7546771E-02  0.1028091E+00
         21   -1    0    0  502  501  0.00000000000E+00  0.00000000000E+00  0.58826293928E+03  0.58826293928E+03  0.00000000000E+00 0.  1.
         21   -1    0    0  501  502 -0.00000000000E+00 -0.00000000000E+00 -0.85586687525E+02  0.85586687525E+02  0.00000000000E+00 0.  1.
      99926    2    1    2    0    0  0.00000000000E+00  0.14210854715E-13  0.50267625175E+03  0.67384962680E+03  0.44876486657E+03 0.  0.
      99925    2    3    3    0    0  0.42081363049E+02  0.98015354196E+02  0.30267513005E+03  0.41495619784E+03  0.26305619363E+03 0.  0.
         25    1    3    3    0    0 -0.42081363049E+02 -0.98015354196E+02  0.20000112171E+03  0.25889342896E+03  0.12509000000E+03 0.  0.
         25    1    4    4    0    0 -0.10426405748E+02  0.67899188554E+02  0.12764229929E+03  0.19146559590E+03  0.12509000000E+03 0.  0.
         25    1    4    4    0    0  0.52507768797E+02  0.30116165641E+02  0.17503283075E+03  0.22349060195E+03  0.12509000000E+03 0.  0.
<mgrwt>
<rscale>  2 0.44876487E+03</rscale>
<asrwt>0</asrwt>
<pdfrwt beam="1">  1       21 0.86509253E-01 0.44876487E+03</pdfrwt>
<pdfrwt beam="2">  1       21 0.12586278E-01 0.44876487E+03</pdfrwt>
<totfact> 0.57099221E+04</totfact>
</mgrwt>
</event>
<event>
 7    0  0.4748297E-002  0.4735568E+03  0.7546771E-02  0.1020921E+00
         21   -1    0    0  502  501  0.00000000000E+00  0.00000000000E+00  0.57218251822E+03  0.57218251822E+03  0.00000000000E+00 0. -1.
         21   -1    0    0  501  502 -0.00000000000E+00 -0.00000000000E+00 -0.97982742411E+02  0.97982742411E+02  0.00000000000E+00 0. -1.
      99926    2    1    2    0    0  0.00000000000E+00  0.00000000000E+00  0.47419977581E+03  0.67016526063E+03  0.47355680671E+03 0.  0.
      99925    2    3    3    0    0  0.87310082183E+02  0.31429420904E+02  0.42204705233E+03  0.50591461797E+03  0.26308748990E+03 0.  0.
         25    1    4    4    0    0  0.77429626667E+02  0.35592860017E+02  0.19981588793E+03  0.25067129061E+03  0.12509000000E+03 0.  0.
         25    1    4    4    0    0  0.98804555162E+01 -0.41634391131E+01  0.22223116441E+03  0.25524332736E+03  0.12509000000E+03 0.  0.
         25    1    3    3    0    0 -0.87310082183E+02 -0.31429420904E+02  0.52152723478E+02  0.16425064266E+03  0.12509000000E+03 0.  0.
<mgrwt>
<rscale>  2 0.47355681E+03</rscale>
<asrwt>0</asrwt>
<pdfrwt beam="1">  1       21 0.84144487E-01 0.47355681E+03</pdfrwt>
<pdfrwt beam="2">  1       21 0.14409227E-01 0.47355681E+03</pdfrwt>
<totfact> 0.47250971E+04</totfact>
</mgrwt>
</event>
<event>
 7    0  0.4748297E-002  0.4529036E+03  0.7546771E-02  0.1026860E+00
         21   -1    0    0  502  501  0.00000000000E+00  0.00000000000E+00  0.23365139136E+03  0.23365139136E+03  0.00000000000E+00 0.  1.
         21   -1    0    0  501  502 -0.00000000000E+00 -0.00000000000E+00 -0.21947400580E+03  0.21947400580E+03  0.00000000000E+00 0.  1.
      99926    2    1    2    0    0  0.35527136788E-14 -0.35527136788E-14  0.14177385558E+02  0.45312539716E+03  0.45290355186E+03 0.  0.
      99925    2    3    3    0    0  0.31713025117E+02  0.22635253656E+02 -0.95120498816E+02  0.28250416079E+03  0.26313992646E+03 0.  0.
         25    1    4    4    0    0  0.11694316294E+02 -0.25165437983E+02 -0.27045527819E+02  0.13095428583E+03  0.12509000000E+03 0.  0.
         25    1    4    4    0    0  0.20018708822E+02  0.47800691639E+02 -0.68074970997E+02  0.15154987496E+03  0.12509000000E+03 0.  0.
         25    1    3    3    0    0 -0.31713025117E+02 -0.22635253656E+02  0.10929788437E+03  0.17062123637E+03  0.12509000000E+03 0.  0.
<mgrwt>
<rscale>  2 0.45290355E+03</rscale>
<asrwt>0</asrwt>
<pdfrwt beam="1">  1       21 0.34360499E-01 0.45290355E+03</pdfrwt>
<pdfrwt beam="2">  1       21 0.32275589E-01 0.45290355E+03</pdfrwt>
<totfact> 0.69844377E+04</totfact>
</mgrwt>
</event>
<event>
 7    0  0.4748297E-002  0.4479645E+03  0.7546771E-02  0.1028331E+00
         21   -1    0    0  502  501  0.00000000000E+00  0.00000000000E+00  0.32233474524E+02  0.32233474524E+02  0.00000000000E+00 0.  1.
         21   -1    0    0  501  502 -0.00000000000E+00 -0.00000000000E+00 -0.15563958049E+04  0.15563958049E+04  0.00000000000E+00 0.  1.
      99926    2    1    2    0    0  0.00000000000E+00 -0.88817841970E-15 -0.15241623304E+04  0.15886292795E+04  0.44796448309E+03 0.  0.
      99925    2    3    3    0    0  0.10491249024E+03  0.25207355185E+01 -0.10205377941E+04  0.10591973515E+04  0.26341726486E+03 0.  0.
         25    1    4    4    0    0  0.37561936360E+02 -0.37475790971E+02 -0.50192251105E+03  0.51998947025E+03  0.12509000000E+03 0.  0.
         25    1    4    4    0    0  0.67350553882E+02  0.39996526489E+02 -0.51861528308E+03  0.53920788124E+03  0.12509000000E+03 0.  0.
         25    1    3    3    0    0 -0.10491249024E+03 -0.25207355185E+01 -0.50362453628E+03  0.52943192798E+03  0.12509000000E+03 0.  0.
<mgrwt>
<rscale>  2 0.44796448E+03</rscale>
<asrwt>0</asrwt>
<pdfrwt beam="1">  1       21 0.47402168E-02 0.44796448E+03</pdfrwt>
<pdfrwt beam="2">  1       21 0.22888174E+00 0.44796448E+03</pdfrwt>
<totfact> 0.22914474E+04</totfact>
</mgrwt>
</event>
<event>
 7    0  0.4748297E-002  0.4546042E+03  0.7546771E-02  0.1026358E+00
         21   -1    0    0  502  501  0.00000000000E+00  0.00000000000E+00  0.23130274423E+03  0.23130274423E+03  0.00000000000E+00 0. -1.
         21   -1    0    0  501  502 -0.00000000000E+00 -0.00000000000E+00 -0.22337064426E+03  0.22337064426E+03  0.00000000000E+00 0. -1.
      99926    2    1    2    0    0  0.71054273576E-14 -0.14210854715E-13  0.79320999664E+01  0.45467338849E+03  0.45460419267E+03 0.  0.
      99925    2    3    3    0    0  0.61203245792E+02 -0.93790628971E+02 -0.79299214777E+01  0.28602692039E+03  0.26307032550E+03 0.  0.
         25    1    4    4    0    0  0.30565065966E+02 -0.32845162892E+02 -0.42295127851E+02  0.13946115561E+03  0.12509000000E+03 0.  0.
         25    1    4    4    0    0  0.30638179827E+02 -0.60945466079E+02  0.34365206373E+02  0.14656576479E+03  0.12509000000E+03 0.  0.
         25    1    3    3    0    0 -0.61203245792E+02  0.93790628971E+02  0.15862021444E+02  0.16864646810E+03  0.12509000000E+03 0.  0.
<mgrwt>
<rscale>  2 0.45460419E+03</rscale>
<asrwt>0</asrwt>
<pdfrwt beam="1">  1       21 0.34015110E-01 0.45460419E+03</pdfrwt>
<pdfrwt beam="2">  1       21 0.32848624E-01 0.45460419E+03</pdfrwt>
<totfact> 0.68786708E+04</totfact>
</mgrwt>
</event>
<event>
 7    0  0.4748297E-002  0.4613389E+03  0.7546771E-02  0.1024394E+00
         21   -1    0    0  502  501  0.00000000000E+00  0.00000000000E+00  0.23592164397E+03  0.23592164397E+03  0.00000000000E+00 0.  1.
         21   -1    0    0  501  502 -0.00000000000E+00 -0.00000000000E+00 -0.22553423138E+03  0.22553423138E+03  0.00000000000E+00 0.  1.
      99926    2    1    2    0    0  0.14210854715E-13  0.00000000000E+00  0.10387412585E+02  0.46145587535E+03  0.46133894975E+03 0.  0.
      99925    2    3    3    0    0  0.73693139905E+02 -0.62160891138E+02  0.76299847640E+02  0.29032255758E+03  0.26300354643E+03 0.  0.
         25    1    4    4    0    0  0.59678802657E+02  0.17298212719E+01  0.30547251587E+02  0.14193376782E+03  0.12509000000E+03 0.  0.
         25    1    3    3    0    0 -0.73693139905E+02  0.62160891138E+02 -0.65912435055E+02  0.17113331777E+03  0.12509000000E+03 0.  0.
         25    1    4    4    0    0  0.14014337248E+02 -0.63890712410E+02  0.45752596053E+02  0.14838878976E+03  0.12509000000E+03 0.  0.
<mgrwt>
<rscale>  2 0.46133895E+03</rscale>
<asrwt>0</asrwt>
<pdfrwt beam="1">  1       21 0.34694359E-01 0.46133895E+03</pdfrwt>
<pdfrwt beam="2">  1       21 0.33166799E-01 0.46133895E+03</pdfrwt>
<totfact> 0.64738572E+04</totfact>
</mgrwt>
</event>
<event>
 7    0  0.4748297E-002  0.4532267E+03  0.7546771E-02  0.1026764E+00
         21   -1    0    0  502  501  0.00000000000E+00  0.00000000000E+00  0.11581795382E+04  0.11581795382E+04  0.00000000000E+00 0.  1.
         21   -1    0    0  501  502 -0.00000000000E+00 -0.00000000000E+00 -0.44339941026E+02  0.44339941026E+02  0.00000000000E+00 0.  1.
      99926    2    1    2    0    0  0.00000000000E+00  0.00000000000E+00  0.11138395972E+04  0.12025194793E+04  0.45322670893E+03 0.  0.
      99925    2    3    3    0    0  0.62443952951E+02  0.49947388382E+02  0.49678931688E+03  0.56786008602E+03  0.26319472462E+03 0.  0.
         25    1    3    3    0    0 -0.62443952951E+02 -0.49947388382E+02  0.61705028033E+03  0.63465939324E+03  0.12509000000E+03 0.  0.
         25    1    4    4    0    0  0.85546993598E+01 -0.22713625163E+01  0.18326727414E+03  0.22206472894E+03  0.12509000000E+03 0.  0.
         25    1    4    4    0    0  0.53889253591E+02  0.52218750898E+02  0.31352204273E+03  0.34579535708E+03  0.12509000000E+03 0.  0.
<mgrwt>
<rscale>  2 0.45322671E+03</rscale>
<asrwt>0</asrwt>
<pdfrwt beam="1">  1       21 0.17032050E+00 0.45322671E+03</pdfrwt>
<pdfrwt beam="2">  1       21 0.65205803E-02 0.45322671E+03</pdfrwt>
<totfact> 0.32523140E+04</totfact>
</mgrwt>
</event>
<event>
 7    0  0.4748297E-002  0.4254997E+03  0.7546771E-02  0.1035291E+00
         21   -1    0    0  502  501  0.00000000000E+00  0.00000000000E+00  0.81769359255E+02  0.81769359255E+02  0.00000000000E+00 0.  1.
         21   -1    0    0  501  502 -0.00000000000E+00 -0.00000000000E+00 -0.55353868907E+03  0.55353868907E+03  0.00000000000E+00 0.  1.
      99926    2    1    2    0    0 -0.17763568394E-14  0.00000000000E+00 -0.47176932981E+03  0.63530804832E+03  0.42549972469E+03 0.  0.
      99925    2    3    3    0    0  0.14455358814E+02 -0.71259817535E+02 -0.24799030209E+03  0.36882825482E+03  0.26315047527E+03 0.  0.
         25    1    4    4    0    0  0.22928030707E+02 -0.58166642090E+02 -0.88340172992E+02  0.16541023883E+03  0.12509000000E+03 0.  0.
         25    1    3    3    0    0 -0.14455358814E+02  0.71259817535E+02 -0.22377902772E+03  0.26647979350E+03  0.12509000000E+03 0.  0.
         25    1    4    4    0    0 -0.84726718932E+01 -0.13093175445E+02 -0.15965012910E+03  0.20341801600E+03  0.12509000000E+03 0.  0.
<mgrwt>
<rscale>  2 0.42549972E+03</rscale>
<asrwt>0</asrwt>
<pdfrwt beam="1">  1       21 0.12024906E-01 0.42549972E+03</pdfrwt>
<pdfrwt beam="2">  1       21 0.81402749E-01 0.42549972E+03</pdfrwt>
<totfact> 0.71878427E+04</totfact>
</mgrwt>
</event>
<event>
 7    0  0.4748297E-002  0.4545195E+03  0.7546771E-02  0.1026383E+00
         21   -1    0    0  502  501  0.00000000000E+00  0.00000000000E+00  0.61387566797E+02  0.61387566797E+02  0.00000000000E+00 0. -1.
         21   -1    0    0  501  502 -0.00000000000E+00 -0.00000000000E+00 -0.84132650064E+03  0.84132650064E+03  0.00000000000E+00 0. -1.
      99926    2    1    2    0    0  0.00000000000E+00  0.00000000000E+00 -0.77993893384E+03  0.90271406744E+03  0.45451946826E+03 0.  0.
      99925    2    3    3    0    0 -0.75556937567E+02  0.68994828927E+02 -0.39712250116E+03  0.48718420513E+03  0.26300766447E+03 0.  0.
         25    1    4    4    0    0 -0.12582404469E+02  0.52540965420E+02 -0.14990347066E+03  0.20257696949E+03  0.12509000000E+03 0.  0.
         25    1    4    4    0    0 -0.62974533098E+02  0.16453863507E+02 -0.24721903050E+03  0.28460723565E+03  0.12509000000E+03 0.  0.
         25    1    3    3    0    0  0.75556937567E+02 -0.68994828927E+02 -0.38281643268E+03  0.41552986230E+03  0.12509000000E+03 0.  0.
<mgrwt>
<rscale>  2 0.45451947E+03</rscale>
<asrwt>0</asrwt>
<pdfrwt beam="1">  1       21 0.90275837E-02 0.45451947E+03</pdfrwt>
<pdfrwt beam="2">  1       21 0.12372448E+00 0.45451947E+03</pdfrwt>
<totfact> 0.43279152E+04</totfact>
</mgrwt>
</event>
<event>
 7    0  0.4748297E-002  0.4562809E+03  0.7546771E-02  0.1025865E+00
         21   -1    0    0  502  501  0.00000000000E+00  0.00000000000E+00  0.30888284550E+03  0.30888284550E+03  0.00000000000E+00 0. -1.
         21   -1    0    0  501  502 -0.00000000000E+00 -0.00000000000E+00 -0.16850425431E+03  0.16850425431E+03  0.00000000000E+00 0. -1.
      99926    2    1    2    0    0  0.00000000000E+00  0.00000000000E+00  0.14037859119E+03  0.47738709981E+03  0.45628093780E+03 0.  0.
      99925    2    3    3    0    0 -0.31082681919E+02 -0.10396395586E+02 -0.26394813350E+02  0.26635370265E+03  0.26300834699E+03 0.  0.
         25    1    3    3    0    0  0.31082681919E+02  0.10396395586E+02  0.16677340454E+03  0.21103339716E+03  0.12509000000E+03 0.  0.
         25    1    4    4    0    0  0.77657615469E+01 -0.37347086412E+02 -0.21532623546E+02  0.13253782061E+03  0.12509000000E+03 0.  0.
         25    1    4    4    0    0 -0.38848443466E+02  0.26950690826E+02 -0.48621898041E+01  0.13381588204E+03  0.12509000000E+03 0.  0.
<mgrwt>
<rscale>  2 0.45628094E+03</rscale>
<asrwt>0</asrwt>
<pdfrwt beam="1">  1       21 0.45423948E-01 0.45628094E+03</pdfrwt>
<pdfrwt beam="2">  1       21 0.24780037E-01 0.45628094E+03</pdfrwt>
<totfact> 0.66215080E+04</totfact>
</mgrwt>
</event>
<event>
 7    0  0.4748297E-002  0.4602468E+03  0.7546771E-02  0.1024710E+00
         21   -1    0    0  502  501  0.00000000000E+00  0.00000000000E+00  0.98100655369E+03  0.98100655369E+03  0.00000000000E+00 0.  1.
         21   -1    0    0  501  502 -0.00000000000E+00 -0.00000000000E+00 -0.53982088034E+02  0.53982088034E+02  0.00000000000E+00 0.  1.
      99926    2    1    2    0    0  0.00000000000E+00  0.14210854715E-13  0.92702446566E+03  0.10349886417E+04  0.46024681267E+03 0.  0.
      99925    2    3    3    0    0  0.65930295993E+02 -0.82678084820E+02  0.46118879809E+03  0.54119430506E+03  0.26270458449E+03 0.  0.
         25    1    4    4    0    0  0.34449997508E+02 -0.78269683335E+02  0.21227235306E+03  0.26080645243E+03  0.12509000000E+03 0.  0.
         25    1    3    3    0    0 -0.65930295993E+02  0.82678084820E+02  0.46583566757E+03  0.49379433666E+03  0.12509000000E+03 0.  0.
         25    1    4    4    0    0  0.31480298485E+02 -0.44084014855E+01  0.24891644503E+03  0.28038785263E+03  0.12509000000E+03 0.  0.
<mgrwt>
<rscale>  2 0.46024681E+03</rscale>
<asrwt>0</asrwt>
<pdfrwt beam="1">  1       21 0.14426566E+00 0.46024681E+03</pdfrwt>
<pdfrwt beam="2">  1       21 0.79385430E-02 0.46024681E+03</pdfrwt>
<totfact> 0.36322368E+04</totfact>
</mgrwt>
</event>
<event>
 7    0  0.4748297E-002  0.4590425E+03  0.7546771E-02  0.1025059E+00
         21   -1    0    0  502  501  0.00000000000E+00  0.00000000000E+00  0.56609828188E+03  0.56609828188E+03  0.00000000000E+00 0. -1.
         21   -1    0    0  501  502 -0.00000000000E+00 -0.00000000000E+00 -0.93058053578E+02  0.93058053578E+02  0.00000000000E+00 0. -1.
      99926    2    1    2    0    0  0.00000000000E+00  0.00000000000E+00  0.47304022830E+03  0.65915633546E+03  0.45904250019E+03 0.  0.
      99925    2    3    3    0    0  0.98140076650E+02  0.27978894479E+02  0.21472813349E+03  0.35454684840E+03  0.26302281881E+03 0.  0.
         25    1    3    3    0    0 -0.98140076650E+02 -0.27978894479E+02  0.25831209480E+03  0.30460948705E+03  0.12509000000E+03 0.  0.
         25    1    4    4    0    0  0.60719434765E+02 -0.22436187509E+02  0.90587506450E+02  0.16746294125E+03  0.12509000000E+03 0.  0.
         25    1    4    4    0    0  0.37420641885E+02  0.50415081988E+02  0.12414062705E+03  0.18708390715E+03  0.12509000000E+03 0.  0.
<mgrwt>
<rscale>  2 0.45904250E+03</rscale>
<asrwt>0</asrwt>
<pdfrwt beam="1">  1       21 0.83249746E-01 0.45904250E+03</pdfrwt>
<pdfrwt beam="2">  1       21 0.13685008E-01 0.45904250E+03</pdfrwt>
<totfact> 0.53452222E+04</totfact>
</mgrwt>
</event>
<event>
 7    0  0.4748297E-002  0.4560750E+03  0.7546771E-02  0.1025926E+00
         21   -1    0    0  502  501  0.00000000000E+00  0.00000000000E+00  0.88087899697E+03  0.88087899697E+03  0.00000000000E+00 0.  1.
         21   -1    0    0  501  502 -0.00000000000E+00 -0.00000000000E+00 -0.59033199760E+02  0.59033199760E+02  0.00000000000E+00 0.  1.
      99926    2    1    2    0    0 -0.14210854715E-13  0.00000000000E+00  0.82184579721E+03  0.93991219673E+03  0.45607501923E+03 0.  0.
      99925    2    3    3    0    0 -0.11139097751E+03  0.24497679865E+02  0.52049147131E+03  0.59426783610E+03  0.26312507128E+03 0.  0.
         25    1    4    4    0    0 -0.67008978918E+02  0.50775798678E+02  0.29572325785E+03  0.33191586030E+03  0.12509000000E+03 0.  0.
         25    1    3    3    0    0  0.11139097751E+03 -0.24497679865E+02  0.30135432590E+03  0.34564436062E+03  0.12509000000E+03 0.  0.
         25    1    4    4    0    0 -0.44381998593E+02 -0.26278118814E+02  0.22476821346E+03  0.26235197580E+03  0.12509000000E+03 0.  0.
<mgrwt>
<rscale>  2 0.45607502E+03</rscale>
<asrwt>0</asrwt>
<pdfrwt beam="1">  1       21 0.12954102E+00 0.45607502E+03</pdfrwt>
<pdfrwt beam="2">  1       21 0.86813534E-02 0.45607502E+03</pdfrwt>
<totfact> 0.41204495E+04</totfact>
</mgrwt>
</event>
<event>
 7    0  0.4748297E-002  0.4526503E+03  0.7546771E-02  0.1026935E+00
         21   -1    0    0  502  501  0.00000000000E+00  0.00000000000E+00  0.63262876372E+03  0.63262876372E+03  0.00000000000E+00 0.  1.
         21   -1    0    0  501  502 -0.00000000000E+00 -0.00000000000E+00 -0.80968611316E+02  0.80968611316E+02  0.00000000000E+00 0.  1.
      99926    2    1    2    0    0  0.14210854715E-13  0.00000000000E+00  0.55166015240E+03  0.71359737504E+03  0.45265029538E+03 0.  0.
      99925    2    3    3    0    0  0.95336475756E+02 -0.56148576983E+02  0.33197894763E+03  0.43764620881E+03  0.26283545445E+03 0.  0.
         25    1    4    4    0    0  0.81909988812E+01 -0.41344767138E+02  0.15484664442E+03  0.20347352068E+03  0.12509000000E+03 0.  0.
         25    1    3    3    0    0 -0.95336475756E+02  0.56148576983E+02  0.21968120478E+03  0.27595116622E+03  0.12509000000E+03 0.  0.
         25    1    4    4    0    0  0.87145476875E+02 -0.14803809845E+02  0.17713230321E+03  0.23417268813E+03  0.12509000000E+03 0.  0.
<mgrwt>
<rscale>  2 0.45265030E+03</rscale>
<asrwt>0</asrwt>
<pdfrwt beam="1">  1       21 0.93033639E-01 0.45265030E+03</pdfrwt>
<pdfrwt beam="2">  1       21 0.11907149E-01 0.45265030E+03</pdfrwt>
<totfact> 0.53146555E+04</totfact>
</mgrwt>
</event>
<event>
 7    0  0.4748297E-002  0.4541992E+03  0.7546771E-02  0.1026477E+00
         21   -1    0    0  502  501  0.00000000000E+00  0.00000000000E+00  0.27038664080E+04  0.27038664080E+04  0.00000000000E+00 0.  1.
         21   -1    0    0  501  502 -0.00000000000E+00 -0.00000000000E+00 -0.19074251194E+02  0.19074251194E+02  0.00000000000E+00 0.  1.
      99926    2    1    2    0    0  0.00000000000E+00  0.00000000000E+00  0.26847921568E+04  0.27229406592E+04  0.45419919445E+03 0.  0.
      99925    2    3    3    0    0 -0.66112013392E+02 -0.85919860044E+02  0.18699351297E+04  0.18914405069E+04  0.26293873983E+03 0.  0.
         25    1    4    4    0    0 -0.85473780594E+01 -0.57512933144E+02  0.11175393882E+04  0.11260206869E+04  0.12509000000E+03 0.  0.
         25    1    4    4    0    0 -0.57564635332E+02 -0.28406926900E+02  0.75239574153E+03  0.76541981991E+03  0.12509000000E+03 0.  0.
         25    1    3    3    0    0  0.66112013392E+02  0.85919860044E+02  0.81485702703E+03  0.83150015230E+03  0.12509000000E+03 0.  0.
<mgrwt>
<rscale>  2 0.45419919E+03</rscale>
<asrwt>0</asrwt>
<pdfrwt beam="1">  1       21 0.39762715E+00 0.45419919E+03</pdfrwt>
<pdfrwt beam="2">  1       21 0.28050388E-02 0.45419919E+03</pdfrwt>
<totfact> 0.51412564E+03</totfact>
</mgrwt>
</event>
<event>
 7    0  0.4748297E-002  0.4378184E+03  0.7546771E-02  0.1031418E+00
         21   -1    0    0  502  501  0.00000000000E+00  0.00000000000E+00  0.70078741799E+02  0.70078741799E+02  0.00000000000E+00 0.  1.
         21   -1    0    0  501  502 -0.00000000000E+00 -0.00000000000E+00 -0.68381985370E+03  0.68381985370E+03  0.00000000000E+00 0.  1.
      99926    2    1    2    0    0  0.00000000000E+00  0.00000000000E+00 -0.61374111190E+03  0.75389859550E+03  0.43781838684E+03 0.  0.
      99925    2    3    3    0    0  0.21915938291E+02  0.80842104876E+01 -0.23207218794E+03  0.35157492178E+03  0.26306227857E+03 0.  0.
         25    1    4    4    0    0 -0.11820003017E+02 -0.26823365335E+02 -0.13186835884E+03  0.18410860263E+03  0.12509000000E+03 0.  0.
         25    1    4    4    0    0  0.33735941308E+02  0.34907575823E+02 -0.10020382910E+03  0.16746631916E+03  0.12509000000E+03 0.  0.
         25    1    3    3    0    0 -0.21915938291E+02 -0.80842104876E+01 -0.38166892396E+03  0.40232367371E+03  0.12509000000E+03 0.  0.
<mgrwt>
<rscale>  2 0.43781839E+03</rscale>
<asrwt>0</asrwt>
<pdfrwt beam="1">  1       21 0.10305698E-01 0.43781839E+03</pdfrwt>
<pdfrwt beam="2">  1       21 0.10056174E+00 0.43781839E+03</pdfrwt>
<totfact> 0.57441045E+04</totfact>
</mgrwt>
</event>
<event>
 7    0  0.4748297E-002  0.4567749E+03  0.7546771E-02  0.1025721E+00
         21   -1    0    0  502  501  0.00000000000E+00  0.00000000000E+00  0.80555913960E+03  0.80555913960E+03  0.00000000000E+00 0.  1.
         21   -1    0    0  501  502 -0.00000000000E+00 -0.00000000000E+00 -0.64751094342E+02  0.64751094342E+02  0.00000000000E+00 0.  1.
      99926    2    1    2    0    0  0.00000000000E+00  0.00000000000E+00  0.74080804525E+03  0.87031023394E+03  0.45677493734E+03 0.  0.
      99925    2    3    3    0    0  0.17224968672E+02 -0.82894251808E+02  0.31845255585E+03  0.42175720022E+03  0.26324693556E+03 0.  0.
         25    1    4    4    0    0 -0.22804459298E+02 -0.60565513962E+02  0.13549346489E+03  0.19543339524E+03  0.12509000000E+03 0.  0.
         25    1    3    3    0    0 -0.17224968672E+02  0.82894251808E+02  0.42235548941E+03  0.44855303372E+03  0.12509000000E+03 0.  0.
         25    1    4    4    0    0  0.40029427970E+02 -0.22328737846E+02  0.18295909095E+03  0.22632380498E+03  0.12509000000E+03 0.  0.
<mgrwt>
<rscale>  2 0.45677494E+03</rscale>
<asrwt>0</asrwt>
<pdfrwt beam="1">  1       21 0.11846457E+00 0.45677494E+03</pdfrwt>
<pdfrwt beam="2">  1       21 0.95222202E-02 0.45677494E+03</pdfrwt>
<totfact> 0.43928328E+04</totfact>
</mgrwt>
</event>
<event>
 7    0  0.4748297E-002  0.4588051E+03  0.7546771E-02  0.1025128E+00
         21   -1    0    0  502  501  0.00000000000E+00  0.00000000000E+00  0.10682529892E+03  0.10682529892E+03  0.00000000000E+00 0.  1.
         21   -1    0    0  501  502 -0.00000000000E+00 -0.00000000000E+00 -0.49263174700E+03  0.49263174700E+03  0.00000000000E+00 0.  1.
      99926    2    1    2    0    0  0.00000000000E+00  0.00000000000E+00 -0.38580644808E+03  0.59945704592E+03  0.45880511606E+03 0.  0.
      99925    2    3    3    0    0  0.34148215935E+01 -0.85331811342E+02 -0.13784741697E+03  0.30889832854E+03  0.26291270030E+03 0.  0.
         25    1    4    4    0    0 -0.99471206204E+01 -0.71956172045E+02 -0.43404065336E+02  0.15102336538E+03  0.12509000000E+03 0.  0.
         25    1    3    3    0    0 -0.34148215935E+01  0.85331811342E+02 -0.24795903111E+03  0.29055871738E+03  0.12509000000E+03 0.  0.
         25    1    4    4    0    0  0.13361942214E+02 -0.13375639296E+02 -0.94443351629E+02  0.15787496316E+03  0.12509000000E+03 0.  0.
<mgrwt>
<rscale>  2 0.45880512E+03</rscale>
<asrwt>0</asrwt>
<pdfrwt beam="1">  1       21 0.15709603E-01 0.45880512E+03</pdfrwt>
<pdfrwt beam="2">  1       21 0.72445845E-01 0.45880512E+03</pdfrwt>
<totfact> 0.56979130E+04</totfact>
</mgrwt>
</event>
<event>
 7    0  0.4748297E-002  0.4547518E+03  0.7546771E-02  0.1026314E+00
         21   -1    0    0  502  501  0.00000000000E+00  0.00000000000E+00  0.21116244616E+03  0.21116244616E+03  0.00000000000E+00 0. -1.
         21   -1    0    0  501  502 -0.00000000000E+00 -0.00000000000E+00 -0.24483427034E+03  0.24483427034E+03  0.00000000000E+00 0. -1.
      99926    2    1    2    0    0  0.00000000000E+00 -0.71054273576E-14 -0.33671824175E+02  0.45599671651E+03  0.45475181552E+03 0.  0.
      99925    2    3    3    0    0  0.92596064476E+02 -0.40388891908E+02 -0.72092696059E+02  0.29068197051E+03  0.26285615346E+03 0.  0.
         25    1    3    3    0    0 -0.92596064476E+02  0.40388891908E+02  0.38420871883E+02  0.16531474599E+03  0.12509000000E+03 0.  0.
         25    1    4    4    0    0  0.54722972806E+02  0.16757574904E+02 -0.20954658879E+02  0.13914749692E+03  0.12509000000E+03 0.  0.
         25    1    4    4    0    0  0.37873091670E+02 -0.57146466813E+02 -0.51138037180E+02  0.15153447360E+03  0.12509000000E+03 0.  0.
<mgrwt>
<rscale>  2 0.45475182E+03</rscale>
<asrwt>0</asrwt>
<pdfrwt beam="1">  1       21 0.31053301E-01 0.45475182E+03</pdfrwt>
<pdfrwt beam="2">  1       21 0.36005039E-01 0.45475182E+03</pdfrwt>
<totfact> 0.68608629E+04</totfact>
</mgrwt>
</event>
<event>
 7    0  0.4748297E-002  0.4531159E+03  0.7546771E-02  0.1026797E+00
         21   -1    0    0  502  501  0.00000000000E+00  0.00000000000E+00  0.38276548924E+02  0.38276548924E+02  0.00000000000E+00 0. -1.
         21   -1    0    0  501  502 -0.00000000000E+00 -0.00000000000E+00 -0.13409908276E+04  0.13409908276E+04  0.00000000000E+00 0. -1.
      99926    2    1    2    0    0  0.71054273576E-14  0.00000000000E+00 -0.13027142787E+04  0.13792673765E+04  0.45311588372E+03 0.  0.
      99925    2    3    3    0    0 -0.42839617396E+02  0.74150113461E+02 -0.10381637099E+04  0.10743608603E+04  0.26293325631E+03 0.  0.
         25    1    4    4    0    0 -0.16002184350E+02  0.69788151548E+02 -0.64398262734E+03  0.65991483421E+03  0.12509000000E+03 0.  0.
         25    1    3    3    0    0  0.42839617396E+02 -0.74150113461E+02 -0.26455056876E+03  0.30490651629E+03  0.12509000000E+03 0.  0.
         25    1    4    4    0    0 -0.26837433046E+02  0.43619619128E+01 -0.39418108260E+03  0.41444602604E+03  0.12509000000E+03 0.  0.
<mgrwt>
<rscale>  2 0.45311588E+03</rscale>
<asrwt>0</asrwt>
<pdfrwt beam="1">  1       21 0.56289045E-02 0.45311588E+03</pdfrwt>
<pdfrwt beam="2">  1       21 0.19720452E+00 0.45311588E+03</pdfrwt>
<totfact> 0.27287166E+04</totfact>
</mgrwt>
</event>
<event>
 7    0  0.4748297E-002  0.4444922E+03  0.7546771E-02  0.1029377E+00
         21   -1    0    0  502  501  0.00000000000E+00  0.00000000000E+00  0.13006126257E+03  0.13006126257E+03  0.00000000000E+00 0. -1.
         21   -1    0    0  501  502 -0.00000000000E+00 -0.00000000000E+00 -0.37976972032E+03  0.37976972032E+03  0.00000000000E+00 0. -1.
      99926    2    1    2    0    0  0.00000000000E+00  0.00000000000E+00 -0.24970845776E+03  0.50983098289E+03  0.44449220155E+03 0.  0.
      99925    2    3    3    0    0 -0.58926198024E+02  0.74821213697E+02 -0.20356465142E+03  0.34597961794E+03  0.26304527726E+03 0.  0.
         25    1    3    3    0    0  0.58926198024E+02 -0.74821213697E+02 -0.46143806338E+02  0.16385136495E+03  0.12509000000E+03 0.  0.
         25    1    4    4    0    0 -0.12148907854E+02  0.62825727908E+02 -0.13714189297E+03  0.19634173004E+03  0.12509000000E+03 0.  0.
         25    1    4    4    0    0 -0.46777290170E+02  0.11995485789E+02 -0.66422758453E+02  0.14963788790E+03  0.12509000000E+03 0.  0.
<mgrwt>
<rscale>  2 0.44449220E+03</rscale>
<asrwt>0</asrwt>
<pdfrwt beam="1">  1       21 0.19126656E-01 0.44449220E+03</pdfrwt>
<pdfrwt beam="2">  1       21 0.55848488E-01 0.44449220E+03</pdfrwt>
<totfact> 0.70263532E+04</totfact>
</mgrwt>
</event>
<event>
 7    0  0.4748297E-002  0.4549733E+03  0.7546771E-02  0.1026249E+00
         21   -1    0    0  502  501  0.00000000000E+00  0.00000000000E+00  0.17920745780E+03  0.17920745780E+03  0.00000000000E+00 0. -1.
         21   -1    0    0  501  502 -0.00000000000E+00 -0.00000000000E+00 -0.28877245648E+03  0.28877245648E+03  0.00000000000E+00 0. -1.
      99926    2    1    2    0    0  0.17763568394E-14  0.00000000000E+00 -0.10956499868E+03  0.46797991428E+03  0.45497330827E+03 0.  0.
      99925    2    3    3    0    0 -0.81939757830E+01  0.95315955651E+02 -0.68265471710E+01  0.27995074059E+03  0.26300863630E+03 0.  0.
         25    1    3    3    0    0  0.81939757830E+01 -0.95315955651E+02 -0.10273845151E+03  0.18802917369E+03  0.12509000000E+03 0.  0.
         25    1    4    4    0    0 -0.15784378832E+02  0.86696069695E+02 -0.16837742619E+02  0.15393626211E+03  0.12509000000E+03 0.  0.
         25    1    4    4    0    0  0.75904030492E+01  0.86198859560E+01  0.10011195448E+02  0.12601447848E+03  0.12509000000E+03 0.  0.
<mgrwt>
<rscale>  2 0.45497331E+03</rscale>
<asrwt>0</asrwt>
<pdfrwt beam="1">  1       21 0.26354038E-01 0.45497331E+03</pdfrwt>
<pdfrwt beam="2">  1       21 0.42466537E-01 0.45497331E+03</pdfrwt>
<totfact> 0.67600687E+04</totfact>
</mgrwt>
</event>
<event>
 6    0  0.4748297E-002  0.4747888E+03  0.7546771E-02  0.1020577E+00
         21   -1    0    0  502  501  0.00000000000E+00  0.00000000000E+00  0.77858407218E+03  0.77858407218E+03  0.00000000000E+00 0. -1.
         21   -1    0    0  501  502 -0.00000000000E+00 -0.00000000000E+00 -0.72382802398E+02  0.72382802398E+02  0.00000000000E+00 0. -1.
      99926    2    1    2    0    0 -0.35527136788E-14  0.00000000000E+00  0.70620126978E+03  0.85096687458E+03  0.47478878271E+03 0.  0.
         25    1    3    3    0    0  0.31230406333E+02 -0.77912663228E+02  0.11252212230E+03  0.18802781038E+03  0.12509000000E+03 0.  0.
         25    1    3    3    0    0 -0.13752153051E+02  0.42088861121E+01  0.15033478106E+03  0.19609918646E+03  0.12509000000E+03 0.  0.
         25    1    3    3    0    0 -0.17478253282E+02  0.73703777116E+02  0.44334436642E+03  0.46683987773E+03  0.12509000000E+03 0.  0.
<mgrwt>
<rscale>  2 0.47478878E+03</rscale>
<asrwt>0</asrwt>
<pdfrwt beam="1">  1       21 0.11449765E+00 0.47478878E+03</pdfrwt>
<pdfrwt beam="2">  1       21 0.10644530E-01 0.47478878E+03</pdfrwt>
<totfact> 0.38982784E+04</totfact>
</mgrwt>
</event>
<event>
 7    0  0.4748297E-002  0.4339217E+03  0.7546771E-02  0.1032628E+00
         21   -1    0    0  502  501  0.00000000000E+00  0.00000000000E+00  0.31130457159E+02  0.31130457159E+02  0.00000000000E+00 0.  1.
         21   -1    0    0  501  502 -0.00000000000E+00 -0.00000000000E+00 -0.15120884912E+04  0.15120884912E+04  0.00000000000E+00 0.  1.
      99926    2    1    2    0    0 -0.44408920985E-15  0.00000000000E+00 -0.14809580340E+04  0.15432189483E+04  0.43392167955E+03 0.  0.
      99925    2    3    3    0    0 -0.16379440376E+01 -0.80906438404E+02 -0.11066571022E+04  0.11403576443E+04  0.26301536155E+03 0.  0.
         25    1    4    4    0    0  0.15676887554E+02 -0.68312418844E+02 -0.69265738029E+03  0.70734299031E+03  0.12509000000E+03 0.  0.
         25    1    3    3    0    0  0.16379440376E+01  0.80906438404E+02 -0.37430093180E+03  0.40286130403E+03  0.12509000000E+03 0.  0.
         25    1    4    4    0    0 -0.17314831591E+02 -0.12594019560E+02 -0.41399972192E+03  0.43301465399E+03  0.12509000000E+03 0.  0.
<mgrwt>
<rscale>  2 0.43392168E+03</rscale>
<asrwt>0</asrwt>
<pdfrwt beam="1">  1       21 0.45780092E-02 0.43392168E+03</pdfrwt>
<pdfrwt beam="2">  1       21 0.22236591E+00 0.43392168E+03</pdfrwt>
<totfact> 0.26877773E+04</totfact>
</mgrwt>
</event>
<event>
 7    0  0.4748297E-002  0.4590882E+03  0.7546771E-02  0.1025046E+00
         21   -1    0    0  502  501  0.00000000000E+00  0.00000000000E+00  0.35528181278E+02  0.35528181278E+02  0.00000000000E+00 0.  1.
         21   -1    0    0  501  502 -0.00000000000E+00 -0.00000000000E+00 -0.14830622637E+04  0.14830622637E+04  0.00000000000E+00 0.  1.
      99926    2    1    2    0    0  0.00000000000E+00  0.00000000000E+00 -0.14475340824E+04  0.15185904450E+04  0.45908824838E+03 0.  0.
      99925    2    3    3    0    0 -0.64921834011E+02  0.82172228832E+02 -0.10794278445E+04  0.11159531016E+04  0.26309643468E+03 0.  0.
         25    1    4    4    0    0 -0.45028701557E+02  0.68418858506E+02 -0.46473776828E+03  0.48819814167E+03  0.12509000000E+03 0.  0.
         25    1    3    3    0    0  0.64921834011E+02 -0.82172228832E+02 -0.36810623795E+03  0.40263734332E+03  0.12509000000E+03 0.  0.
         25    1    4    4    0    0 -0.19893132454E+02  0.13753370325E+02 -0.61469007618E+03  0.62775495997E+03  0.12509000000E+03 0.  0.
<mgrwt>
<rscale>  2 0.45908825E+03</rscale>
<asrwt>0</asrwt>
<pdfrwt beam="1">  1       21 0.52247344E-02 0.45908825E+03</pdfrwt>
<pdfrwt beam="2">  1       21 0.21809731E+00 0.45908825E+03</pdfrwt>
<totfact> 0.22600955E+04</totfact>
</mgrwt>
</event>
<event>
 6    0  0.4748297E-002  0.4557998E+03  0.7546771E-02  0.1026006E+00
         21   -1    0    0  502  501  0.00000000000E+00  0.00000000000E+00  0.39502587392E+03  0.39502587392E+03  0.00000000000E+00 0. -1.
         21   -1    0    0  501  502 -0.00000000000E+00 -0.00000000000E+00 -0.13148094285E+03  0.13148094285E+03  0.00000000000E+00 0. -1.
      99926    2    1    2    0    0  0.00000000000E+00  0.00000000000E+00  0.26354493107E+03  0.52650681678E+03  0.45579984359E+03 0.  0.
         25    1    3    3    0    0 -0.37324914586E+02 -0.95859417801E+02  0.16309529265E+03  0.22984725322E+03  0.12509000000E+03 0.  0.
         25    1    3    3    0    0 -0.15009988486E+02  0.38158704450E+02  0.42815697799E+02  0.13842715975E+03  0.12509000000E+03 0.  0.
         25    1    3    3    0    0  0.52334903072E+02  0.57700713351E+02  0.57633940619E+02  0.15823240380E+03  0.12509000000E+03 0.  0.
<mgrwt>
<rscale>  2 0.45579984E+03</rscale>
<asrwt>0</asrwt>
<pdfrwt beam="1">  1       21 0.58092040E-01 0.45579984E+03</pdfrwt>
<pdfrwt beam="2">  1       21 0.19335433E-01 0.45579984E+03</pdfrwt>
<totfact> 0.63042954E+04</totfact>
</mgrwt>
</event>
<event>
 7    0  0.4748297E-002  0.4547205E+03  0.7546771E-02  0.1026324E+00
         21   -1    0    0  502  501  0.00000000000E+00  0.00000000000E+00  0.74284905055E+02  0.74284905055E+02  0.00000000000E+00 0.  1.
         21   -1    0    0  501  502 -0.00000000000E+00 -0.00000000000E+00 -0.69587060158E+03  0.69587060158E+03  0.00000000000E+00 0.  1.
      99926    2    1    2    0    0  0.00000000000E+00  0.00000000000E+00 -0.62158569653E+03  0.77015550664E+03  0.45472049247E+03 0.  0.
      99925    2    3    3    0    0 -0.80115683477E+01 -0.85115198295E+02 -0.26636478850E+03  0.38397137464E+03  0.26301147082E+03 0.  0.
         25    1    4    4    0    0  0.26001958318E+02 -0.19046666794E+02 -0.10304402185E+03  0.16524060001E+03  0.12509000000E+03 0.  0.
         25    1    3    3    0    0  0.80115683477E+01  0.85115198295E+02 -0.35522090802E+03  0.38618413199E+03  0.12509000000E+03 0.  0.
         25    1    4    4    0    0 -0.34013526666E+02 -0.66068531501E+02 -0.16332076665E+03  0.21873077463E+03  0.12509000000E+03 0.  0.
<mgrwt>
<rscale>  2 0.45472049E+03</rscale>
<asrwt>0</asrwt>
<pdfrwt beam="1">  1       21 0.10924250E-01 0.45472049E+03</pdfrwt>
<pdfrwt beam="2">  1       21 0.10233391E+00 0.45472049E+03</pdfrwt>
<totfact> 0.49350371E+04</totfact>
</mgrwt>
</event>
<event>
 7    0  0.4748297E-002  0.4515680E+03  0.7546771E-02  0.1027255E+00
         21   -1    0    0  502  501  0.00000000000E+00  0.00000000000E+00  0.76699704158E+03  0.76699704158E+03  0.00000000000E+00 0.  1.
         21   -1    0    0  501  502 -0.00000000000E+00 -0.00000000000E+00 -0.66464937759E+02  0.66464937759E+02  0.00000000000E+00 0.  1.
      99926    2    1    2    0    0  0.00000000000E+00  0.17763568394E-14  0.70053210382E+03  0.83346197934E+03  0.45156798217E+03 0.  0.
      99925    2    3    3    0    0  0.17012702893E+02 -0.44879843227E+01  0.64276313829E+03  0.69455792778E+03  0.26259605676E+03 0.  0.
         25    1    4    4    0    0  0.37721950022E+02  0.24852949661E+02  0.33127751086E+03  0.35697746696E+03  0.12509000000E+03 0.  0.
         25    1    4    4    0    0 -0.20709247130E+02 -0.29340933984E+02  0.31148562743E+03  0.33758046081E+03  0.12509000000E+03 0.  0.
         25    1    3    3    0    0 -0.17012702893E+02  0.44879843227E+01  0.57768965534E+02  0.13890405157E+03  0.12509000000E+03 0.  0.
<mgrwt>
<rscale>  2 0.45156798E+03</rscale>
<asrwt>0</asrwt>
<pdfrwt beam="1">  1       21 0.11279368E+00 0.45156798E+03</pdfrwt>
<pdfrwt beam="2">  1       21 0.97742560E-02 0.45156798E+03</pdfrwt>
<totfact> 0.47453417E+04</totfact>
</mgrwt>
</event>
<event>
 7    0  0.4748297E-002  0.4614504E+03  0.7546771E-02  0.1024361E+00
         21   -1    0    0  502  501  0.00000000000E+00  0.00000000000E+00  0.31506218916E+03  0.31506218916E+03  0.00000000000E+00 0.  1.
         21   -1    0    0  501  502 -0.00000000000E+00 -0.00000000000E+00 -0.16896380676E+03  0.16896380676E+03  0.00000000000E+00 0.  1.
      99926    2    1    2    0    0  0.88817841970E-15 -0.88817841970E-15  0.14609838241E+03  0.48402599592E+03  0.46145035203E+03 0.  0.
      99925    2    3    3    0    0 -0.35940741156E+01 -0.46529985983E+01  0.21620645715E+03  0.34050868683E+03  0.26299499222E+03 0.  0.
         25    1    4    4    0    0 -0.38027240651E+02  0.12929038802E+02  0.12115286534E+03  0.17871417391E+03  0.12509000000E+03 0.  0.
         25    1    4    4    0    0  0.34433166535E+02 -0.17582037400E+02  0.95053591808E+02  0.16179451292E+03  0.12509000000E+03 0.  0.
         25    1    3    3    0    0  0.35940741156E+01  0.46529985983E+01 -0.70108074739E+02  0.14351730909E+03  0.12509000000E+03 0.  0.
<mgrwt>
<rscale>  2 0.46145035E+03</rscale>
<asrwt>0</asrwt>
<pdfrwt beam="1">  1       21 0.46332675E-01 0.46145035E+03</pdfrwt>
<pdfrwt beam="2">  1       21 0.24847619E-01 0.46145035E+03</pdfrwt>
<totfact> 0.63114329E+04</totfact>
</mgrwt>
</event>
<event>
 7    0  0.4748297E-002  0.4499897E+03  0.7546771E-02  0.1027725E+00
         21   -1    0    0  502  501  0.00000000000E+00  0.00000000000E+00  0.79720389193E+02  0.79720389193E+02  0.00000000000E+00 0. -1.
         21   -1    0    0  501  502 -0.00000000000E+00 -0.00000000000E+00 -0.63500284699E+03  0.63500284699E+03  0.00000000000E+00 0. -1.
      99926    2    1    2    0    0 -0.14210854715E-13  0.00000000000E+00 -0.55528245780E+03  0.71472323618E+03  0.44998966255E+03 0.  0.
      99925    2    3    3    0    0 -0.86073550573E+02 -0.47362547179E+02 -0.27851553827E+03  0.39550653420E+03  0.26306395905E+03 0.  0.
         25    1    3    3    0    0  0.86073550573E+02  0.47362547179E+02 -0.27676691952E+03  0.31921670198E+03  0.12509000000E+03 0.  0.
         25    1    4    4    0    0 -0.29192778997E+02 -0.35443394661E+02 -0.18834781611E+03  0.23071814082E+03  0.12509000000E+03 0.  0.
         25    1    4    4    0    0 -0.56880771576E+02 -0.11919152518E+02 -0.90167722165E+02  0.16478839338E+03  0.12509000000E+03 0.  0.
<mgrwt>
<rscale>  2 0.44998966E+03</rscale>
<asrwt>0</asrwt>
<pdfrwt beam="1">  1       21 0.11723587E-01 0.44998966E+03</pdfrwt>
<pdfrwt beam="2">  1       21 0.93382771E-01 0.44998966E+03</pdfrwt>
<totfact> 0.54216399E+04</totfact>
</mgrwt>
</event>
<event>
 7    0  0.4748297E-002  0.4562940E+03  0.7546771E-02  0.1025862E+00
         21   -1    0    0  502  501  0.00000000000E+00  0.00000000000E+00  0.91389824598E+02  0.91389824598E+02  0.00000000000E+00 0. -1.
         21   -1    0    0  501  502 -0.00000000000E+00 -0.00000000000E+00 -0.56954984396E+03  0.56954984396E+03  0.00000000000E+00 0. -1.
      99926    2    1    2    0    0  0.00000000000E+00  0.00000000000E+00 -0.47816001936E+03  0.66093966855E+03  0.45629402950E+03 0.  0.
      99925    2    3    3    0    0  0.22794527075E+02  0.11092912182E+03 -0.27769893412E+03  0.39891483132E+03  0.26304274197E+03 0.  0.
         25    1    3    3    0    0 -0.22794527075E+02 -0.11092912182E+03 -0.20046108524E+03  0.26202483724E+03  0.12509000000E+03 0.  0.
         25    1    4    4    0    0  0.19630557816E+02  0.98856445440E+02 -0.15277210270E+03  0.22168621759E+03  0.12509000000E+03 0.  0.
         25    1    4    4    0    0  0.31639692594E+01  0.12072676383E+02 -0.12492683142E+03  0.17722861373E+03  0.12509000000E+03 0.  0.
<mgrwt>
<rscale>  2 0.45629403E+03</rscale>
<asrwt>0</asrwt>
<pdfrwt beam="1">  1       21 0.13439681E-01 0.45629403E+03</pdfrwt>
<pdfrwt beam="2">  1       21 0.83757327E-01 0.45629403E+03</pdfrwt>
<totfact> 0.54516676E+04</totfact>
</mgrwt>
</event>
<event>
 7    0  0.4748297E-002  0.4638464E+03  0.7546771E-02  0.1023672E+00
         21   -1    0    0  502  501  0.00000000000E+00  0.00000000000E+00  0.34276730321E+03  0.34276730321E+03  0.00000000000E+00 0.  1.
         21   -1    0    0  501  502 -0.00000000000E+00 -0.00000000000E+00 -0.15692385414E+03  0.15692385414E+03  0.00000000000E+00 0.  1.
      99926    2    1    2    0    0 -0.71054273576E-14  0.00000000000E+00  0.18584344907E+03  0.49969115735E+03  0.46384638100E+03 0.  0.
      99925    2    3    3    0    0 -0.48841493160E+02 -0.10124186822E+03  0.16484172387E+03  0.33020963063E+03  0.26311632199E+03 0.  0.
         25    1    3    3    0    0  0.48841493160E+02  0.10124186822E+03  0.21001725200E+02  0.16948152671E+03  0.12509000000E+03 0.  0.
         25    1    4    4    0    0 -0.31858794602E+02 -0.91670660873E+02  0.10652879633E+03  0.19082553656E+03  0.12509000000E+03 0.  0.
         25    1    4    4    0    0 -0.16982698558E+02 -0.95712073495E+01  0.58312927547E+02  0.13938409407E+03  0.12509000000E+03 0.  0.
<mgrwt>
<rscale>  2 0.46384638E+03</rscale>
<asrwt>0</asrwt>
<pdfrwt beam="1">  1       21 0.50406957E-01 0.46384638E+03</pdfrwt>
<pdfrwt beam="2">  1       21 0.23077037E-01 0.46384638E+03</pdfrwt>
<totfact> 0.60901720E+04</totfact>
</mgrwt>
</event>
<event>
 6    0  0.4748297E-002  0.5023593E+03  0.7546771E-02  0.1013165E+00
         21   -1    0    0  502  501  0.00000000000E+00  0.00000000000E+00  0.73887620162E+03  0.73887620162E+03  0.00000000000E+00 0. -1.
         21   -1    0    0  501  502 -0.00000000000E+00 -0.00000000000E+00 -0.85388064628E+02  0.85388064628E+02  0.00000000000E+00 0. -1.
      99926    2    1    2    0    0 -0.14210854715E-13  0.14210854715E-13  0.65348813699E+03  0.82426426625E+03  0.50235926927E+03 0.  0.
         25    1    3    3    0    0 -0.76865233225E+02  0.39571836965E+02  0.15693850278E+03  0.21852092832E+03  0.12509000000E+03 0.  0.
         25    1    3    3    0    0 -0.62718994053E+01  0.85149344304E+02  0.20547150270E+03  0.25525633015E+03  0.12509000000E+03 0.  0.
         25    1    3    3    0    0  0.83137132630E+02 -0.12472118127E+03  0.29107813151E+03  0.35048700778E+03  0.12509000000E+03 0.  0.
<mgrwt>
<rscale>  2 0.50235927E+03</rscale>
<asrwt>0</asrwt>
<pdfrwt beam="1">  1       21 0.10865826E+00 0.50235927E+03</pdfrwt>
<pdfrwt beam="2">  1       21 0.12557069E-01 0.50235927E+03</pdfrwt>
<totfact> 0.32672814E+04</totfact>
</mgrwt>
</event>
<event>
 7    0  0.4748297E-002  0.4471304E+03  0.7546771E-02  0.1028581E+00
         21   -1    0    0  502  501  0.00000000000E+00  0.00000000000E+00  0.44899704957E+03  0.44899704957E+03  0.00000000000E+00 0. -1.
         21   -1    0    0  501  502 -0.00000000000E+00 -0.00000000000E+00 -0.11131786111E+03  0.11131786111E+03  0.00000000000E+00 0. -1.
      99926    2    1    2    0    0 -0.14210854715E-13  0.35527136788E-14  0.33767918846E+03  0.56031491069E+03  0.44713036670E+03 0.  0.
      99925    2    3    3    0    0 -0.96198674728E+02  0.22939033870E+02  0.16709416597E+03  0.32680443493E+03  0.26286934795E+03 0.  0.
         25    1    3    3    0    0  0.96198674728E+02 -0.22939033870E+02  0.17058502249E+03  0.23351047576E+03  0.12509000000E+03 0.  0.
         25    1    4    4    0    0 -0.60491046150E+02  0.49681176594E+02  0.78324738146E+02  0.16706184088E+03  0.12509000000E+03 0.  0.
         25    1    4    4    0    0 -0.35707628579E+02 -0.26742142724E+02  0.88769427827E+02  0.15974259405E+03  0.12509000000E+03 0.  0.
<mgrwt>
<rscale>  2 0.44713037E+03</rscale>
<asrwt>0</asrwt>
<pdfrwt beam="1">  1       21 0.66028977E-01 0.44713037E+03</pdfrwt>
<pdfrwt beam="2">  1       21 0.16370274E-01 0.44713037E+03</pdfrwt>
<totfact> 0.65151736E+04</totfact>
</mgrwt>
</event>
<event>
 7    0  0.4748297E-002  0.4584698E+03  0.7546771E-02  0.1025226E+00
         21   -1    0    0  502  501  0.00000000000E+00  0.00000000000E+00  0.43511081319E+02  0.43511081319E+02  0.00000000000E+00 0. -1.
         21   -1    0    0  501  502 -0.00000000000E+00 -0.00000000000E+00 -0.12077069619E+04  0.12077069619E+04  0.00000000000E+00 0. -1.
      99926    2    1    2    0    0  0.17763568394E-14  0.00000000000E+00 -0.11641958806E+04  0.12512180432E+04  0.45846978451E+03 0.  0.
      99925    2    3    3    0    0 -0.11787047395E+02  0.99511898729E+02 -0.89186693551E+03  0.93522419059E+03  0.26301350446E+03 0.  0.
         25    1    4    4    0    0 -0.27981205999E+02  0.16820344067E+02 -0.45762334492E+03  0.47553391654E+03  0.12509000000E+03 0.  0.
         25    1    4    4    0    0  0.16194158604E+02  0.82691554662E+02 -0.43424359059E+03  0.45969027405E+03  0.12509000000E+03 0.  0.
         25    1    3    3    0    0  0.11787047395E+02 -0.99511898729E+02 -0.27232894504E+03  0.31599385260E+03  0.12509000000E+03 0.  0.
<mgrwt>
<rscale>  2 0.45846978E+03</rscale>
<asrwt>0</asrwt>
<pdfrwt beam="1">  1       21 0.63986885E-02 0.45846978E+03</pdfrwt>
<pdfrwt beam="2">  1       21 0.17760396E+00 0.45846978E+03</pdfrwt>
<totfact> 0.29753182E+04</totfact>
</mgrwt>
</event>
<event>
 7    0  0.4748297E-002  0.4192228E+03  0.7546771E-02  0.1037320E+00
         21   -1    0    0  502  501  0.00000000000E+00  0.00000000000E+00  0.78137946905E+03  0.78137946905E+03  0.00000000000E+00 0.  1.
         21   -1    0    0  501  502 -0.00000000000E+00 -0.00000000000E+00 -0.56229963383E+02  0.56229963383E+02  0.00000000000E+00 0.  1.
      99926    2    1    2    0    0  0.17763568394E-14 -0.14210854715E-13  0.72514950566E+03  0.83760943243E+03  0.41922279963E+03 0.  0.
      99925    2    3    3    0    0  0.12615949370E+02  0.67386778989E+02  0.53313473930E+03  0.59840801361E+03  0.26298167303E+03 0.  0.
         25    1    4    4    0    0  0.32128056384E+02  0.17827398731E+01  0.24995699882E+03  0.28135635683E+03  0.12509000000E+03 0.  0.
         25    1    4    4    0    0 -0.19512107014E+02  0.65604039116E+02  0.28317774047E+03  0.31705165678E+03  0.12509000000E+03 0.  0.
         25    1    3    3    0    0 -0.12615949370E+02 -0.67386778989E+02  0.19201476637E+03  0.23920141882E+03  0.12509000000E+03 0.  0.
<mgrwt>
<rscale>  2 0.41922280E+03</rscale>
<asrwt>0</asrwt>
<pdfrwt beam="1">  1       21 0.11490874E+00 0.41922280E+03</pdfrwt>
<pdfrwt beam="2">  1       21 0.82691127E-02 0.41922280E+03</pdfrwt>
<totfact> 0.61532419E+04</totfact>
</mgrwt>
</event>
<event>
 7    0  0.4748297E-002  0.4335465E+03  0.7546771E-02  0.1032745E+00
         21   -1    0    0  502  501  0.00000000000E+00  0.00000000000E+00  0.96862763366E+02  0.96862763366E+02  0.00000000000E+00 0. -1.
         21   -1    0    0  501  502 -0.00000000000E+00 -0.00000000000E+00 -0.48512605576E+03  0.48512605576E+03  0.00000000000E+00 0. -1.
      99926    2    1    2    0    0 -0.88817841970E-15  0.00000000000E+00 -0.38826329239E+03  0.58198881912E+03  0.43354653887E+03 0.  0.
      99925    2    3    3    0    0  0.78979033876E+01  0.88081133882E+02 -0.28165185048E+03  0.39534967352E+03  0.26296945916E+03 0.  0.
         25    1    4    4    0    0  0.20344208128E+02  0.10125149081E+02 -0.15616746061E+03  0.20137574159E+03  0.12509000000E+03 0.  0.
         25    1    4    4    0    0 -0.12446304740E+02  0.77955984800E+02 -0.12548438987E+03  0.19397393193E+03  0.12509000000E+03 0.  0.
         25    1    3    3    0    0 -0.78979033876E+01 -0.88081133882E+02 -0.10661144191E+03  0.18663914560E+03  0.12509000000E+03 0.  0.
<mgrwt>
<rscale>  2 0.43354654E+03</rscale>
<asrwt>0</asrwt>
<pdfrwt beam="1">  1       21 0.14244524E-01 0.43354654E+03</pdfrwt>
<pdfrwt beam="2">  1       21 0.71342069E-01 0.43354654E+03</pdfrwt>
<totfact> 0.71115039E+04</totfact>
</mgrwt>
</event>
<event>
 7    0  0.4748297E-002  0.4526117E+03  0.7546771E-02  0.1026946E+00
         21   -1    0    0  502  501  0.00000000000E+00  0.00000000000E+00  0.33556185130E+03  0.33556185130E+03  0.00000000000E+00 0. -1.
         21   -1    0    0  501  502 -0.00000000000E+00 -0.00000000000E+00 -0.15262262385E+03  0.15262262385E+03  0.00000000000E+00 0. -1.
      99926    2    1    2    0    0  0.00000000000E+00  0.00000000000E+00  0.18293922745E+03  0.48818447515E+03  0.45261166670E+03 0.  0.
      99925    2    3    3    0    0  0.42268063394E+02 -0.95404504049E+02  0.15595954503E+03  0.32306627524E+03  0.26298256584E+03 0.  0.
         25    1    3    3    0    0 -0.42268063394E+02  0.95404504049E+02  0.26979682418E+02  0.16511819990E+03  0.12509000000E+03 0.  0.
         25    1    4    4    0    0  0.46842480795E+02 -0.78222963263E+02  0.67725066328E+02  0.16895929302E+03  0.12509000000E+03 0.  0.
         25    1    4    4    0    0 -0.45744174009E+01 -0.17181540786E+02  0.88234478700E+02  0.15410698222E+03  0.12509000000E+03 0.  0.
<mgrwt>
<rscale>  2 0.45261167E+03</rscale>
<asrwt>0</asrwt>
<pdfrwt beam="1">  1       21 0.49347331E-01 0.45261167E+03</pdfrwt>
<pdfrwt beam="2">  1       21 0.22444504E-01 0.45261167E+03</pdfrwt>
<totfact> 0.67377439E+04</totfact>
</mgrwt>
</event>
<event>
 7    0  0.4748297E-002  0.4568409E+03  0.7546771E-02  0.1025701E+00
         21   -1    0    0  502  501  0.00000000000E+00  0.00000000000E+00  0.41058187410E+03  0.41058187410E+03  0.00000000000E+00 0.  1.
         21   -1    0    0  501  502 -0.00000000000E+00 -0.00000000000E+00 -0.12707796129E+03  0.12707796129E+03  0.00000000000E+00 0.  1.
      99926    2    1    2    0    0  0.00000000000E+00 -0.14210854715E-13  0.28350391281E+03  0.53765983538E+03  0.45684092418E+03 0.  0.
      99925    2    3    3    0    0  0.18137431674E+02 -0.10318666823E+03  0.12304712018E+03  0.30881415522E+03  0.26315230144E+03 0.  0.
         25    1    4    4    0    0  0.22541042617E+02 -0.66168551601E+02  0.24759359230E+02  0.14541977098E+03  0.12509000000E+03 0.  0.
         25    1    3    3    0    0 -0.18137431674E+02  0.10318666823E+03  0.16045679263E+03  0.22884568016E+03  0.12509000000E+03 0.  0.
         25    1    4    4    0    0 -0.44036109422E+01 -0.37018116625E+02  0.98287760952E+02  0.16339438424E+03  0.12509000000E+03 0.  0.
<mgrwt>
<rscale>  2 0.45684092E+03</rscale>
<asrwt>0</asrwt>
<pdfrwt beam="1">  1       21 0.60379687E-01 0.45684092E+03</pdfrwt>
<pdfrwt beam="2">  1       21 0.18687936E-01 0.45684092E+03</pdfrwt>
<totfact> 0.61784276E+04</totfact>
</mgrwt>
</event>
<event>
 7    0  0.4748297E-002  0.4561456E+03  0.7546771E-02  0.1025905E+00
         21   -1    0    0  502  501  0.00000000000E+00  0.00000000000E+00  0.22089502746E+03  0.22089502746E+03  0.00000000000E+00 0.  1.
         21   -1    0    0  501  502 -0.00000000000E+00 -0.00000000000E+00 -0.23548376599E+03  0.23548376599E+03  0.00000000000E+00 0.  1.
      99926    2    1    2    0    0 -0.35527136788E-14  0.00000000000E+00 -0.14588738529E+02  0.45637879345E+03  0.45614555990E+03 0.  0.
      99925    2    3    3    0    0  0.16831651902E+02  0.52725494649E+02 -0.10912543074E+03  0.29010198639E+03  0.26303520787E+03 0.  0.
         25    1    3    3    0    0 -0.16831651902E+02 -0.52725494649E+02  0.94536692212E+02  0.16627680706E+03  0.12509000000E+03 0.  0.
         25    1    4    4    0    0 -0.52678659741E+01  0.53610033635E+02 -0.27028301191E+02  0.13885180331E+03  0.12509000000E+03 0.  0.
         25    1    4    4    0    0  0.22099517876E+02 -0.88453898663E+00 -0.82097129551E+02  0.15125018307E+03  0.12509000000E+03 0.  0.
<mgrwt>
<rscale>  2 0.45614556E+03</rscale>
<asrwt>0</asrwt>
<pdfrwt beam="1">  1       21 0.32484563E-01 0.45614556E+03</pdfrwt>
<pdfrwt beam="2">  1       21 0.34629966E-01 0.45614556E+03</pdfrwt>
<totfact> 0.67822866E+04</totfact>
</mgrwt>
</event>
<event>
 7    0  0.4748297E-002  0.4542784E+03  0.7546771E-02  0.1026454E+00
         21   -1    0    0  502  501  0.00000000000E+00  0.00000000000E+00  0.10846703683E+04  0.10846703683E+04  0.00000000000E+00 0. -1.
         21   -1    0    0  501  502 -0.00000000000E+00 -0.00000000000E+00 -0.47564883915E+02  0.47564883915E+02  0.00000000000E+00 0. -1.
      99926    2    1    2    0    0  0.00000000000E+00  0.35527136788E-14  0.10371054844E+04  0.11322352522E+04  0.45427841751E+03 0.  0.
      99925    2    3    3    0    0 -0.27715175563E+02  0.21662138027E+02  0.38666189382E+03  0.46893912544E+03  0.26298118575E+03 0.  0.
         25    1    3    3    0    0  0.27715175563E+02 -0.21662138027E+02  0.65044359057E+03  0.66329612677E+03  0.12509000000E+03 0.  0.
         25    1    4    4    0    0  0.64370375095E+01 -0.21121448911E+02  0.21334834177E+03  0.24829936386E+03  0.12509000000E+03 0.  0.
         25    1    4    4    0    0 -0.34152213073E+02  0.42783586937E+02  0.17331355204E+03  0.22063976158E+03  0.12509000000E+03 0.  0.
<mgrwt>
<rscale>  2 0.45427842E+03</rscale>
<asrwt>0</asrwt>
<pdfrwt beam="1">  1       21 0.15951033E+00 0.45427842E+03</pdfrwt>
<pdfrwt beam="2">  1       21 0.69948365E-02 0.45427842E+03</pdfrwt>
<totfact> 0.34575136E+04</totfact>
</mgrwt>
</event>
<event>
 7    0  0.4748297E-002  0.4677990E+03  0.7546771E-02  0.1022543E+00
         21   -1    0    0  502  501  0.00000000000E+00  0.00000000000E+00  0.36911710670E+03  0.36911710670E+03  0.00000000000E+00 0. -1.
         21   -1    0    0  501  502 -0.00000000000E+00 -0.00000000000E+00 -0.14821573950E+03  0.14821573950E+03  0.00000000000E+00 0. -1.
      99926    2    1    2    0    0 -0.17763568394E-14 -0.71054273576E-14  0.22090136720E+03  0.51733284621E+03  0.46779895226E+03 0.  0.
      99925    2    3    3    0    0 -0.10918284186E+02 -0.38060125211E+02  0.66717236457E+01  0.26611654431E+03  0.26306980290E+03 0.  0.
         25    1    4    4    0    0  0.20456537050E+00  0.14256340519E+02 -0.20008884503E+02  0.12747999314E+03  0.12509000000E+03 0.  0.
         25    1    4    4    0    0 -0.11122849557E+02 -0.52316465730E+02  0.26680608149E+02  0.13863655117E+03  0.12509000000E+03 0.  0.
         25    1    3    3    0    0  0.10918284186E+02  0.38060125211E+02  0.21422964356E+03  0.25121630190E+03  0.12509000000E+03 0.  0.
<mgrwt>
<rscale>  2 0.46779895E+03</rscale>
<asrwt>0</asrwt>
<pdfrwt beam="1">  1       21 0.54281927E-01 0.46779895E+03</pdfrwt>
<pdfrwt beam="2">  1       21 0.21796432E-01 0.46779895E+03</pdfrwt>
<totfact> 0.57954995E+04</totfact>
</mgrwt>
</event>
<event>
 7    0  0.4748297E-002  0.4560044E+03  0.7546771E-02  0.1025946E+00
         21   -1    0    0  502  501  0.00000000000E+00  0.00000000000E+00  0.17683105310E+03  0.17683105310E+03  0.00000000000E+00 0. -1.
         21   -1    0    0  501  502 -0.00000000000E+00 -0.00000000000E+00 -0.29398122203E+03  0.29398122203E+03  0.00000000000E+00 0. -1.
      99926    2    1    2    0    0  0.00000000000E+00  0.00000000000E+00 -0.11715016893E+03  0.47081227512E+03  0.45600442577E+03 0.  0.
      99925    2    3    3    0    0 -0.77795367523E+02  0.46382055424E+02 -0.14534900973E+03  0.31382152063E+03  0.26297185763E+03 0.  0.
         25    1    3    3    0    0  0.77795367523E+02 -0.46382055424E+02  0.28198840800E+02  0.15699075449E+03  0.12509000000E+03 0.  0.
         25    1    4    4    0    0 -0.34399264368E+02  0.52034287396E+02 -0.10647387671E+03  0.17571303587E+03  0.12509000000E+03 0.  0.
         25    1    4    4    0    0 -0.43396103155E+02 -0.56522319718E+01 -0.38875133026E+02  0.13810848476E+03  0.12509000000E+03 0.  0.
<mgrwt>
<rscale>  2 0.45600443E+03</rscale>
<asrwt>0</asrwt>
<pdfrwt beam="1">  1       21 0.26004567E-01 0.45600443E+03</pdfrwt>
<pdfrwt beam="2">  1       21 0.43232532E-01 0.45600443E+03</pdfrwt>
<totfact> 0.66841160E+04</totfact>
</mgrwt>
</event>
<event>
 7    0  0.4748297E-002  0.4539212E+03  0.7546771E-02  0.1026559E+00
         21   -1    0    0  502  501  0.00000000000E+00  0.00000000000E+00  0.67524928364E+03  0.67524928364E+03  0.00000000000E+00 0. -1.
         21   -1    0    0  501  502 -0.00000000000E+00 -0.00000000000E+00 -0.76284574724E+02  0.76284574724E+02  0.00000000000E+00 0. -1.
      99926    2    1    2    0    0  0.00000000000E+00 -0.14210854715E-13  0.59896470892E+03  0.75153385836E+03  0.45392115807E+03 0.  0.
      99925    2    3    3    0    0  0.56477851052E+02  0.72190019149E+02  0.48414554789E+03  0.55857766032E+03  0.26307973040E+03 0.  0.
         25    1    3    3    0    0 -0.56477851052E+02 -0.72190019149E+02  0.11481916103E+03  0.19295619805E+03  0.12509000000E+03 0.  0.
         25    1    4    4    0    0  0.21487848635E+02  0.70211277538E+02  0.21015415144E+03  0.25535000802E+03  0.12509000000E+03 0.  0.
         25    1    4    4    0    0  0.34990002418E+02  0.19787416111E+01  0.27399139645E+03  0.30322765229E+03  0.12509000000E+03 0.  0.
<mgrwt>
<rscale>  2 0.45392116E+03</rscale>
<asrwt>0</asrwt>
<pdfrwt beam="1">  1       21 0.99301362E-01 0.45392116E+03</pdfrwt>
<pdfrwt beam="2">  1       21 0.11218320E-01 0.45392116E+03</pdfrwt>
<totfact> 0.50620551E+04</totfact>
</mgrwt>
</event>
<event>
 7    0  0.4748297E-002  0.4483087E+03  0.7546771E-02  0.1028228E+00
         21   -1    0    0  502  501  0.00000000000E+00  0.00000000000E+00  0.16445315979E+04  0.16445315979E+04  0.00000000000E+00 0.  1.
         21   -1    0    0  501  502 -0.00000000000E+00 -0.00000000000E+00 -0.30552881073E+02  0.30552881073E+02  0.00000000000E+00 0.  1.
      99926    2    1    2    0    0  0.14210854715E-13  0.00000000000E+00  0.16139787169E+04  0.16750844790E+04  0.44830872546E+03 0.  0.
      99925    2    3    3    0    0 -0.95604600206E+02  0.35250083454E+02  0.90161010828E+03  0.94467408029E+03  0.26291733045E+03 0.  0.
         25    1    4    4    0    0 -0.77888881750E+01  0.16408223429E+02  0.35729982870E+03  0.37899943570E+03  0.12509000000E+03 0.  0.
         25    1    4    4    0    0 -0.87815712031E+02  0.18841860026E+02  0.54431027958E+03  0.56567464459E+03  0.12509000000E+03 0.  0.
         25    1    3    3    0    0  0.95604600206E+02 -0.35250083454E+02  0.71236860857E+03  0.73041039871E+03  0.12509000000E+03 0.  0.
<mgrwt>
<rscale>  2 0.44830873E+03</rscale>
<asrwt>0</asrwt>
<pdfrwt beam="1">  1       21 0.24184282E+00 0.44830873E+03</pdfrwt>
<pdfrwt beam="2">  1       21 0.44930718E-02 0.44830873E+03</pdfrwt>
<totfact> 0.20847328E+04</totfact>
</mgrwt>
</event>
<event>
 7    0  0.4748297E-002  0.4549561E+03  0.7546771E-02  0.1026254E+00
         21   -1    0    0  502  501  0.00000000000E+00  0.00000000000E+00  0.68607172972E+02  0.68607172972E+02  0.00000000000E+00 0. -1.
         21   -1    0    0  501  502 -0.00000000000E+00 -0.00000000000E+00 -0.75423984496E+03  0.75423984496E+03  0.00000000000E+00 0. -1.
      99926    2    1    2    0    0  0.00000000000E+00  0.00000000000E+00 -0.68563267199E+03  0.82284701793E+03  0.45495610120E+03 0.  0.
      99925    2    3    3    0    0  0.22771046718E+02 -0.59017171974E+02 -0.60107374321E+03  0.65914219915E+03  0.26301567780E+03 0.  0.
         25    1    4    4    0    0 -0.17981130521E+02 -0.43850625616E+02 -0.36063451789E+03  0.38464394187E+03  0.12509000000E+03 0.  0.
         25    1    4    4    0    0  0.40752177239E+02 -0.15166546359E+02 -0.24043922532E+03  0.27449825728E+03  0.12509000000E+03 0.  0.
         25    1    3    3    0    0 -0.22771046718E+02  0.59017171974E+02 -0.84558928778E+02  0.16370481878E+03  0.12509000000E+03 0.  0.
<mgrwt>
<rscale>  2 0.45495610E+03</rscale>
<asrwt>0</asrwt>
<pdfrwt beam="1">  1       21 0.10089290E-01 0.45495610E+03</pdfrwt>
<pdfrwt beam="2">  1       21 0.11091762E+00 0.45495610E+03</pdfrwt>
<totfact> 0.46695589E+04</totfact>
</mgrwt>
</event>
<event>
 7    0  0.4748297E-002  0.4618966E+03  0.7546771E-02  0.1024233E+00
         21   -1    0    0  502  501  0.00000000000E+00  0.00000000000E+00  0.27924868010E+03  0.27924868010E+03  0.00000000000E+00 0.  1.
         21   -1    0    0  501  502 -0.00000000000E+00 -0.00000000000E+00 -0.19100222660E+03  0.19100222660E+03  0.00000000000E+00 0.  1.
      99926    2    1    2    0    0  0.35527136788E-14  0.14210854715E-13  0.88246453497E+02  0.47025090671E+03  0.46189661040E+03 0.  0.
      99925    2    3    3    0    0  0.24497172884E+02  0.84420374842E+02  0.13766033943E+03  0.30957685344E+03  0.26298393101E+03 0.  0.
         25    1    4    4    0    0  0.51380287062E+02  0.33200621599E+02  0.63001070518E+02  0.15283604993E+03  0.12509000000E+03 0.  0.
         25    1    3    3    0    0 -0.24497172884E+02 -0.84420374842E+02 -0.49413885937E+02  0.16067405326E+03  0.12509000000E+03 0.  0.
         25    1    4    4    0    0 -0.26883114178E+02  0.51219753242E+02  0.74659268915E+02  0.15674080351E+03  0.12509000000E+03 0.  0.
<mgrwt>
<rscale>  2 0.46189661E+03</rscale>
<asrwt>0</asrwt>
<pdfrwt beam="1">  1       21 0.41065983E-01 0.46189661E+03</pdfrwt>
<pdfrwt beam="2">  1       21 0.28088563E-01 0.46189661E+03</pdfrwt>
<totfact> 0.63849320E+04</totfact>
</mgrwt>
</event>
<event>
 7    0  0.4748297E-002  0.4512567E+03  0.7546771E-02  0.1027348E+00
         21   -1    0    0  502  501  0.00000000000E+00  0.00000000000E+00  0.62172802937E+03  0.62172802937E+03  0.00000000000E+00 0. -1.
         21   -1    0    0  501  502 -0.00000000000E+00 -0.00000000000E+00 -0.81881690667E+02  0.81881690667E+02  0.00000000000E+00 0. -1.
      99926    2    1    2    0    0  0.00000000000E+00  0.00000000000E+00  0.53984633870E+03  0.70360972004E+03  0.45125665504E+03 0.  0.
      99925    2    3    3    0    0  0.13672512198E+02  0.49053513278E+02  0.49221726772E+03  0.56039931100E+03  0.26301400033E+03 0.  0.
         25    1    3    3    0    0 -0.13672512198E+02 -0.49053513278E+02  0.47629070980E+02  0.14321040904E+03  0.12509000000E+03 0.  0.
         25    1    4    4    0    0  0.22128549555E+02  0.34010936530E+02  0.17447120839E+03  0.21848141149E+03  0.12509000000E+03 0.  0.
         25    1    4    4    0    0 -0.84560373570E+01  0.15042576748E+02  0.31774605934E+03  0.34191789951E+03  0.12509000000E+03 0.  0.
<mgrwt>
<rscale>  2 0.45125666E+03</rscale>
<asrwt>0</asrwt>
<pdfrwt beam="1">  1       21 0.91430590E-01 0.45125666E+03</pdfrwt>
<pdfrwt beam="2">  1       21 0.12041425E-01 0.45125666E+03</pdfrwt>
<totfact> 0.54288967E+04</totfact>
</mgrwt>
</event>
<event>
 7    0  0.4748297E-002  0.4557601E+03  0.7546771E-02  0.1026018E+00
         21   -1    0    0  502  501  0.00000000000E+00  0.00000000000E+00  0.25710966694E+02  0.25710966694E+02  0.00000000000E+00 0.  1.
         21   -1    0    0  501  502 -0.00000000000E+00 -0.00000000000E+00 -0.20197342501E+04  0.20197342501E+04  0.00000000000E+00 0.  1.
      99926    2    1    2    0    0 -0.71054273576E-14 -0.35527136788E-14 -0.19940232834E+04  0.20454452168E+04  0.45576011249E+03 0.  0.
      99925    2    3    3    0    0 -0.40912148234E+02 -0.29550125862E+02 -0.79614239192E+03  0.83999378596E+03  0.26305862166E+03 0.  0.
         25    1    3    3    0    0  0.40912148234E+02  0.29550125862E+02 -0.11978808915E+04  0.12054514308E+04  0.12509000000E+03 0.  0.
         25    1    4    4    0    0 -0.20504786893E+02  0.20908169354E+02 -0.32409806297E+03  0.34863255779E+03  0.12509000000E+03 0.  0.
         25    1    4    4    0    0 -0.20407361341E+02 -0.50458295216E+02 -0.47204432896E+03  0.49136122817E+03  0.12509000000E+03 0.  0.
<mgrwt>
<rscale>  2 0.45576011E+03</rscale>
<asrwt>0</asrwt>
<pdfrwt beam="1">  1       21 0.37810229E-02 0.45576011E+03</pdfrwt>
<pdfrwt beam="2">  1       21 0.29701987E+00 0.45576011E+03</pdfrwt>
<totfact> 0.12905565E+04</totfact>
</mgrwt>
</event>
<event>
 7    0  0.4748297E-002  0.4617762E+03  0.7546771E-02  0.1024267E+00
         21   -1    0    0  502  501  0.00000000000E+00  0.00000000000E+00  0.21721559876E+03  0.21721559876E+03  0.00000000000E+00 0.  1.
         21   -1    0    0  501  502 -0.00000000000E+00 -0.00000000000E+00 -0.24542118197E+03  0.24542118197E+03  0.00000000000E+00 0.  1.
      99926    2    1    2    0    0 -0.17763568394E-14  0.14210854715E-13 -0.28205583211E+02  0.46263678074E+03  0.46177617518E+03 0.  0.
      99925    2    3    3    0    0 -0.36623157791E+01  0.11618811108E+03 -0.43344831827E+02  0.29120226070E+03  0.26345187886E+03 0.  0.
         25    1    4    4    0    0 -0.41458022504E+02  0.69345364366E+02 -0.28221000088E+02  0.15156345250E+03  0.12509000000E+03 0.  0.
         25    1    3    3    0    0  0.36623157791E+01 -0.11618811108E+03  0.15139248616E+02  0.17143452004E+03  0.12509000000E+03 0.  0.
         25    1    4    4    0    0  0.37795706725E+02  0.46842746716E+02 -0.15123831739E+02  0.13963880819E+03  0.12509000000E+03 0.  0.
<mgrwt>
<rscale>  2 0.46177618E+03</rscale>
<asrwt>0</asrwt>
<pdfrwt beam="1">  1       21 0.31943471E-01 0.46177618E+03</pdfrwt>
<pdfrwt beam="2">  1       21 0.36091350E-01 0.46177618E+03</pdfrwt>
<totfact> 0.64435102E+04</totfact>
</mgrwt>
</event>
<event>
 7    0  0.4748297E-002  0.4562032E+03  0.7546771E-02  0.1025888E+00
         21   -1    0    0  502  501  0.00000000000E+00  0.00000000000E+00  0.11409885336E+04  0.11409885336E+04  0.00000000000E+00 0. -1.
         21   -1    0    0  501  502 -0.00000000000E+00 -0.00000000000E+00 -0.45601110274E+02  0.45601110274E+02  0.00000000000E+00 0. -1.
      99926    2    1    2    0    0  0.00000000000E+00  0.00000000000E+00  0.10953874233E+04  0.11865896439E+04  0.45620321762E+03 0.  0.
      99925    2    3    3    0    0  0.81450514746E+02 -0.63269973311E+02  0.81932752944E+03  0.86644303842E+03  0.26227592807E+03 0.  0.
         25    1    3    3    0    0 -0.81450514746E+02  0.63269973311E+02  0.27605989390E+03  0.32014660547E+03  0.12509000000E+03 0.  0.
         25    1    4    4    0    0  0.89373794343E+01 -0.50480123156E+02  0.43965967924E+03  0.45997419627E+03  0.12509000000E+03 0.  0.
         25    1    4    4    0    0  0.72513135312E+02 -0.12789850154E+02  0.37966785020E+03  0.40646884215E+03  0.12509000000E+03 0.  0.
<mgrwt>
<rscale>  2 0.45620322E+03</rscale>
<asrwt>0</asrwt>
<pdfrwt beam="1">  1       21 0.16779241E+00 0.45620322E+03</pdfrwt>
<pdfrwt beam="2">  1       21 0.67060463E-02 0.45620322E+03</pdfrwt>
<totfact> 0.32280232E+04</totfact>
</mgrwt>
</event>
<event>
 6    0  0.4748297E-002  0.4543393E+03  0.7546771E-02  0.1026436E+00
         21   -1    0    0  502  501  0.00000000000E+00  0.00000000000E+00  0.18144239950E+04  0.18144239950E+04  0.00000000000E+00 0.  1.
         21   -1    0    0  501  502 -0.00000000000E+00 -0.00000000000E+00 -0.28442107564E+02  0.28442107564E+02  0.00000000000E+00 0.  1.
      99926    2    1    2    0    0  0.00000000000E+00  0.35527136788E-14  0.17859818874E+04  0.18428661026E+04  0.45433926721E+03 0.  0.
         25    1    3    3    0    0 -0.92272814571E+01 -0.99408496892E+01  0.41366465253E+03  0.43237705312E+03  0.12509000000E+03 0.  0.
         25    1    3    3    0    0 -0.16278239026E+02  0.36660863597E+02  0.26765978050E+03  0.29815812279E+03  0.12509000000E+03 0.  0.
         25    1    3    3    0    0  0.25505520483E+02 -0.26720013908E+02  0.11046574544E+04  0.11123309266E+04  0.12509000000E+03 0.  0.
<mgrwt>
<rscale>  2 0.45433927E+03</rscale>
<asrwt>0</asrwt>
<pdfrwt beam="1">  1       21 0.26682698E+00 0.45433927E+03</pdfrwt>
<pdfrwt beam="2">  1       21 0.41826641E-02 0.45433927E+03</pdfrwt>
<totfact> 0.16534303E+04</totfact>
</mgrwt>
</event>
<event>
 6    0  0.4748297E-002  0.4454309E+03  0.7546771E-02  0.1029093E+00
         21   -1    0    0  502  501  0.00000000000E+00  0.00000000000E+00  0.11788261391E+04  0.11788261391E+04  0.00000000000E+00 0.  1.
         21   -1    0    0  501  502 -0.00000000000E+00 -0.00000000000E+00 -0.42077588872E+02  0.42077588872E+02  0.00000000000E+00 0.  1.
      99926    2    1    2    0    0  0.14210854715E-13  0.00000000000E+00  0.11367485503E+04  0.12209037280E+04  0.44543085495E+03 0.  0.
         25    1    3    3    0    0 -0.70269391464E+02 -0.19290787550E+02  0.41278967199E+03  0.43743884517E+03  0.12509000000E+03 0.  0.
         25    1    3    3    0    0  0.65350852187E+02 -0.42438913267E+02  0.48316648874E+03  0.50514271170E+03  0.12509000000E+03 0.  0.
         25    1    3    3    0    0  0.49185392765E+01  0.61729700817E+02  0.24079238954E+03  0.27832217115E+03  0.12509000000E+03 0.  0.
<mgrwt>
<rscale>  2 0.44543085E+03</rscale>
<asrwt>0</asrwt>
<pdfrwt beam="1">  1       21 0.17335676E+00 0.44543085E+03</pdfrwt>
<pdfrwt beam="2">  1       21 0.61878815E-02 0.44543085E+03</pdfrwt>
<totfact> 0.33961670E+04</totfact>
</mgrwt>
</event>
<event>
 7    0  0.4748297E-002  0.4553049E+03  0.7546771E-02  0.1026152E+00
         21   -1    0    0  502  501  0.00000000000E+00  0.00000000000E+00  0.13717495000E+03  0.13717495000E+03  0.00000000000E+00 0.  1.
         21   -1    0    0  501  502 -0.00000000000E+00 -0.00000000000E+00 -0.37780691249E+03  0.37780691249E+03  0.00000000000E+00 0.  1.
      99926    2    1    2    0    0  0.14210854715E-13  0.17763568394E-14 -0.24063196249E+03  0.51498186249E+03  0.45530492785E+03 0.  0.
      99925    2    3    3    0    0  0.95804717229E+02  0.15747272822E+02 -0.21778409985E+03  0.35499419618E+03  0.26299133965E+03 0.  0.
         25    1    3    3    0    0 -0.95804717229E+02 -0.15747272822E+02 -0.22847862643E+02  0.15998766631E+03  0.12509000000E+03 0.  0.
         25    1    4    4    0    0  0.88189375993E+01  0.23579601013E+02 -0.92867380952E+02  0.15781517604E+03  0.12509000000E+03 0.  0.
         25    1    4    4    0    0  0.86985779630E+02 -0.78323281913E+01 -0.12491671890E+03  0.19717902014E+03  0.12509000000E+03 0.  0.
<mgrwt>
<rscale>  2 0.45530493E+03</rscale>
<asrwt>0</asrwt>
<pdfrwt beam="1">  1       21 0.20172787E-01 0.45530493E+03</pdfrwt>
<pdfrwt beam="2">  1       21 0.55559840E-01 0.45530493E+03</pdfrwt>
<totfact> 0.64075268E+04</totfact>
</mgrwt>
</event>
<event>
 7    0  0.4748297E-002  0.4564988E+03  0.7546771E-02  0.1025802E+00
         21   -1    0    0  502  501  0.00000000000E+00  0.00000000000E+00  0.44120496234E+03  0.44120496234E+03  0.00000000000E+00 0.  1.
         21   -1    0    0  501  502 -0.00000000000E+00 -0.00000000000E+00 -0.11808069220E+03  0.11808069220E+03  0.00000000000E+00 0.  1.
      99926    2    1    2    0    0 -0.14210854715E-13  0.88817841970E-15  0.32312427014E+03  0.55928565453E+03  0.45649879454E+03 0.  0.
      99925    2    3    3    0    0  0.10620724583E+03 -0.64596616695E+01  0.15091360522E+03  0.32132404522E+03  0.26296866639E+03 0.  0.
         25    1    4    4    0    0  0.37893472663E+02  0.30245551393E+02  0.51434062260E+02  0.14367908515E+03  0.12509000000E+03 0.  0.
         25    1    4    4    0    0  0.68313773164E+02 -0.36705213063E+02  0.99479542961E+02  0.17764496007E+03  0.12509000000E+03 0.  0.
         25    1    3    3    0    0 -0.10620724583E+03  0.64596616695E+01  0.17221066492E+03  0.23796160931E+03  0.12509000000E+03 0.  0.
<mgrwt>
<rscale>  2 0.45649879E+03</rscale>
<asrwt>0</asrwt>
<pdfrwt beam="1">  1       21 0.64883082E-01 0.45649879E+03</pdfrwt>
<pdfrwt beam="2">  1       21 0.17364808E-01 0.45649879E+03</pdfrwt>
<totfact> 0.60536160E+04</totfact>
</mgrwt>
</event>
<event>
 7    0  0.4748297E-002  0.4497191E+03  0.7546771E-02  0.1027806E+00
         21   -1    0    0  502  501  0.00000000000E+00  0.00000000000E+00  0.48101248313E+03  0.48101248313E+03  0.00000000000E+00 0.  1.
         21   -1    0    0  501  502 -0.00000000000E+00 -0.00000000000E+00 -0.10511540623E+03  0.10511540623E+03  0.00000000000E+00 0.  1.
      99926    2    1    2    0    0  0.00000000000E+00 -0.22759572005E-14  0.37589707690E+03  0.58612788936E+03  0.44971912375E+03 0.  0.
      99925    2    3    3    0    0  0.57124843450E+02  0.44525328052E+00  0.11822788522E+03  0.29405877694E+03  0.26311458618E+03 0.  0.
         25    1    4    4    0    0  0.15532439606E+02  0.32978415344E+02  0.80424372866E+02  0.15311570922E+03  0.12509000000E+03 0.  0.
         25    1    3    3    0    0 -0.57124843450E+02 -0.44525328052E+00  0.25766919168E+03  0.29206911242E+03  0.12509000000E+03 0.  0.
         25    1    4    4    0    0  0.41592403844E+02 -0.32533162063E+02  0.37803512352E+02  0.14094306772E+03  0.12509000000E+03 0.  0.
<mgrwt>
<rscale>  2 0.44971912E+03</rscale>
<asrwt>0</asrwt>
<pdfrwt beam="1">  1       21 0.70737129E-01 0.44971912E+03</pdfrwt>
<pdfrwt beam="2">  1       21 0.15458148E-01 0.44971912E+03</pdfrwt>
<totfact> 0.62091842E+04</totfact>
</mgrwt>
</event>
<event>
 7    0  0.4748297E-002  0.4516360E+03  0.7546771E-02  0.1027235E+00
         21   -1    0    0  502  501  0.00000000000E+00  0.00000000000E+00  0.35818581286E+03  0.35818581286E+03  0.00000000000E+00 0.  1.
         21   -1    0    0  501  502 -0.00000000000E+00 -0.00000000000E+00 -0.14236678594E+03  0.14236678594E+03  0.00000000000E+00 0.  1.
      99926    2    1    2    0    0  0.00000000000E+00 -0.35527136788E-14  0.21581902692E+03  0.50055259879E+03  0.45163597264E+03 0.  0.
      99925    2    3    3    0    0 -0.68221249558E+02  0.27813861349E+02  0.45547884277E+02  0.27679487291E+03  0.26289359470E+03 0.  0.
         25    1    4    4    0    0 -0.72318494977E+02  0.82788436601E+01  0.92416697310E+01  0.14502213806E+03  0.12509000000E+03 0.  0.
         25    1    3    3    0    0  0.68221249558E+02 -0.27813861349E+02  0.17027114264E+03  0.22375772588E+03  0.12509000000E+03 0.  0.
         25    1    4    4    0    0  0.40972454197E+01  0.19535017689E+02  0.36306214546E+02  0.13177273485E+03  0.12509000000E+03 0.  0.
<mgrwt>
<rscale>  2 0.45163597E+03</rscale>
<asrwt>0</asrwt>
<pdfrwt beam="1">  1       21 0.52674384E-01 0.45163597E+03</pdfrwt>
<pdfrwt beam="2">  1       21 0.20936292E-01 0.45163597E+03</pdfrwt>
<totfact> 0.67003226E+04</totfact>
</mgrwt>
</event>
<event>
 7    0  0.4748297E-002  0.4565991E+03  0.7546771E-02  0.1025772E+00
         21   -1    0    0  502  501  0.00000000000E+00  0.00000000000E+00  0.22934108219E+03  0.22934108219E+03  0.00000000000E+00 0.  1.
         21   -1    0    0  501  502 -0.00000000000E+00 -0.00000000000E+00 -0.22726275405E+03  0.22726275405E+03  0.00000000000E+00 0.  1.
      99926    2    1    2    0    0  0.00000000000E+00  0.00000000000E+00  0.20783281410E+01  0.45660383624E+03  0.45659910625E+03 0.  0.
      99925    2    3    3    0    0 -0.47175207066E+02  0.86765830694E+02  0.59641506403E+02  0.28714930804E+03  0.26295209884E+03 0.  0.
         25    1    3    3    0    0  0.47175207066E+02 -0.86765830694E+02 -0.57563178262E+02  0.16945452821E+03  0.12509000000E+03 0.  0.
         25    1    4    4    0    0 -0.63725404498E+02  0.54592020761E+02  0.34464347956E+02  0.15452027469E+03  0.12509000000E+03 0.  0.
         25    1    4    4    0    0  0.16550197432E+02  0.32173809933E+02  0.25177158447E+02  0.13262903335E+03  0.12509000000E+03 0.  0.
<mgrwt>
<rscale>  2 0.45659911E+03</rscale>
<asrwt>0</asrwt>
<pdfrwt beam="1">  1       21 0.33726630E-01 0.45659911E+03</pdfrwt>
<pdfrwt beam="2">  1       21 0.33420993E-01 0.45659911E+03</pdfrwt>
<totfact> 0.67562288E+04</totfact>
</mgrwt>
</event>
<event>
 7    0  0.4748297E-002  0.4591063E+03  0.7546771E-02  0.1025041E+00
         21   -1    0    0  502  501  0.00000000000E+00  0.00000000000E+00  0.19277333989E+03  0.19277333989E+03  0.00000000000E+00 0.  1.
         21   -1    0    0  501  502 -0.00000000000E+00 -0.00000000000E+00 -0.27335033717E+03  0.27335033717E+03  0.00000000000E+00 0.  1.
      99926    2    1    2    0    0  0.00000000000E+00  0.00000000000E+00 -0.80576997280E+02  0.46612367707E+03  0.45910633826E+03 0.  0.
      99925    2    3    3    0    0  0.22240564372E+02 -0.61698323937E+02 -0.14910667394E+03  0.30913593690E+03  0.26273732393E+03 0.  0.
         25    1    4    4    0    0  0.45678868452E+02 -0.34814609204E+02 -0.53380588639E+02  0.14763336811E+03  0.12509000000E+03 0.  0.
         25    1    3    3    0    0 -0.22240564372E+02  0.61698323937E+02  0.68529676663E+02  0.15698774017E+03  0.12509000000E+03 0.  0.
         25    1    4    4    0    0 -0.23438304080E+02 -0.26883714734E+02 -0.95726085305E+02  0.16150256878E+03  0.12509000000E+03 0.  0.
<mgrwt>
<rscale>  2 0.45910634E+03</rscale>
<asrwt>0</asrwt>
<pdfrwt beam="1">  1       21 0.28349020E-01 0.45910634E+03</pdfrwt>
<pdfrwt beam="2">  1       21 0.40198579E-01 0.45910634E+03</pdfrwt>
<totfact> 0.65560439E+04</totfact>
</mgrwt>
</event>
<event>
 7    0  0.4748297E-002  0.4555259E+03  0.7546771E-02  0.1026087E+00
         21   -1    0    0  502  501  0.00000000000E+00  0.00000000000E+00  0.28369633218E+02  0.28369633218E+02  0.00000000000E+00 0.  1.
         21   -1    0    0  501  502 -0.00000000000E+00 -0.00000000000E+00 -0.18285733452E+04  0.18285733452E+04  0.00000000000E+00 0.  1.
      99926    2    1    2    0    0  0.14210854715E-13  0.00000000000E+00 -0.18002037120E+04  0.18569429784E+04  0.45552587244E+03 0.  0.
      99925    2    3    3    0    0 -0.95517597101E+02  0.49149635348E+02 -0.98217414498E+03  0.10224615954E+04  0.26310143480E+03 0.  0.
         25    1    4    4    0    0 -0.59267462357E+02  0.95268853745E+01 -0.62522367750E+03  0.64043387531E+03  0.12509000000E+03 0.  0.
         25    1    3    3    0    0  0.95517597101E+02 -0.49149635348E+02 -0.81802956703E+03  0.83448138304E+03  0.12509000000E+03 0.  0.
         25    1    4    4    0    0 -0.36250134744E+02  0.39622749974E+02 -0.35695046749E+03  0.38202772010E+03  0.12509000000E+03 0.  0.
<mgrwt>
<rscale>  2 0.45552587E+03</rscale>
<asrwt>0</asrwt>
<pdfrwt beam="1">  1       21 0.41720051E-02 0.45552587E+03</pdfrwt>
<pdfrwt beam="2">  1       21 0.26890783E+00 0.45552587E+03</pdfrwt>
<totfact> 0.16123492E+04</totfact>
</mgrwt>
</event>
<event>
 7    0  0.4748297E-002  0.4556951E+03  0.7546771E-02  0.1026037E+00
         21   -1    0    0  502  501  0.00000000000E+00  0.00000000000E+00  0.32122710007E+02  0.32122710007E+02  0.00000000000E+00 0. -1.
         21   -1    0    0  501  502 -0.00000000000E+00 -0.00000000000E+00 -0.16161310235E+04  0.16161310235E+04  0.00000000000E+00 0. -1.
      99926    2    1    2    0    0  0.14210854715E-13  0.35527136788E-14 -0.15840083135E+04  0.16482537336E+04  0.45569510949E+03 0.  0.
      99925    2    3    3    0    0 -0.99175358737E+02  0.16715991002E+02 -0.80588109937E+03  0.85374467403E+03  0.26328776267E+03 0.  0.
         25    1    3    3    0    0  0.99175358737E+02 -0.16715991002E+02 -0.77812721417E+03  0.79450905952E+03  0.12509000000E+03 0.  0.
         25    1    4    4    0    0 -0.70476081571E+02 -0.26398110908E+02 -0.44272107320E+03  0.46616863374E+03  0.12509000000E+03 0.  0.
         25    1    4    4    0    0 -0.28699277166E+02  0.43114101911E+02 -0.36316002618E+03  0.38757604029E+03  0.12509000000E+03 0.  0.
<mgrwt>
<rscale>  2 0.45569511E+03</rscale>
<asrwt>0</asrwt>
<pdfrwt beam="1">  1       21 0.47239282E-02 0.45569511E+03</pdfrwt>
<pdfrwt beam="2">  1       21 0.23766632E+00 0.45569511E+03</pdfrwt>
<totfact> 0.20251482E+04</totfact>
</mgrwt>
</event>
<event>
 7    0  0.4748297E-002  0.4011333E+03  0.7546771E-02  0.1043388E+00
         21   -1    0    0  502  501  0.00000000000E+00  0.00000000000E+00  0.23290399056E+03  0.23290399056E+03  0.00000000000E+00 0. -1.
         21   -1    0    0  501  502 -0.00000000000E+00 -0.00000000000E+00 -0.17271918569E+03  0.17271918569E+03  0.00000000000E+00 0. -1.
      99926    2    1    2    0    0  0.00000000000E+00  0.00000000000E+00  0.60184804871E+02  0.40562317624E+03  0.40113333241E+03 0.  0.
      99925    2    3    3    0    0  0.29566834771E+02 -0.84949133156E+01  0.32737746386E+01  0.26479443368E+03  0.26298101307E+03 0.  0.
         25    1    3    3    0    0 -0.29566834771E+02  0.84949133156E+01  0.56911030232E+02  0.14082874257E+03  0.12509000000E+03 0.  0.
         25    1    4    4    0    0 -0.19376432840E+02 -0.81463309579E+01 -0.20176442758E+02  0.12843833462E+03  0.12509000000E+03 0.  0.
         25    1    4    4    0    0  0.48943267612E+02 -0.34858235776E+00  0.23450217397E+02  0.13635609906E+03  0.12509000000E+03 0.  0.
<mgrwt>
<rscale>  2 0.40113333E+03</rscale>
<asrwt>0</asrwt>
<pdfrwt beam="1">  1       21 0.34250587E-01 0.40113333E+03</pdfrwt>
<pdfrwt beam="2">  1       21 0.25399880E-01 0.40113333E+03</pdfrwt>
<totfact> 0.11397030E+05</totfact>
</mgrwt>
</event>
<event>
 7    0  0.4748297E-002  0.4565741E+03  0.7546771E-02  0.1025780E+00
         21   -1    0    0  502  501  0.00000000000E+00  0.00000000000E+00  0.14374837524E+03  0.14374837524E+03  0.00000000000E+00 0.  1.
         21   -1    0    0  501  502 -0.00000000000E+00 -0.00000000000E+00 -0.36254305283E+03  0.36254305283E+03  0.00000000000E+00 0.  1.
      99926    2    1    2    0    0 -0.35527136788E-14 -0.14210854715E-13 -0.21879467759E+03  0.50629142807E+03  0.45657408949E+03 0.  0.
      99925    2    3    3    0    0 -0.56520246093E+01  0.76685546212E+02 -0.23176429565E+03  0.35888607717E+03  0.26300553087E+03 0.  0.
         25    1    4    4    0    0 -0.37447343715E+02  0.21508809370E+02 -0.94957621893E+02  0.16287845311E+03  0.12509000000E+03 0.  0.
         25    1    4    4    0    0  0.31795319106E+02  0.55176736842E+02 -0.13680667376E+03  0.19600762406E+03  0.12509000000E+03 0.  0.
         25    1    3    3    0    0  0.56520246093E+01 -0.76685546212E+02  0.12969618061E+02  0.14740535090E+03  0.12509000000E+03 0.  0.
<mgrwt>
<rscale>  2 0.45657409E+03</rscale>
<asrwt>0</asrwt>
<pdfrwt beam="1">  1       21 0.21139467E-01 0.45657409E+03</pdfrwt>
<pdfrwt beam="2">  1       21 0.53315154E-01 0.45657409E+03</pdfrwt>
<totfact> 0.64027196E+04</totfact>
</mgrwt>
</event>
<event>
 7    0  0.4748297E-002  0.4491195E+03  0.7546771E-02  0.1027985E+00
         21   -1    0    0  502  501  0.00000000000E+00  0.00000000000E+00  0.58052039776E+02  0.58052039776E+02  0.00000000000E+00 0.  1.
         21   -1    0    0  501  502 -0.00000000000E+00 -0.00000000000E+00 -0.86865305448E+03  0.86865305448E+03  0.00000000000E+00 0.  1.
      99926    2    1    2    0    0 -0.14210854715E-13  0.35527136788E-14 -0.81060101471E+03  0.92670509426E+03  0.44911950156E+03 0.  0.
      99925    2    3    3    0    0 -0.10527669477E+03  0.27056953791E+02 -0.49311913827E+03  0.56857451587E+03  0.26133356914E+03 0.  0.
         25    1    4    4    0    0 -0.40867862807E+02  0.20907741698E+02 -0.31109251481E+03  0.33842780138E+03  0.12509000000E+03 0.  0.
         25    1    3    3    0    0  0.10527669477E+03 -0.27056953791E+02 -0.31748187643E+03  0.35813057839E+03  0.12509000000E+03 0.  0.
         25    1    4    4    0    0 -0.64408831965E+02  0.61492120934E+01 -0.18202662346E+03  0.23014671449E+03  0.12509000000E+03 0.  0.
<mgrwt>
<rscale>  2 0.44911950E+03</rscale>
<asrwt>0</asrwt>
<pdfrwt beam="1">  1       21 0.85370656E-02 0.44911950E+03</pdfrwt>
<pdfrwt beam="2">  1       21 0.12774308E+00 0.44911950E+03</pdfrwt>
<totfact> 0.44092187E+04</totfact>
</mgrwt>
</event>
<event>
 7    0  0.4748297E-002  0.4556228E+03  0.7546771E-02  0.1026058E+00
         21   -1    0    0  502  501  0.00000000000E+00  0.00000000000E+00  0.73287726023E+03  0.73287726023E+03  0.00000000000E+00 0. -1.
         21   -1    0    0  501  502 -0.00000000000E+00 -0.00000000000E+00 -0.70814074908E+02  0.70814074908E+02  0.00000000000E+00 0. -1.
      99926    2    1    2    0    0  0.00000000000E+00  0.71054273576E-14  0.66206318532E+03  0.80369133514E+03  0.45562276152E+03 0.  0.
      99925    2    3    3    0    0 -0.10050950105E+03  0.50695385096E+02  0.38790876601E+03  0.48200773966E+03  0.26303244757E+03 0.  0.
         25    1    4    4    0    0 -0.22142768238E+02  0.46836799830E+02  0.15063996207E+03  0.20254356143E+03  0.12509000000E+03 0.  0.
         25    1    3    3    0    0  0.10050950105E+03 -0.50695385096E+02  0.27415441931E+03  0.32168359548E+03  0.12509000000E+03 0.  0.
         25    1    4    4    0    0 -0.78366732813E+02  0.38585852666E+01  0.23726880394E+03  0.27946417823E+03  0.12509000000E+03 0.  0.
<mgrwt>
<rscale>  2 0.45562276E+03</rscale>
<asrwt>0</asrwt>
<pdfrwt beam="1">  1       21 0.10777606E+00 0.45562276E+03</pdfrwt>
<pdfrwt beam="2">  1       21 0.10413835E-01 0.45562276E+03</pdfrwt>
<totfact> 0.47354924E+04</totfact>
</mgrwt>
</event>
<event>
 7    0  0.4748297E-002  0.4364822E+03  0.7546771E-02  0.1031832E+00
         21   -1    0    0  502  501  0.00000000000E+00  0.00000000000E+00  0.16712234279E+04  0.16712234279E+04  0.00000000000E+00 0.  1.
         21   -1    0    0  501  502 -0.00000000000E+00 -0.00000000000E+00 -0.28499590780E+02  0.28499590780E+02  0.00000000000E+00 0.  1.
      99926    2    1    2    0    0  0.00000000000E+00 -0.71054273576E-14  0.16427238371E+04  0.16997230187E+04  0.43648222780E+03 0.  0.
      99925    2    3    3    0    0 -0.22234811572E+02  0.47908997995E+02  0.13581828594E+04  0.13844441976E+04  0.26312620108E+03 0.  0.
         25    1    4    4    0    0 -0.46218389942E+02  0.45297240528E+02  0.73550663967E+03  0.74886948440E+03  0.12509000000E+03 0.  0.
         25    1    4    4    0    0  0.23983578371E+02  0.26117574669E+01  0.62267621973E+03  0.63557471318E+03  0.12509000000E+03 0.  0.
         25    1    3    3    0    0  0.22234811572E+02 -0.47908997995E+02  0.28454097770E+03  0.31527882109E+03  0.12509000000E+03 0.  0.
<mgrwt>
<rscale>  2 0.43648223E+03</rscale>
<asrwt>0</asrwt>
<pdfrwt beam="1">  1       21 0.24576809E+00 0.43648223E+03</pdfrwt>
<pdfrwt beam="2">  1       21 0.41911174E-02 0.43648223E+03</pdfrwt>
<totfact> 0.22306181E+04</totfact>
</mgrwt>
</event>
<event>
 7    0  0.4748297E-002  0.4489111E+03  0.7546771E-02  0.1028047E+00
         21   -1    0    0  502  501  0.00000000000E+00  0.00000000000E+00  0.18857071809E+04  0.18857071809E+04  0.00000000000E+00 0. -1.
         21   -1    0    0  501  502 -0.00000000000E+00 -0.00000000000E+00 -0.26716925343E+02  0.26716925343E+02  0.00000000000E+00 0. -1.
      99926    2    1    2    0    0  0.00000000000E+00  0.00000000000E+00  0.18589902556E+04  0.19124241063E+04  0.44891111802E+03 0.  0.
      99925    2    3    3    0    0 -0.59194670219E+02  0.29022144413E+02  0.15374460988E+04  0.15611628833E+04  0.26295008627E+03 0.  0.
         25    1    4    4    0    0 -0.41914541353E+02 -0.20381109166E+02  0.66814688470E+03  0.68135158767E+03  0.12509000000E+03 0.  0.
         25    1    3    3    0    0  0.59194670219E+02 -0.29022144413E+02  0.32154415684E+03  0.35126122295E+03  0.12509000000E+03 0.  0.
         25    1    4    4    0    0 -0.17280128866E+02  0.49403253580E+02  0.86929921406E+03  0.87981129567E+03  0.12509000000E+03 0.  0.
<mgrwt>
<rscale>  2 0.44891112E+03</rscale>
<asrwt>0</asrwt>
<pdfrwt beam="1">  1       21 0.27730979E+00 0.44891112E+03</pdfrwt>
<pdfrwt beam="2">  1       21 0.39289609E-02 0.44891112E+03</pdfrwt>
<totfact> 0.15932397E+04</totfact>
</mgrwt>
</event>
<event>
 7    0  0.4748297E-002  0.4562663E+03  0.7546771E-02  0.1025870E+00
         21   -1    0    0  502  501  0.00000000000E+00  0.00000000000E+00  0.46054946853E+03  0.46054946853E+03  0.00000000000E+00 0.  1.
         21   -1    0    0  501  502 -0.00000000000E+00 -0.00000000000E+00 -0.11300574557E+03  0.11300574557E+03  0.00000000000E+00 0.  1.
      99926    2    1    2    0    0  0.00000000000E+00  0.00000000000E+00  0.34754372296E+03  0.57355521411E+03  0.45626630849E+03 0.  0.
      99925    2    3    3    0    0  0.50788678532E+02 -0.19690986761E+02  0.92122627668E+02  0.28397850778E+03  0.26303990101E+03 0.  0.
         25    1    4    4    0    0  0.20773881511E+02  0.30253949069E+02  0.38480175563E+02  0.13592309443E+03  0.12509000000E+03 0.  0.
         25    1    4    4    0    0  0.30014797022E+02 -0.49944935829E+02  0.53642452105E+02  0.14805541335E+03  0.12509000000E+03 0.  0.
         25    1    3    3    0    0 -0.50788678532E+02  0.19690986761E+02  0.25542109529E+03  0.28957670633E+03  0.12509000000E+03 0.  0.
<mgrwt>
<rscale>  2 0.45626631E+03</rscale>
<asrwt>0</asrwt>
<pdfrwt beam="1">  1       21 0.67727862E-01 0.45626631E+03</pdfrwt>
<pdfrwt beam="2">  1       21 0.16618492E-01 0.45626631E+03</pdfrwt>
<totfact> 0.59735897E+04</totfact>
</mgrwt>
</event>
<event>
 7    0  0.4748297E-002  0.4625112E+03  0.7546771E-02  0.1024055E+00
         21   -1    0    0  502  501  0.00000000000E+00  0.00000000000E+00  0.42297548818E+03  0.42297548818E+03  0.00000000000E+00 0. -1.
         21   -1    0    0  501  502 -0.00000000000E+00 -0.00000000000E+00 -0.12643560027E+03  0.12643560027E+03  0.00000000000E+00 0. -1.
      99926    2    1    2    0    0  0.00000000000E+00  0.00000000000E+00  0.29653988791E+03  0.54941108845E+03  0.46251123120E+03 0.  0.
      99925    2    3    3    0    0  0.92646088790E+02  0.56338953382E+02  0.12465641720E+03  0.31077158829E+03  0.26321546744E+03 0.  0.
         25    1    4    4    0    0  0.60403041775E+02  0.28258772123E+01  0.93640900155E+02  0.16754891620E+03  0.12509000000E+03 0.  0.
         25    1    4    4    0    0  0.32243047015E+02  0.53513076170E+02  0.31015517049E+02  0.14322267209E+03  0.12509000000E+03 0.  0.
         25    1    3    3    0    0 -0.92646088790E+02 -0.56338953382E+02  0.17188347070E+03  0.23863950016E+03  0.12509000000E+03 0.  0.
<mgrwt>
<rscale>  2 0.46251123E+03</rscale>
<asrwt>0</asrwt>
<pdfrwt beam="1">  1       21 0.62202277E-01 0.46251123E+03</pdfrwt>
<pdfrwt beam="2">  1       21 0.18593471E-01 0.46251123E+03</pdfrwt>
<totfact> 0.58359044E+04</totfact>
</mgrwt>
</event>
<event>
 7    0  0.4748297E-002  0.4476181E+03  0.7546771E-02  0.1028435E+00
         21   -1    0    0  502  501  0.00000000000E+00  0.00000000000E+00  0.14265979739E+03  0.14265979739E+03  0.00000000000E+00 0.  1.
         21   -1    0    0  501  502 -0.00000000000E+00 -0.00000000000E+00 -0.35111853332E+03  0.35111853332E+03  0.00000000000E+00 0.  1.
      99926    2    1    2    0    0  0.17763568394E-14  0.14210854715E-13 -0.20845873593E+03  0.49377833071E+03  0.44761813557E+03 0.  0.
      99925    2    3    3    0    0  0.15294149864E+02  0.10348383428E+03 -0.13685619352E+03  0.31568496431E+03  0.26454595822E+03 0.  0.
         25    1    4    4    0    0 -0.24686530226E+02  0.81403658988E+02 -0.75333705103E+02  0.16899306405E+03  0.12509000000E+03 0.  0.
         25    1    4    4    0    0  0.39980680090E+02  0.22080175292E+02 -0.61522488417E+02  0.14669190026E+03  0.12509000000E+03 0.  0.
         25    1    3    3    0    0 -0.15294149864E+02 -0.10348383428E+03 -0.71602542408E+02  0.17809336640E+03  0.12509000000E+03 0.  0.
<mgrwt>
<rscale>  2 0.44761814E+03</rscale>
<asrwt>0</asrwt>
<pdfrwt beam="1">  1       21 0.20979382E-01 0.44761814E+03</pdfrwt>
<pdfrwt beam="2">  1       21 0.51635079E-01 0.44761814E+03</pdfrwt>
<totfact> 0.69706031E+04</totfact>
</mgrwt>
</event>
<event>
 7    0  0.4748297E-002  0.4536736E+03  0.7546771E-02  0.1026632E+00
         21   -1    0    0  502  501  0.00000000000E+00  0.00000000000E+00  0.47540145018E+03  0.47540145018E+03  0.00000000000E+00 0. -1.
         21   -1    0    0  501  502 -0.00000000000E+00 -0.00000000000E+00 -0.10823468910E+03  0.10823468910E+03  0.00000000000E+00 0. -1.
      99926    2    1    2    0    0  0.00000000000E+00  0.44408920985E-15  0.36716676108E+03  0.58363613928E+03  0.45367357498E+03 0.  0.
      99925    2    3    3    0    0  0.81600773905E+02 -0.13271473280E+01  0.32993771342E+03  0.42970772179E+03  0.26292467326E+03 0.  0.
         25    1    4    4    0    0  0.78903529301E+02  0.16831617226E+02  0.17590387234E+03  0.23043166162E+03  0.12509000000E+03 0.  0.
         25    1    3    3    0    0 -0.81600773905E+02  0.13271473280E+01  0.37229047659E+02  0.15392841749E+03  0.12509000000E+03 0.  0.
         25    1    4    4    0    0  0.26972446043E+01 -0.18158764554E+02  0.15403384108E+03  0.19927606017E+03  0.12509000000E+03 0.  0.
<mgrwt>
<rscale>  2 0.45367357E+03</rscale>
<asrwt>0</asrwt>
<pdfrwt beam="1">  1       21 0.69911977E-01 0.45367357E+03</pdfrwt>
<pdfrwt beam="2">  1       21 0.15916866E-01 0.45367357E+03</pdfrwt>
<totfact> 0.60327040E+04</totfact>
</mgrwt>
</event>
<event>
 7    0  0.4748297E-002  0.4513009E+03  0.7546771E-02  0.1027335E+00
         21   -1    0    0  502  501  0.00000000000E+00  0.00000000000E+00  0.17078237507E+03  0.17078237507E+03  0.00000000000E+00 0. -1.
         21   -1    0    0  501  502 -0.00000000000E+00 -0.00000000000E+00 -0.29814630123E+03  0.29814630123E+03  0.00000000000E+00 0. -1.
      99926    2    1    2    0    0  0.00000000000E+00  0.14210854715E-13 -0.12736392616E+03  0.46892867630E+03  0.45130093482E+03 0.  0.
      99925    2    3    3    0    0 -0.11895043020E+02  0.71275894049E+02  0.52873107417E+01  0.27280217664E+03  0.26300442354E+03 0.  0.
         25    1    4    4    0    0 -0.21909800298E+02  0.35509474383E+02  0.39958971541E+02  0.13778675418E+03  0.12509000000E+03 0.  0.
         25    1    3    3    0    0  0.11895043020E+02 -0.71275894049E+02 -0.13265123690E+03  0.19612649967E+03  0.12509000000E+03 0.  0.
         25    1    4    4    0    0  0.10014757278E+02  0.35766419666E+02 -0.34671660799E+02  0.13501542246E+03  0.12509000000E+03 0.  0.
<mgrwt>
<rscale>  2 0.45130093E+03</rscale>
<asrwt>0</asrwt>
<pdfrwt beam="1">  1       21 0.25115056E-01 0.45130093E+03</pdfrwt>
<pdfrwt beam="2">  1       21 0.43845044E-01 0.45130093E+03</pdfrwt>
<totfact> 0.69533789E+04</totfact>
</mgrwt>
</event>
<event>
 7    0  0.4748297E-002  0.4578703E+03  0.7546771E-02  0.1025401E+00
         21   -1    0    0  502  501  0.00000000000E+00  0.00000000000E+00  0.11164115128E+03  0.11164115128E+03  0.00000000000E+00 0.  1.
         21   -1    0    0  501  502 -0.00000000000E+00 -0.00000000000E+00 -0.46946216240E+03  0.46946216240E+03  0.00000000000E+00 0.  1.
      99926    2    1    2    0    0  0.00000000000E+00  0.14210854715E-13 -0.35782101112E+03  0.58110331368E+03  0.45787027111E+03 0.  0.
      99925    2    3    3    0    0  0.29453284970E+02 -0.11113223968E+03 -0.20428679606E+03  0.35210957144E+03  0.26273595978E+03 0.  0.
         25    1    3    3    0    0 -0.29453284970E+02  0.11113223968E+03 -0.15353421506E+03  0.22899374224E+03  0.12509000000E+03 0.  0.
         25    1    4    4    0    0  0.51100541151E+02 -0.67270692681E+02 -0.89891104109E+02  0.17568303873E+03  0.12509000000E+03 0.  0.
         25    1    4    4    0    0 -0.21647256181E+02 -0.43861547000E+02 -0.11439569196E+03  0.17642653271E+03  0.12509000000E+03 0.  0.
<mgrwt>
<rscale>  2 0.45787027E+03</rscale>
<asrwt>0</asrwt>
<pdfrwt beam="1">  1       21 0.16417817E-01 0.45787027E+03</pdfrwt>
<pdfrwt beam="2">  1       21 0.69038551E-01 0.45787027E+03</pdfrwt>
<totfact> 0.58517576E+04</totfact>
</mgrwt>
</event>
<event>
 7    0  0.4748297E-002  0.4467483E+03  0.7546771E-02  0.1028696E+00
         21   -1    0    0  502  501  0.00000000000E+00  0.00000000000E+00  0.11831515840E+03  0.11831515840E+03  0.00000000000E+00 0. -1.
         21   -1    0    0  501  502 -0.00000000000E+00 -0.00000000000E+00 -0.42172129282E+03  0.42172129282E+03  0.00000000000E+00 0. -1.
      99926    2    1    2    0    0 -0.17763568394E-14  0.00000000000E+00 -0.30340613443E+03  0.54003645122E+03  0.44674834778E+03 0.  0.
      99925    2    3    3    0    0 -0.15867947500E+02 -0.23533708773E+02 -0.69867068769E+02  0.27359015177E+03  0.26299151438E+03 0.  0.
         25    1    3    3    0    0  0.15867947500E+02  0.23533708773E+02 -0.23353906566E+03  0.26644629946E+03  0.12509000000E+03 0.  0.
         25    1    4    4    0    0  0.80726722726E+01 -0.32880047324E+02 -0.34232374920E+01  0.12963599888E+03  0.12509000000E+03 0.  0.
         25    1    4    4    0    0 -0.23940619772E+02  0.93463385512E+01 -0.66443831277E+02  0.14395415289E+03  0.12509000000E+03 0.  0.
<mgrwt>
<rscale>  2 0.44674835E+03</rscale>
<asrwt>0</asrwt>
<pdfrwt beam="1">  1       21 0.17399288E-01 0.44674835E+03</pdfrwt>
<pdfrwt beam="2">  1       21 0.62017837E-01 0.44674835E+03</pdfrwt>
<totfact> 0.66785279E+04</totfact>
</mgrwt>
</event>
<event>
 7    0  0.4748297E-002  0.4517844E+03  0.7546771E-02  0.1027191E+00
         21   -1    0    0  502  501  0.00000000000E+00  0.00000000000E+00  0.27986351716E+03  0.27986351716E+03  0.00000000000E+00 0.  1.
         21   -1    0    0  501  502 -0.00000000000E+00 -0.00000000000E+00 -0.18232915020E+03  0.18232915020E+03  0.00000000000E+00 0.  1.
      99926    2    1    2    0    0  0.00000000000E+00  0.00000000000E+00  0.97534366961E+02  0.46219266735E+03  0.45178436119E+03 0.  0.
      99925    2    3    3    0    0 -0.88858914678E+02 -0.56504805628E+02  0.25811844440E+02  0.28364203556E+03  0.26210275322E+03 0.  0.
         25    1    4    4    0    0 -0.54064109551E+02 -0.38118618520E+02  0.50420008638E+02  0.15021864861E+03  0.12509000000E+03 0.  0.
         25    1    4    4    0    0 -0.34794805127E+02 -0.18386187108E+02 -0.24608164198E+02  0.13342338695E+03  0.12509000000E+03 0.  0.
         25    1    3    3    0    0  0.88858914678E+02  0.56504805628E+02  0.71722522521E+02  0.17855063179E+03  0.12509000000E+03 0.  0.
<mgrwt>
<rscale>  2 0.45178436E+03</rscale>
<asrwt>0</asrwt>
<pdfrwt beam="1">  1       21 0.41156400E-01 0.45178436E+03</pdfrwt>
<pdfrwt beam="2">  1       21 0.26813110E-01 0.45178436E+03</pdfrwt>
<totfact> 0.69784423E+04</totfact>
</mgrwt>
</event>
<event>
 7    0  0.4748297E-002  0.4515930E+03  0.7546771E-02  0.1027248E+00
         21   -1    0    0  502  501  0.00000000000E+00  0.00000000000E+00  0.76492704551E+02  0.76492704551E+02  0.00000000000E+00 0.  1.
         21   -1    0    0  501  502 -0.00000000000E+00 -0.00000000000E+00 -0.66652192726E+03  0.66652192726E+03  0.00000000000E+00 0.  1.
      99926    2    1    2    0    0 -0.14210854715E-13  0.71054273576E-14 -0.59002922270E+03  0.74301463181E+03  0.45159302412E+03 0.  0.
      99925    2    3    3    0    0  0.60957170356E+02 -0.37494157546E+02 -0.23537658628E+03  0.36019928587E+03  0.26309655965E+03 0.  0.
         25    1    4    4    0    0 -0.47887438926E+01 -0.71977639496E+01 -0.84099078742E+02  0.15097980997E+03  0.12509000000E+03 0.  0.
         25    1    4    4    0    0  0.65745914249E+02 -0.30296393596E+02 -0.15127750754E+03  0.20921947589E+03  0.12509000000E+03 0.  0.
         25    1    3    3    0    0 -0.60957170356E+02  0.37494157546E+02 -0.35465263642E+03  0.38281534594E+03  0.12509000000E+03 0.  0.
<mgrwt>
<rscale>  2 0.45159302E+03</rscale>
<asrwt>0</asrwt>
<pdfrwt beam="1">  1       21 0.11248927E-01 0.45159302E+03</pdfrwt>
<pdfrwt beam="2">  1       21 0.98017932E-01 0.45159302E+03</pdfrwt>
<totfact> 0.52007904E+04</totfact>
</mgrwt>
</event>
<event>
 7    0  0.4748297E-002  0.4533465E+03  0.7546771E-02  0.1026729E+00
         21   -1    0    0  502  501  0.00000000000E+00  0.00000000000E+00  0.68812955843E+03  0.68812955843E+03  0.00000000000E+00 0. -1.
         21   -1    0    0  501  502 -0.00000000000E+00 -0.00000000000E+00 -0.74667266211E+02  0.74667266211E+02  0.00000000000E+00 0. -1.
      99926    2    1    2    0    0  0.00000000000E+00  0.00000000000E+00  0.61346229222E+03  0.76279682464E+03  0.45334645880E+03 0.  0.
      99925    2    3    3    0    0  0.69760812932E+02 -0.67602106778E+02  0.48060173489E+03  0.55606982676E+03  0.26229565148E+03 0.  0.
         25    1    3    3    0    0 -0.69760812932E+02  0.67602106778E+02  0.13286055733E+03  0.20672699789E+03  0.12509000000E+03 0.  0.
         25    1    4    4    0    0  0.52237711877E+02 -0.25129078270E+02  0.17582441639E+03  0.22343227747E+03  0.12509000000E+03 0.  0.
         25    1    4    4    0    0  0.17523101055E+02 -0.42473028508E+02  0.30477731850E+03  0.33263754929E+03  0.12509000000E+03 0.  0.
<mgrwt>
<rscale>  2 0.45334646E+03</rscale>
<asrwt>0</asrwt>
<pdfrwt beam="1">  1       21 0.10119552E+00 0.45334646E+03</pdfrwt>
<pdfrwt beam="2">  1       21 0.10980481E-01 0.45334646E+03</pdfrwt>
<totfact> 0.50266007E+04</totfact>
</mgrwt>
</event>
<event>
 7    0  0.4748297E-002  0.4619330E+03  0.7546771E-02  0.1024222E+00
         21   -1    0    0  502  501  0.00000000000E+00  0.00000000000E+00  0.12211782723E+03  0.12211782723E+03  0.00000000000E+00 0.  1.
         21   -1    0    0  501  502 -0.00000000000E+00 -0.00000000000E+00 -0.43683648732E+03  0.43683648732E+03  0.00000000000E+00 0.  1.
      99926    2    1    2    0    0  0.00000000000E+00  0.00000000000E+00 -0.31471866010E+03  0.55895431455E+03  0.46193299378E+03 0.  0.
      99925    2    3    3    0    0  0.60400619623E+02 -0.10037283552E+03 -0.16814802512E+03  0.33344732996E+03  0.26304072412E+03 0.  0.
         25    1    4    4    0    0  0.52988653775E+02 -0.19557265876E+02 -0.63167486653E+02  0.15108912452E+03  0.12509000000E+03 0.  0.
         25    1    4    4    0    0  0.74119658479E+01 -0.80815569645E+02 -0.10498053846E+03  0.18235820544E+03  0.12509000000E+03 0.  0.
         25    1    3    3    0    0 -0.60400619623E+02  0.10037283552E+03 -0.14657063498E+03  0.22550698459E+03  0.12509000000E+03 0.  0.
<mgrwt>
<rscale>  2 0.46193299E+03</rscale>
<asrwt>0</asrwt>
<pdfrwt beam="1">  1       21 0.17958504E-01 0.46193299E+03</pdfrwt>
<pdfrwt beam="2">  1       21 0.64240660E-01 0.46193299E+03</pdfrwt>
<totfact> 0.58030103E+04</totfact>
</mgrwt>
</event>
<event>
 7    0  0.4748297E-002  0.4795526E+03  0.7546771E-02  0.1019258E+00
         21   -1    0    0  502  501  0.00000000000E+00  0.00000000000E+00  0.18526840888E+03  0.18526840888E+03  0.00000000000E+00 0. -1.
         21   -1    0    0  501  502 -0.00000000000E+00 -0.00000000000E+00 -0.31032098871E+03  0.31032098871E+03  0.00000000000E+00 0. -1.
      99926    2    1    2    0    0  0.00000000000E+00  0.00000000000E+00 -0.12505257983E+03  0.49558939759E+03  0.47955260742E+03 0.  0.
      99925    2    3    3    0    0  0.31852029436E+02  0.10671173570E+03  0.17956158625E+01  0.28549437346E+03  0.26287233922E+03 0.  0.
         25    1    4    4    0    0 -0.18532036256E+02  0.69618037187E+02 -0.12547020293E+02  0.14489666417E+03  0.12509000000E+03 0.  0.
         25    1    3    3    0    0 -0.31852029436E+02 -0.10671173570E+03 -0.12684819569E+03  0.21009502413E+03  0.12509000000E+03 0.  0.
         25    1    4    4    0    0  0.50384065692E+02  0.37093698510E+02  0.14342636156E+02  0.14059770929E+03  0.12509000000E+03 0.  0.
<mgrwt>
<rscale>  2 0.47955261E+03</rscale>
<asrwt>0</asrwt>
<pdfrwt beam="1">  1       21 0.27245354E-01 0.47955261E+03</pdfrwt>
<pdfrwt beam="2">  1       21 0.45635439E-01 0.47955261E+03</pdfrwt>
<totfact> 0.54219303E+04</totfact>
</mgrwt>
</event>
<event>
 7    0  0.4748297E-002  0.4520731E+03  0.7546771E-02  0.1027106E+00
         21   -1    0    0  502  501  0.00000000000E+00  0.00000000000E+00  0.20311160352E+04  0.20311160352E+04  0.00000000000E+00 0.  1.
         21   -1    0    0  501  502 -0.00000000000E+00 -0.00000000000E+00 -0.25154899676E+02  0.25154899676E+02  0.00000000000E+00 0.  1.
      99926    2    1    2    0    0  0.00000000000E+00 -0.88817841970E-15  0.20059611355E+04  0.20562709349E+04  0.45207309186E+03 0.  0.
      99925    2    3    3    0    0 -0.70319986383E+02  0.58886907832E+01  0.87969889863E+03  0.92088830708E+03  0.26303145190E+03 0.  0.
         25    1    4    4    0    0 -0.33663865514E+02 -0.14291284503E+02  0.56164810846E+03  0.57657055292E+03  0.12509000000E+03 0.  0.
         25    1    3    3    0    0  0.70319986383E+02 -0.58886907832E+01  0.11262622369E+04  0.11353826278E+04  0.12509000000E+03 0.  0.
         25    1    4    4    0    0 -0.36656120869E+02  0.20179975286E+02  0.31805079017E+03  0.34431775416E+03  0.12509000000E+03 0.  0.
<mgrwt>
<rscale>  2 0.45207309E+03</rscale>
<asrwt>0</asrwt>
<pdfrwt beam="1">  1       21 0.29869342E+00 0.45207309E+03</pdfrwt>
<pdfrwt beam="2">  1       21 0.36992513E-02 0.45207309E+03</pdfrwt>
<totfact> 0.13108070E+04</totfact>
</mgrwt>
</event>
<event>
 7    0  0.4748297E-002  0.4594120E+03  0.7546771E-02  0.1024952E+00
         21   -1    0    0  502  501  0.00000000000E+00  0.00000000000E+00  0.19478924747E+04  0.19478924747E+04  0.00000000000E+00 0.  1.
         21   -1    0    0  501  502 -0.00000000000E+00 -0.00000000000E+00 -0.27088175048E+02  0.27088175048E+02  0.00000000000E+00 0.  1.
      99926    2    1    2    0    0  0.00000000000E+00  0.00000000000E+00  0.19208042996E+04  0.19749806497E+04  0.45941202566E+03 0.  0.
      99925    2    3    3    0    0  0.48146145471E+02 -0.81924811225E+02  0.90819314963E+03  0.95025699174E+03  0.26295213882E+03 0.  0.
         25    1    4    4    0    0  0.31851246273E+02 -0.82903612869E+02  0.50567473478E+03  0.52843349289E+03  0.12509000000E+03 0.  0.
         25    1    3    3    0    0 -0.48146145471E+02  0.81924811225E+02  0.10126111500E+04  0.10247236580E+04  0.12509000000E+03 0.  0.
         25    1    4    4    0    0  0.16294899198E+02  0.97880164397E+00  0.40251841485E+03  0.42182349885E+03  0.12509000000E+03 0.  0.
<mgrwt>
<rscale>  2 0.45941203E+03</rscale>
<asrwt>0</asrwt>
<pdfrwt beam="1">  1       21 0.28645468E+00 0.45941203E+03</pdfrwt>
<pdfrwt beam="2">  1       21 0.39835565E-02 0.45941203E+03</pdfrwt>
<totfact> 0.13649223E+04</totfact>
</mgrwt>
</event>
<event>
 7    0  0.4748297E-002  0.4333299E+03  0.7546771E-02  0.1032813E+00
         21   -1    0    0  502  501  0.00000000000E+00  0.00000000000E+00  0.66406587354E+03  0.66406587354E+03  0.00000000000E+00 0.  1.
         21   -1    0    0  501  502 -0.00000000000E+00 -0.00000000000E+00 -0.70691317482E+02  0.70691317482E+02  0.00000000000E+00 0.  1.
      99926    2    1    2    0    0  0.00000000000E+00  0.00000000000E+00  0.59337455606E+03  0.73475719102E+03  0.43332985817E+03 0.  0.
      99925    2    3    3    0    0  0.32616863117E+02  0.49944848198E+02  0.26464299054E+03  0.37800756188E+03  0.26324030234E+03 0.  0.
         25    1    3    3    0    0 -0.32616863117E+02 -0.49944848198E+02  0.32873156552E+03  0.35674962914E+03  0.12509000000E+03 0.  0.
         25    1    4    4    0    0 -0.18277005462E+02  0.18020176132E+01  0.11859197291E+03  0.17334607101E+03  0.12509000000E+03 0.  0.
         25    1    4    4    0    0  0.50893868579E+02  0.48142830585E+02  0.14605101763E+03  0.20466149087E+03  0.12509000000E+03 0.  0.
<mgrwt>
<rscale>  2 0.43332986E+03</rscale>
<asrwt>0</asrwt>
<pdfrwt beam="1">  1       21 0.97656743E-01 0.43332986E+03</pdfrwt>
<pdfrwt beam="2">  1       21 0.10395782E-01 0.43332986E+03</pdfrwt>
<totfact> 0.60766513E+04</totfact>
</mgrwt>
</event>
<event>
 7    0  0.4748297E-002  0.4251027E+03  0.7546771E-02  0.1035418E+00
         21   -1    0    0  502  501  0.00000000000E+00  0.00000000000E+00  0.27251221864E+03  0.27251221864E+03  0.00000000000E+00 0.  1.
         21   -1    0    0  501  502 -0.00000000000E+00 -0.00000000000E+00 -0.16578365196E+03  0.16578365196E+03  0.00000000000E+00 0.  1.
      99926    2    1    2    0    0  0.00000000000E+00  0.00000000000E+00  0.10672856669E+03  0.43829587060E+03  0.42510267376E+03 0.  0.
      99925    2    3    3    0    0  0.14048920265E+02 -0.42328880159E+02  0.14014901370E+03  0.30135230326E+03  0.26302539495E+03 0.  0.
         25    1    4    4    0    0 -0.17489394482E+02 -0.51225550868E+02  0.57812256252E+02  0.14805303460E+03  0.12509000000E+03 0.  0.
         25    1    3    3    0    0 -0.14048920265E+02  0.42328880159E+02 -0.33420447010E+02  0.13694356734E+03  0.12509000000E+03 0.  0.
         25    1    4    4    0    0  0.31538314747E+02  0.88966707093E+01  0.82336757446E+02  0.15329926867E+03  0.12509000000E+03 0.  0.
<mgrwt>
<rscale>  2 0.42510267E+03</rscale>
<asrwt>0</asrwt>
<pdfrwt beam="1">  1       21 0.40075327E-01 0.42510267E+03</pdfrwt>
<pdfrwt beam="2">  1       21 0.24379949E-01 0.42510267E+03</pdfrwt>
<totfact> 0.89221689E+04</totfact>
</mgrwt>
</event>
<event>
 7    0  0.4748297E-002  0.4517895E+03  0.7546771E-02  0.1027190E+00
         21   -1    0    0  502  501  0.00000000000E+00  0.00000000000E+00  0.71117895229E+02  0.71117895229E+02  0.00000000000E+00 0. -1.
         21   -1    0    0  501  502 -0.00000000000E+00 -0.00000000000E+00 -0.71751896626E+03  0.71751896626E+03  0.00000000000E+00 0. -1.
      99926    2    1    2    0    0  0.00000000000E+00 -0.71054273576E-14 -0.64640107103E+03  0.78863686149E+03  0.45178950261E+03 0.  0.
      99925    2    3    3    0    0 -0.53813879268E+02 -0.46533685862E+02 -0.55468432977E+03  0.61798872570E+03  0.26300958513E+03 0.  0.
         25    1    4    4    0    0 -0.64706565990E+02 -0.81204027518E+01 -0.29499329283E+03  0.32698842722E+03  0.12509000000E+03 0.  0.
         25    1    3    3    0    0  0.53813879268E+02  0.46533685862E+02 -0.91716741254E+02  0.17064813579E+03  0.12509000000E+03 0.  0.
         25    1    4    4    0    0  0.10892686722E+02 -0.38413283110E+02 -0.25969103695E+03  0.29100029848E+03  0.12509000000E+03 0.  0.
<mgrwt>
<rscale>  2 0.45178950E+03</rscale>
<asrwt>0</asrwt>
<pdfrwt beam="1">  1       21 0.10458513E-01 0.45178950E+03</pdfrwt>
<pdfrwt beam="2">  1       21 0.10551750E+00 0.45178950E+03</pdfrwt>
<totfact> 0.49556324E+04</totfact>
</mgrwt>
</event>
<event>
 7    0  0.4748297E-002  0.4519607E+03  0.7546771E-02  0.1027139E+00
         21   -1    0    0  502  501  0.00000000000E+00  0.00000000000E+00  0.25957535798E+02  0.25957535798E+02  0.00000000000E+00 0.  1.
         21   -1    0    0  501  502 -0.00000000000E+00 -0.00000000000E+00 -0.19673332393E+04  0.19673332393E+04  0.00000000000E+00 0.  1.
      99926    2    1    2    0    0  0.14210854715E-13  0.00000000000E+00 -0.19413757035E+04  0.19932907751E+04  0.45196071947E+03 0.  0.
      99925    2    3    3    0    0  0.73310211929E+02 -0.81843242027E+02 -0.11786701866E+04  0.12126244463E+04  0.26291050824E+03 0.  0.
         25    1    3    3    0    0 -0.73310211929E+02  0.81843242027E+02 -0.76270551683E+03  0.78066632882E+03  0.12509000000E+03 0.  0.
         25    1    4    4    0    0  0.26680886947E+02 -0.17587989417E+01 -0.59094488861E+03  0.60463074068E+03  0.12509000000E+03 0.  0.
         25    1    4    4    0    0  0.46629324982E+02 -0.80084443085E+02 -0.58772529803E+03  0.60799370557E+03  0.12509000000E+03 0.  0.
<mgrwt>
<rscale>  2 0.45196072E+03</rscale>
<asrwt>0</asrwt>
<pdfrwt beam="1">  1       21 0.38172852E-02 0.45196072E+03</pdfrwt>
<pdfrwt beam="2">  1       21 0.28931367E+00 0.45196072E+03</pdfrwt>
<totfact> 0.14150428E+04</totfact>
</mgrwt>
</event>
<event>
 7    0  0.4748297E-002  0.4478440E+03  0.7546771E-02  0.1028367E+00
         21   -1    0    0  502  501  0.00000000000E+00  0.00000000000E+00  0.33845770186E+03  0.33845770186E+03  0.00000000000E+00 0. -1.
         21   -1    0    0  501  502 -0.00000000000E+00 -0.00000000000E+00 -0.14814571458E+03  0.14814571458E+03  0.00000000000E+00 0. -1.
      99926    2    1    2    0    0  0.00000000000E+00  0.00000000000E+00  0.19031198728E+03  0.48660341645E+03  0.44784398220E+03 0.  0.
      99925    2    3    3    0    0 -0.61071109081E+02  0.20953651121E+02  0.28790096839E+02  0.27234757626E+03  0.26301254107E+03 0.  0.
         25    1    4    4    0    0 -0.12490557033E+02  0.61195204033E+00 -0.21627774536E+02  0.12756040621E+03  0.12509000000E+03 0.  0.
         25    1    3    3    0    0  0.61071109081E+02 -0.20953651121E+02  0.16152189044E+03  0.21425584018E+03  0.12509000000E+03 0.  0.
         25    1    4    4    0    0 -0.48580552048E+02  0.20341699081E+02  0.50417871374E+02  0.14478717006E+03  0.12509000000E+03 0.  0.
<mgrwt>
<rscale>  2 0.44784398E+03</rscale>
<asrwt>0</asrwt>
<pdfrwt beam="1">  1       21 0.49773191E-01 0.44784398E+03</pdfrwt>
<pdfrwt beam="2">  1       21 0.21786134E-01 0.44784398E+03</pdfrwt>
<totfact> 0.70122192E+04</totfact>
</mgrwt>
</event>
<event>
 7    0  0.4748297E-002  0.4540359E+03  0.7546771E-02  0.1026525E+00
         21   -1    0    0  502  501  0.00000000000E+00  0.00000000000E+00  0.46075226386E+02  0.46075226386E+02  0.00000000000E+00 0. -1.
         21   -1    0    0  501  502 -0.00000000000E+00 -0.00000000000E+00 -0.11185438207E+04  0.11185438207E+04  0.00000000000E+00 0. -1.
      99926    2    1    2    0    0  0.66613381478E-15 -0.14210854715E-13 -0.10724685943E+04  0.11646190471E+04  0.45403594466E+03 0.  0.
      99925    2    3    3    0    0  0.10865191948E+01 -0.11050323042E+03 -0.72662537919E+03  0.78060448746E+03  0.26295775270E+03 0.  0.
         25    1    4    4    0    0  0.83153297094E+01 -0.64603071285E+02 -0.47877440976E+03  0.49911436071E+03  0.12509000000E+03 0.  0.
         25    1    4    4    0    0 -0.72288105146E+01 -0.45900159131E+02 -0.24785096943E+03  0.28149012675E+03  0.12509000000E+03 0.  0.
         25    1    3    3    0    0 -0.10865191948E+01  0.11050323042E+03 -0.34584321511E+03  0.38401455961E+03  0.12509000000E+03 0.  0.
<mgrwt>
<rscale>  2 0.45403594E+03</rscale>
<asrwt>0</asrwt>
<pdfrwt beam="1">  1       21 0.67757685E-02 0.45403594E+03</pdfrwt>
<pdfrwt beam="2">  1       21 0.16449174E+00 0.45403594E+03</pdfrwt>
<totfact> 0.33549330E+04</totfact>
</mgrwt>
</event>
<event>
 7    0  0.4748297E-002  0.4595327E+03  0.7546771E-02  0.1024917E+00
         21   -1    0    0  502  501  0.00000000000E+00  0.00000000000E+00  0.71138615583E+03  0.71138615583E+03  0.00000000000E+00 0.  1.
         21   -1    0    0  501  502 -0.00000000000E+00 -0.00000000000E+00 -0.74210854479E+02  0.74210854479E+02  0.00000000000E+00 0.  1.
      99926    2    1    2    0    0  0.00000000000E+00  0.00000000000E+00  0.63717530135E+03  0.78559701031E+03  0.45953269520E+03 0.  0.
      99925    2    3    3    0    0 -0.56849247718E+02  0.51458318230E+02  0.55134167980E+03  0.61561255758E+03  0.26290944768E+03 0.  0.
         25    1    4    4    0    0 -0.48513344628E+02  0.50015812213E+02  0.35339016521E+03  0.38129679129E+03  0.12509000000E+03 0.  0.
         25    1    3    3    0    0  0.56849247718E+02 -0.51458318230E+02  0.85833621547E+02  0.16998445273E+03  0.12509000000E+03 0.  0.
         25    1    4    4    0    0 -0.83359030901E+01  0.14425060166E+01  0.19795151459E+03  0.23431576629E+03  0.12509000000E+03 0.  0.
<mgrwt>
<rscale>  2 0.45953270E+03</rscale>
<asrwt>0</asrwt>
<pdfrwt beam="1">  1       21 0.10461561E+00 0.45953270E+03</pdfrwt>
<pdfrwt beam="2">  1       21 0.10913361E-01 0.45953270E+03</pdfrwt>
<totfact> 0.46782720E+04</totfact>
</mgrwt>
</event>
<event>
 7    0  0.4748297E-002  0.4438767E+03  0.7546771E-02  0.1029564E+00
         21   -1    0    0  502  501  0.00000000000E+00  0.00000000000E+00  0.38672710444E+03  0.38672710444E+03  0.00000000000E+00 0.  1.
         21   -1    0    0  501  502 -0.00000000000E+00 -0.00000000000E+00 -0.12736795223E+03  0.12736795223E+03  0.00000000000E+00 0.  1.
      99926    2    1    2    0    0  0.00000000000E+00  0.88817841970E-15  0.25935915221E+03  0.51409505667E+03  0.44387673679E+03 0.  0.
      99925    2    3    3    0    0  0.10045603625E+03  0.60619678668E+01  0.14327869538E+03  0.31597806288E+03  0.26303077576E+03 0.  0.
         25    1    4    4    0    0  0.35535106960E+02  0.27256860194E+02  0.10229925858E+03  0.16768520107E+03  0.12509000000E+03 0.  0.
         25    1    4    4    0    0  0.64920929288E+02 -0.21194892327E+02  0.40979436804E+02  0.14829286180E+03  0.12509000000E+03 0.  0.
         25    1    3    3    0    0 -0.10045603625E+03 -0.60619678668E+01  0.11608045683E+03  0.19811699380E+03  0.12509000000E+03 0.  0.
<mgrwt>
<rscale>  2 0.44387674E+03</rscale>
<asrwt>0</asrwt>
<pdfrwt beam="1">  1       21 0.56871633E-01 0.44387674E+03</pdfrwt>
<pdfrwt beam="2">  1       21 0.18730581E-01 0.44387674E+03</pdfrwt>
<totfact> 0.70292582E+04</totfact>
</mgrwt>
</event>
<event>
 7    0  0.4748297E-002  0.4549825E+03  0.7546771E-02  0.1026247E+00
         21   -1    0    0  502  501  0.00000000000E+00  0.00000000000E+00  0.95695179337E+02  0.95695179337E+02  0.00000000000E+00 0. -1.
         21   -1    0    0  501  502 -0.00000000000E+00 -0.00000000000E+00 -0.54080327765E+03  0.54080327765E+03  0.00000000000E+00 0. -1.
      99926    2    1    2    0    0  0.00000000000E+00  0.14210854715E-13 -0.44510809831E+03  0.63649845699E+03  0.45498249039E+03 0.  0.
      99925    2    3    3    0    0 -0.55855065899E+02  0.84714719968E+02 -0.35013616050E+03  0.44951303179E+03  0.26300240054E+03 0.  0.
         25    1    3    3    0    0  0.55855065899E+02 -0.84714719968E+02 -0.94971937818E+02  0.18698542520E+03  0.12509000000E+03 0.  0.
         25    1    4    4    0    0  0.10685483852E+02  0.43027077294E+02 -0.18887574864E+03  0.23083991308E+03  0.12509000000E+03 0.  0.
         25    1    4    4    0    0 -0.66540549751E+02  0.41687642674E+02 -0.16126041186E+03  0.21867311871E+03  0.12509000000E+03 0.  0.
<mgrwt>
<rscale>  2 0.45498249E+03</rscale>
<asrwt>0</asrwt>
<pdfrwt beam="1">  1       21 0.14072821E-01 0.45498249E+03</pdfrwt>
<pdfrwt beam="2">  1       21 0.79529893E-01 0.45498249E+03</pdfrwt>
<totfact> 0.56493900E+04</totfact>
</mgrwt>
</event>
<event>
 7    0  0.4748297E-002  0.4575709E+03  0.7546771E-02  0.1025488E+00
         21   -1    0    0  502  501  0.00000000000E+00  0.00000000000E+00  0.26238767461E+03  0.26238767461E+03  0.00000000000E+00 0. -1.
         21   -1    0    0  501  502 -0.00000000000E+00 -0.00000000000E+00 -0.19948647896E+03  0.19948647896E+03  0.00000000000E+00 0. -1.
      99926    2    1    2    0    0  0.00000000000E+00  0.00000000000E+00  0.62901195650E+02  0.46187415357E+03  0.45757094895E+03 0.  0.
      99925    2    3    3    0    0 -0.66577162991E+02 -0.54410230779E+02 -0.38493157580E+02  0.27933288478E+03  0.26296795526E+03 0.  0.
         25    1    4    4    0    0 -0.24704036994E+02 -0.14578637390E+02 -0.56767882182E+02  0.14033148848E+03  0.12509000000E+03 0.  0.
         25    1    3    3    0    0  0.66577162991E+02  0.54410230779E+02  0.10139435323E+03  0.18254126879E+03  0.12509000000E+03 0.  0.
         25    1    4    4    0    0 -0.41873125996E+02 -0.39831593389E+02  0.18274724603E+02  0.13900139629E+03  0.12509000000E+03 0.  0.
<mgrwt>
<rscale>  2 0.45757095E+03</rscale>
<asrwt>0</asrwt>
<pdfrwt beam="1">  1       21 0.38586423E-01 0.45757095E+03</pdfrwt>
<pdfrwt beam="2">  1       21 0.29336247E-01 0.45757095E+03</pdfrwt>
<totfact> 0.66666829E+04</totfact>
</mgrwt>
</event>
<event>
 7    0  0.4748297E-002  0.4714868E+03  0.7546771E-02  0.1021501E+00
         21   -1    0    0  502  501  0.00000000000E+00  0.00000000000E+00  0.35877842832E+03  0.35877842832E+03  0.00000000000E+00 0. -1.
         21   -1    0    0  501  502 -0.00000000000E+00 -0.00000000000E+00 -0.15490049133E+03  0.15490049133E+03  0.00000000000E+00 0. -1.
      99926    2    1    2    0    0  0.00000000000E+00  0.00000000000E+00  0.20387793698E+03  0.51367891965E+03  0.47148681774E+03 0.  0.
      99925    2    3    3    0    0 -0.89992067426E+02 -0.41454346568E+02  0.38105483100E+02  0.28358100655E+03  0.26296221094E+03 0.  0.
         25    1    4    4    0    0 -0.64937783230E+02 -0.53424512602E+02  0.38012243745E+02  0.15544623833E+03  0.12509000000E+03 0.  0.
         25    1    3    3    0    0  0.89992067426E+02  0.41454346568E+02  0.16577245388E+03  0.23009791311E+03  0.12509000000E+03 0.  0.
         25    1    4    4    0    0 -0.25054284196E+02  0.11970166034E+02  0.93239355563E-01  0.12813476821E+03  0.12509000000E+03 0.  0.
<mgrwt>
<rscale>  2 0.47148682E+03</rscale>
<asrwt>0</asrwt>
<pdfrwt beam="1">  1       21 0.52761533E-01 0.47148682E+03</pdfrwt>
<pdfrwt beam="2">  1       21 0.22779484E-01 0.47148682E+03</pdfrwt>
<totfact> 0.56549542E+04</totfact>
</mgrwt>
</event>
<event>
 7    0  0.4748297E-002  0.4580773E+03  0.7546771E-02  0.1025340E+00
         21   -1    0    0  502  501  0.00000000000E+00  0.00000000000E+00  0.21734997259E+03  0.21734997259E+03  0.00000000000E+00 0.  1.
         21   -1    0    0  501  502 -0.00000000000E+00 -0.00000000000E+00 -0.24135587090E+03  0.24135587090E+03  0.00000000000E+00 0.  1.
      99926    2    1    2    0    0  0.00000000000E+00  0.00000000000E+00 -0.24005898309E+02  0.45870584349E+03  0.45807725079E+03 0.  0.
      99925    2    3    3    0    0 -0.41285312389E+01 -0.23731436657E+02  0.98641390592E+02  0.28187233017E+03  0.26294801905E+03 0.  0.
         25    1    4    4    0    0  0.99264543013E+01 -0.50310432067E+02  0.45013901844E+02  0.14249011730E+03  0.12509000000E+03 0.  0.
         25    1    4    4    0    0 -0.14054985540E+02  0.26578995410E+02  0.53627488748E+02  0.13938221287E+03  0.12509000000E+03 0.  0.
         25    1    3    3    0    0  0.41285312389E+01  0.23731436657E+02 -0.12264728890E+03  0.17683351331E+03  0.12509000000E+03 0.  0.
<mgrwt>
<rscale>  2 0.45807725E+03</rscale>
<asrwt>0</asrwt>
<pdfrwt beam="1">  1       21 0.31963231E-01 0.45807725E+03</pdfrwt>
<pdfrwt beam="2">  1       21 0.35493510E-01 0.45807725E+03</pdfrwt>
<totfact> 0.66624274E+04</totfact>
</mgrwt>
</event>
<event>
 7    0  0.4748297E-002  0.4519257E+03  0.7546771E-02  0.1027149E+00
         21   -1    0    0  502  501  0.00000000000E+00  0.00000000000E+00  0.13927129069E+03  0.13927129069E+03  0.00000000000E+00 0.  1.
         21   -1    0    0  501  502 -0.00000000000E+00 -0.00000000000E+00 -0.36661697687E+03  0.36661697687E+03  0.00000000000E+00 0.  1.
      99926    2    1    2    0    0  0.00000000000E+00 -0.17763568394E-14 -0.22734568618E+03  0.50588826755E+03  0.45192574415E+03 0.  0.
      99925    2    3    3    0    0 -0.96899159909E+02  0.78317096131E+01 -0.19942055256E+03  0.34502153993E+03  0.26423573447E+03 0.  0.
         25    1    4    4    0    0 -0.75992844937E+02 -0.20928427901E+02 -0.13358148597E+03  0.19925971261E+03  0.12509000000E+03 0.  0.
         25    1    4    4    0    0 -0.20906314972E+02  0.28760137514E+02 -0.65839066584E+02  0.14576182732E+03  0.12509000000E+03 0.  0.
         25    1    3    3    0    0  0.96899159909E+02 -0.78317096131E+01 -0.27925133624E+02  0.16086672762E+03  0.12509000000E+03 0.  0.
<mgrwt>
<rscale>  2 0.45192574E+03</rscale>
<asrwt>0</asrwt>
<pdfrwt beam="1">  1       21 0.20481072E-01 0.45192574E+03</pdfrwt>
<pdfrwt beam="2">  1       21 0.53914260E-01 0.45192574E+03</pdfrwt>
<totfact> 0.66465946E+04</totfact>
</mgrwt>
</event>
<event>
 7    0  0.4748297E-002  0.4531299E+03  0.7546771E-02  0.1026793E+00
         21   -1    0    0  502  501  0.00000000000E+00  0.00000000000E+00  0.40080483048E+02  0.40080483048E+02  0.00000000000E+00 0.  1.
         21   -1    0    0  501  502 -0.00000000000E+00 -0.00000000000E+00 -0.12807148609E+04  0.12807148609E+04  0.00000000000E+00 0.  1.
      99926    2    1    2    0    0 -0.17763568394E-14  0.00000000000E+00 -0.12406343779E+04  0.13207953440E+04  0.45312987221E+03 0.  0.
      99925    2    3    3    0    0 -0.11419461505E+02 -0.73440833208E+02 -0.54021402771E+03  0.60542122149E+03  0.26302034069E+03 0.  0.
         25    1    4    4    0    0  0.30881727596E+02 -0.54507863041E+02 -0.28014155217E+03  0.31313189806E+03  0.12509000000E+03 0.  0.
         25    1    4    4    0    0 -0.42301189101E+02 -0.18932970168E+02 -0.26007247554E+03  0.29228932344E+03  0.12509000000E+03 0.  0.
         25    1    3    3    0    0  0.11419461505E+02  0.73440833208E+02 -0.70042035018E+03  0.71537412249E+03  0.12509000000E+03 0.  0.
<mgrwt>
<rscale>  2 0.45312987E+03</rscale>
<asrwt>0</asrwt>
<pdfrwt beam="1">  1       21 0.58941897E-02 0.45312987E+03</pdfrwt>
<pdfrwt beam="2">  1       21 0.18834039E+00 0.45312987E+03</pdfrwt>
<totfact> 0.28935202E+04</totfact>
</mgrwt>
</event>
<event>
 7    0  0.4748297E-002  0.4552279E+03  0.7546771E-02  0.1026174E+00
         21   -1    0    0  502  501  0.00000000000E+00  0.00000000000E+00  0.80187976768E+02  0.80187976768E+02  0.00000000000E+00 0.  1.
         21   -1    0    0  501  502 -0.00000000000E+00 -0.00000000000E+00 -0.64608330630E+03  0.64608330630E+03  0.00000000000E+00 0.  1.
      99926    2    1    2    0    0  0.00000000000E+00 -0.88817841970E-15 -0.56589532954E+03  0.72627128307E+03  0.45522791284E+03 0.  0.
      99925    2    3    3    0    0  0.62720101795E+02  0.60678172109E+01 -0.20555311659E+03  0.33966470254E+03  0.26296272900E+03 0.  0.
         25    1    3    3    0    0 -0.62720101795E+02 -0.60678172109E+01 -0.36034221295E+03  0.38660658053E+03  0.12509000000E+03 0.  0.
         25    1    4    4    0    0  0.55044040287E+01  0.12168745714E+02 -0.60243872013E+02  0.13948193091E+03  0.12509000000E+03 0.  0.
         25    1    4    4    0    0  0.57215697767E+02 -0.61009285035E+01 -0.14530924457E+03  0.20018277163E+03  0.12509000000E+03 0.  0.
<mgrwt>
<rscale>  2 0.45522791E+03</rscale>
<asrwt>0</asrwt>
<pdfrwt beam="1">  1       21 0.11792349E-01 0.45522791E+03</pdfrwt>
<pdfrwt beam="2">  1       21 0.95012253E-01 0.45522791E+03</pdfrwt>
<totfact> 0.51407538E+04</totfact>
</mgrwt>
</event>
<event>
 7    0  0.4748297E-002  0.4560479E+03  0.7546771E-02  0.1025934E+00
         21   -1    0    0  502  501  0.00000000000E+00  0.00000000000E+00  0.33333209847E+03  0.33333209847E+03  0.00000000000E+00 0. -1.
         21   -1    0    0  501  502 -0.00000000000E+00 -0.00000000000E+00 -0.15598531267E+03  0.15598531267E+03  0.00000000000E+00 0. -1.
      99926    2    1    2    0    0  0.00000000000E+00  0.00000000000E+00  0.17734678580E+03  0.48931741115E+03  0.45604785540E+03 0.  0.
      99925    2    3    3    0    0 -0.10219900291E+02  0.16056134264E+02 -0.92442534558E+01  0.26387125385E+03  0.26302155155E+03 0.  0.
         25    1    3    3    0    0  0.10219900291E+02 -0.16056134264E+02  0.18659103925E+03  0.22544615729E+03  0.12509000000E+03 0.  0.
         25    1    4    4    0    0  0.17380071204E+02 -0.64328584809E+01  0.26047723644E+02  0.12911018763E+03  0.12509000000E+03 0.  0.
         25    1    4    4    0    0 -0.27599971495E+02  0.22488992745E+02 -0.35291977100E+02  0.13476106622E+03  0.12509000000E+03 0.  0.
<mgrwt>
<rscale>  2 0.45604786E+03</rscale>
<asrwt>0</asrwt>
<pdfrwt beam="1">  1       21 0.49019426E-01 0.45604786E+03</pdfrwt>
<pdfrwt beam="2">  1       21 0.22939017E-01 0.45604786E+03</pdfrwt>
<totfact> 0.65481452E+04</totfact>
</mgrwt>
</event>
<event>
 7    0  0.4748297E-002  0.4463292E+03  0.7546771E-02  0.1028822E+00
         21   -1    0    0  502  501  0.00000000000E+00  0.00000000000E+00  0.14065607175E+03  0.14065607175E+03  0.00000000000E+00 0. -1.
         21   -1    0    0  501  502 -0.00000000000E+00 -0.00000000000E+00 -0.35407246910E+03  0.35407246910E+03  0.00000000000E+00 0. -1.
      99926    2    1    2    0    0 -0.11102230246E-14  0.00000000000E+00 -0.21341639735E+03  0.49472854085E+03  0.44632921758E+03 0.  0.
      99925    2    3    3    0    0 -0.28650910624E+00 -0.44895166037E+02 -0.30652276637E+02  0.26875090934E+03  0.26319542395E+03 0.  0.
         25    1    4    4    0    0 -0.14507974466E+02  0.48412862904E+01 -0.42188957255E+02  0.13289595777E+03  0.12509000000E+03 0.  0.
         25    1    4    4    0    0  0.14221465360E+02 -0.49736452328E+02  0.11536680617E+02  0.13585495157E+03  0.12509000000E+03 0.  0.
         25    1    3    3    0    0  0.28650910624E+00  0.44895166037E+02 -0.18276412072E+03  0.22597763151E+03  0.12509000000E+03 0.  0.
<mgrwt>
<rscale>  2 0.44632922E+03</rscale>
<asrwt>0</asrwt>
<pdfrwt beam="1">  1       21 0.20684717E-01 0.44632922E+03</pdfrwt>
<pdfrwt beam="2">  1       21 0.52069480E-01 0.44632922E+03</pdfrwt>
<totfact> 0.70362296E+04</totfact>
</mgrwt>
</event>
<event>
 7    0  0.4748297E-002  0.4437744E+03  0.7546771E-02  0.1029595E+00
         21   -1    0    0  502  501  0.00000000000E+00  0.00000000000E+00  0.33408630845E+03  0.33408630845E+03  0.00000000000E+00 0. -1.
         21   -1    0    0  501  502 -0.00000000000E+00 -0.00000000000E+00 -0.14736890110E+03  0.14736890110E+03  0.00000000000E+00 0. -1.
      99926    2    1    2    0    0  0.14210854715E-13  0.00000000000E+00  0.18671740735E+03  0.48145520955E+03  0.44377441183E+03 0.  0.
      99925    2    3    3    0    0 -0.92540408009E+02 -0.41861392056E+02  0.13341008455E+03  0.31173402047E+03  0.26279982039E+03 0.  0.
         25    1    4    4    0    0 -0.12573164246E+02 -0.39555669154E+02  0.78614449844E+02  0.15346164096E+03  0.12509000000E+03 0.  0.
         25    1    3    3    0    0  0.92540408009E+02  0.41861392056E+02  0.53307322797E+02  0.16972118908E+03  0.12509000000E+03 0.  0.
         25    1    4    4    0    0 -0.79967243763E+02 -0.23057229028E+01  0.54795634709E+02  0.15827237951E+03  0.12509000000E+03 0.  0.
<mgrwt>
<rscale>  2 0.44377441E+03</rscale>
<asrwt>0</asrwt>
<pdfrwt beam="1">  1       21 0.49130339E-01 0.44377441E+03</pdfrwt>
<pdfrwt beam="2">  1       21 0.21671897E-01 0.44377441E+03</pdfrwt>
<totfact> 0.72875260E+04</totfact>
</mgrwt>
</event>
<event>
 7    0  0.4748297E-002  0.4115877E+03  0.7546771E-02  0.1039840E+00
         21   -1    0    0  502  501  0.00000000000E+00  0.00000000000E+00  0.32549483890E+03  0.32549483890E+03  0.00000000000E+00 0. -1.
         21   -1    0    0  501  502 -0.00000000000E+00 -0.00000000000E+00 -0.13011297938E+03  0.13011297938E+03  0.00000000000E+00 0. -1.
      99926    2    1    2    0    0  0.35527136788E-14  0.00000000000E+00  0.19538185952E+03  0.45560781828E+03  0.41158767358E+03 0.  0.
      99925    2    3    3    0    0  0.23934272257E+02 -0.92825654217E+01  0.63326987542E+02  0.27190966172E+03  0.26318347474E+03 0.  0.
         25    1    4    4    0    0 -0.24613621160E+02 -0.16299897484E+01  0.12071639842E+02  0.12806919927E+03  0.12509000000E+03 0.  0.
         25    1    3    3    0    0 -0.23934272257E+02  0.92825654217E+01  0.13205487198E+03  0.18369815656E+03  0.12509000000E+03 0.  0.
         25    1    4    4    0    0  0.48547893417E+02 -0.76525756734E+01  0.51255347700E+02  0.14384046245E+03  0.12509000000E+03 0.  0.
<mgrwt>
<rscale>  2 0.41158767E+03</rscale>
<asrwt>0</asrwt>
<pdfrwt beam="1">  1       21 0.47866888E-01 0.41158767E+03</pdfrwt>
<pdfrwt beam="2">  1       21 0.19134262E-01 0.41158767E+03</pdfrwt>
<totfact> 0.98256975E+04</totfact>
</mgrwt>
</event>
<event>
 7    0  0.4748297E-002  0.4490770E+03  0.7546771E-02  0.1027998E+00
         21   -1    0    0  502  501  0.00000000000E+00  0.00000000000E+00  0.30592501569E+02  0.30592501569E+02  0.00000000000E+00 0.  1.
         21   -1    0    0  501  502 -0.00000000000E+00 -0.00000000000E+00 -0.16480359441E+04  0.16480359441E+04  0.00000000000E+00 0.  1.
      99926    2    1    2    0    0 -0.14210854715E-13  0.00000000000E+00 -0.16174434426E+04  0.16786284457E+04  0.44907701881E+03 0.  0.
      99925    2    3    3    0    0  0.80867969375E+02 -0.50025557466E+02 -0.12101900488E+04  0.12421138186E+04  0.26314368544E+03 0.  0.
         25    1    4    4    0    0  0.61866622166E+02 -0.54237182856E+02 -0.55716334515E+03  0.57692950369E+03  0.12509000000E+03 0.  0.
         25    1    4    4    0    0  0.19001347209E+02  0.42116253898E+01 -0.65302670369E+03  0.66518431492E+03  0.12509000000E+03 0.  0.
         25    1    3    3    0    0 -0.80867969375E+02  0.50025557466E+02 -0.40725339373E+03  0.43651462711E+03  0.12509000000E+03 0.  0.
<mgrwt>
<rscale>  2 0.44907702E+03</rscale>
<asrwt>0</asrwt>
<pdfrwt beam="1">  1       21 0.44988960E-02 0.44907702E+03</pdfrwt>
<pdfrwt beam="2">  1       21 0.24235830E+00 0.44907702E+03</pdfrwt>
<totfact> 0.20643098E+04</totfact>
</mgrwt>
</event>
<event>
 7    0  0.4748297E-002  0.4551015E+03  0.7546771E-02  0.1026212E+00
         21   -1    0    0  502  501  0.00000000000E+00  0.00000000000E+00  0.32355531664E+03  0.32355531664E+03  0.00000000000E+00 0. -1.
         21   -1    0    0  501  502 -0.00000000000E+00 -0.00000000000E+00 -0.16003243199E+03  0.16003243199E+03  0.00000000000E+00 0. -1.
      99926    2    1    2    0    0  0.00000000000E+00 -0.14210854715E-13  0.16352288465E+03  0.48358774863E+03  0.45510150167E+03 0.  0.
      99925    2    3    3    0    0  0.36808705711E+02  0.95509768428E+02  0.51153647992E+02  0.28673412248E+03  0.26291208533E+03 0.  0.
         25    1    3    3    0    0 -0.36808705711E+02 -0.95509768428E+02  0.11236923665E+03  0.19685362615E+03  0.12509000000E+03 0.  0.
         25    1    4    4    0    0  0.25871431907E+02  0.44694806598E+02  0.65810046381E+02  0.15048397599E+03  0.12509000000E+03 0.  0.
         25    1    4    4    0    0  0.10937273804E+02  0.50814961831E+02 -0.14656398389E+02  0.13625014649E+03  0.12509000000E+03 0.  0.
<mgrwt>
<rscale>  2 0.45510150E+03</rscale>
<asrwt>0</asrwt>
<pdfrwt beam="1">  1       21 0.47581664E-01 0.45510150E+03</pdfrwt>
<pdfrwt beam="2">  1       21 0.23534181E-01 0.45510150E+03</pdfrwt>
<totfact> 0.66386349E+04</totfact>
</mgrwt>
</event>
<event>
 7    0  0.4748297E-002  0.4565553E+03  0.7546771E-02  0.1025785E+00
         21   -1    0    0  502  501  0.00000000000E+00  0.00000000000E+00  0.97281511572E+02  0.97281511572E+02  0.00000000000E+00 0. -1.
         21   -1    0    0  501  502 -0.00000000000E+00 -0.00000000000E+00 -0.53566894351E+03  0.53566894351E+03  0.00000000000E+00 0. -1.
      99926    2    1    2    0    0  0.00000000000E+00 -0.71054273576E-14 -0.43838743194E+03  0.63295045508E+03  0.45655529578E+03 0.  0.
      99925    2    3    3    0    0 -0.72035778798E+02  0.45051899327E+02 -0.38248604856E+03  0.47173228048E+03  0.26271075357E+03 0.  0.
         25    1    3    3    0    0  0.72035778798E+02 -0.45051899327E+02 -0.55901383380E+02  0.16121817461E+03  0.12509000000E+03 0.  0.
         25    1    4    4    0    0 -0.35792228970E+02  0.61996348806E+02 -0.21624499173E+03  0.25987311417E+03  0.12509000000E+03 0.  0.
         25    1    4    4    0    0 -0.36243549829E+02 -0.16944449479E+02 -0.16624105683E+03  0.21185916631E+03  0.12509000000E+03 0.  0.
<mgrwt>
<rscale>  2 0.45655530E+03</rscale>
<asrwt>0</asrwt>
<pdfrwt beam="1">  1       21 0.14306105E-01 0.45655530E+03</pdfrwt>
<pdfrwt beam="2">  1       21 0.78774845E-01 0.45655530E+03</pdfrwt>
<totfact> 0.56003853E+04</totfact>
</mgrwt>
</event>
<event>
 7    0  0.4748297E-002  0.4545298E+03  0.7546771E-02  0.1026380E+00
         21   -1    0    0  502  501  0.00000000000E+00  0.00000000000E+00  0.21591853772E+03  0.21591853772E+03  0.00000000000E+00 0.  1.
         21   -1    0    0  501  502 -0.00000000000E+00 -0.00000000000E+00 -0.23920746633E+03  0.23920746633E+03  0.00000000000E+00 0.  1.
      99926    2    1    2    0    0  0.00000000000E+00  0.00000000000E+00 -0.23288928607E+02  0.45512600406E+03  0.45452976291E+03 0.  0.
      99925    2    3    3    0    0  0.10925194592E+03  0.74021260405E+00 -0.38807684529E+02  0.28831810410E+03  0.26397870590E+03 0.  0.
         25    1    4    4    0    0  0.99572136669E+02 -0.15508558782E+00 -0.28775306084E+02  0.16245048720E+03  0.12509000000E+03 0.  0.
         25    1    4    4    0    0  0.96798092526E+01  0.89529819187E+00 -0.10032378444E+02  0.12586761690E+03  0.12509000000E+03 0.  0.
         25    1    3    3    0    0 -0.10925194592E+03 -0.74021260405E+00  0.15518755921E+02  0.16680789996E+03  0.12509000000E+03 0.  0.
<mgrwt>
<rscale>  2 0.45452976E+03</rscale>
<asrwt>0</asrwt>
<pdfrwt beam="1">  1       21 0.31752726E-01 0.45452976E+03</pdfrwt>
<pdfrwt beam="2">  1       21 0.35177568E-01 0.45452976E+03</pdfrwt>
<totfact> 0.68794342E+04</totfact>
</mgrwt>
</event>
<event>
 7    0  0.4748297E-002  0.4565003E+03  0.7546771E-02  0.1025801E+00
         21   -1    0    0  502  501  0.00000000000E+00  0.00000000000E+00  0.13324145414E+04  0.13324145414E+04  0.00000000000E+00 0. -1.
         21   -1    0    0  501  502 -0.00000000000E+00 -0.00000000000E+00 -0.39100542854E+02  0.39100542854E+02  0.00000000000E+00 0. -1.
      99926    2    1    2    0    0  0.00000000000E+00  0.00000000000E+00  0.12933139986E+04  0.13715150843E+04  0.45650030395E+03 0.  0.
      99925    2    3    3    0    0  0.80767510587E+02 -0.27074140229E+02  0.10426147963E+04  0.10786772487E+04  0.26313987447E+03 0.  0.
         25    1    4    4    0    0  0.49279417469E+02 -0.16801965380E+02  0.37719165918E+03  0.40078900045E+03  0.12509000000E+03 0.  0.
         25    1    3    3    0    0 -0.80767510587E+02  0.27074140229E+02  0.25069920228E+03  0.29283783560E+03  0.12509000000E+03 0.  0.
         25    1    4    4    0    0  0.31488093118E+02 -0.10272174849E+02  0.66542313709E+03  0.67788824821E+03  0.12509000000E+03 0.  0.
<mgrwt>
<rscale>  2 0.45650030E+03</rscale>
<asrwt>0</asrwt>
<pdfrwt beam="1">  1       21 0.19594329E+00 0.45650030E+03</pdfrwt>
<pdfrwt beam="2">  1       21 0.57500807E-02 0.45650030E+03</pdfrwt>
<totfact> 0.26787350E+04</totfact>
</mgrwt>
</event>
<event>
 7    0  0.4748297E-002  0.4616620E+03  0.7546771E-02  0.1024300E+00
         21   -1    0    0  502  501  0.00000000000E+00  0.00000000000E+00  0.44809147295E+02  0.44809147295E+02  0.00000000000E+00 0. -1.
         21   -1    0    0  501  502 -0.00000000000E+00 -0.00000000000E+00 -0.11891088693E+04  0.11891088693E+04  0.00000000000E+00 0. -1.
      99926    2    1    2    0    0  0.00000000000E+00  0.14210854715E-13 -0.11442997220E+04  0.12339180166E+04  0.46166201695E+03 0.  0.
      99925    2    3    3    0    0 -0.66763660328E+02  0.91839106386E+02 -0.61781372103E+03  0.68099232075E+03  0.26299227978E+03 0.  0.
         25    1    4    4    0    0 -0.97608758861E+01  0.79274549162E+02 -0.31920161475E+03  0.35201833447E+03  0.12509000000E+03 0.  0.
         25    1    4    4    0    0 -0.57002784442E+02  0.12564557224E+02 -0.29861210628E+03  0.32897398628E+03  0.12509000000E+03 0.  0.
         25    1    3    3    0    0  0.66763660328E+02 -0.91839106386E+02 -0.52648600095E+03  0.55292569582E+03  0.12509000000E+03 0.  0.
<mgrwt>
<rscale>  2 0.46166202E+03</rscale>
<asrwt>0</asrwt>
<pdfrwt beam="1">  1       21 0.65895812E-02 0.46166202E+03</pdfrwt>
<pdfrwt beam="2">  1       21 0.17486893E+00 0.46166202E+03</pdfrwt>
<totfact> 0.29534010E+04</totfact>
</mgrwt>
</event>
<event>
 7    0  0.4748297E-002  0.4558817E+03  0.7546771E-02  0.1025982E+00
         21   -1    0    0  502  501  0.00000000000E+00  0.00000000000E+00  0.70229395425E+03  0.70229395425E+03  0.00000000000E+00 0. -1.
         21   -1    0    0  501  502 -0.00000000000E+00 -0.00000000000E+00 -0.73981893549E+02  0.73981893549E+02  0.00000000000E+00 0. -1.
      99926    2    1    2    0    0  0.00000000000E+00  0.00000000000E+00  0.62831206070E+03  0.77627584780E+03  0.45588172398E+03 0.  0.
      99925    2    3    3    0    0 -0.17454815897E+02 -0.92328991333E+02  0.50484387431E+03  0.57697403048E+03  0.26306345465E+03 0.  0.
         25    1    4    4    0    0 -0.48878276849E+02 -0.54364890834E+02  0.25980017797E+03  0.29746977641E+03  0.12509000000E+03 0.  0.
         25    1    3    3    0    0  0.17454815897E+02  0.92328991333E+02  0.12346818639E+03  0.19930181733E+03  0.12509000000E+03 0.  0.
         25    1    4    4    0    0  0.31423460951E+02 -0.37964100498E+02  0.24504369635E+03  0.27950425407E+03  0.12509000000E+03 0.  0.
<mgrwt>
<rscale>  2 0.45588172E+03</rscale>
<asrwt>0</asrwt>
<pdfrwt beam="1">  1       21 0.10327852E+00 0.45588172E+03</pdfrwt>
<pdfrwt beam="2">  1       21 0.10879691E-01 0.45588172E+03</pdfrwt>
<totfact> 0.48596537E+04</totfact>
</mgrwt>
</event>
<event>
 7    0  0.4748297E-002  0.4525259E+03  0.7546771E-02  0.1026971E+00
         21   -1    0    0  502  501  0.00000000000E+00  0.00000000000E+00  0.90169235608E+02  0.90169235608E+02  0.00000000000E+00 0. -1.
         21   -1    0    0  501  502 -0.00000000000E+00 -0.00000000000E+00 -0.56776474840E+03  0.56776474840E+03  0.00000000000E+00 0. -1.
      99926    2    1    2    0    0  0.00000000000E+00  0.00000000000E+00 -0.47759551279E+03  0.65793398401E+03  0.45252585945E+03 0.  0.
      99925    2    3    3    0    0 -0.82918259014E+02  0.51650609743E+02 -0.37728803961E+03  0.47017797095E+03  0.26301679864E+03 0.  0.
         25    1    3    3    0    0  0.82918259014E+02 -0.51650609743E+02 -0.10030747318E+03  0.18775601306E+03  0.12509000000E+03 0.  0.
         25    1    4    4    0    0  0.57283655045E+00  0.24968920441E+02 -0.18202777661E+03  0.22227324330E+03  0.12509000000E+03 0.  0.
         25    1    4    4    0    0 -0.83491095565E+02  0.26681689302E+02 -0.19526026300E+03  0.24790472765E+03  0.12509000000E+03 0.  0.
<mgrwt>
<rscale>  2 0.45252586E+03</rscale>
<asrwt>0</asrwt>
<pdfrwt beam="1">  1       21 0.13260181E-01 0.45252586E+03</pdfrwt>
<pdfrwt beam="2">  1       21 0.83494818E-01 0.45252586E+03</pdfrwt>
<totfact> 0.56337696E+04</totfact>
</mgrwt>
</event>
<event>
 7    0  0.4748297E-002  0.4547940E+03  0.7546771E-02  0.1026302E+00
         21   -1    0    0  502  501  0.00000000000E+00  0.00000000000E+00  0.39325488833E+02  0.39325488833E+02  0.00000000000E+00 0. -1.
         21   -1    0    0  501  502 -0.00000000000E+00 -0.00000000000E+00 -0.13149080569E+04  0.13149080569E+04  0.00000000000E+00 0. -1.
      99926    2    1    2    0    0 -0.17763568394E-14  0.00000000000E+00 -0.12755825680E+04  0.13542335457E+04  0.45479402857E+03 0.  0.
      99925    2    3    3    0    0 -0.11364332912E+02  0.43712513712E+02 -0.11111076226E+04  0.11427165306E+04  0.26306080722E+03 0.  0.
         25    1    3    3    0    0  0.11364332912E+02 -0.43712513712E+02 -0.16447494542E+03  0.21151701513E+03  0.12509000000E+03 0.  0.
         25    1    4    4    0    0  0.16156465514E+02 -0.59660726301E+01 -0.44374748153E+03  0.46136315508E+03  0.12509000000E+03 0.  0.
         25    1    4    4    0    0 -0.27520798425E+02  0.49678586343E+02 -0.66736014107E+03  0.68135337548E+03  0.12509000000E+03 0.  0.
<mgrwt>
<rscale>  2 0.45479403E+03</rscale>
<asrwt>0</asrwt>
<pdfrwt beam="1">  1       21 0.57831605E-02 0.45479403E+03</pdfrwt>
<pdfrwt beam="2">  1       21 0.19336882E+00 0.45479403E+03</pdfrwt>
<totfact> 0.27621726E+04</totfact>
</mgrwt>
</event>
<event>
 7    0  0.4748297E-002  0.4560301E+03  0.7546771E-02  0.1025939E+00
         21   -1    0    0  502  501  0.00000000000E+00  0.00000000000E+00  0.30641279163E+03  0.30641279163E+03  0.00000000000E+00 0. -1.
         21   -1    0    0  501  502 -0.00000000000E+00 -0.00000000000E+00 -0.16967589889E+03  0.16967589889E+03  0.00000000000E+00 0. -1.
      99926    2    1    2    0    0 -0.26645352591E-14  0.14210854715E-13  0.13673689274E+03  0.47608869052E+03  0.45603011239E+03 0.  0.
      99925    2    3    3    0    0  0.62602182041E+01 -0.10759745597E+03  0.46953306498E+02  0.28813922040E+03  0.26306500048E+03 0.  0.
         25    1    4    4    0    0 -0.19253129710E+02 -0.81377413833E+02  0.26695861301E+01  0.15049120000E+03  0.12509000000E+03 0.  0.
         25    1    3    3    0    0 -0.62602182041E+01  0.10759745597E+03  0.89783586241E+02  0.18794947013E+03  0.12509000000E+03 0.  0.
         25    1    4    4    0    0  0.25513347914E+02 -0.26220042132E+02  0.44283720368E+02  0.13764802040E+03  0.12509000000E+03 0.  0.
<mgrwt>
<rscale>  2 0.45603011E+03</rscale>
<asrwt>0</asrwt>
<pdfrwt beam="1">  1       21 0.45060705E-01 0.45603011E+03</pdfrwt>
<pdfrwt beam="2">  1       21 0.24952338E-01 0.45603011E+03</pdfrwt>
<totfact> 0.66441118E+04</totfact>
</mgrwt>
</event>
<event>
 7    0  0.4748297E-002  0.4569936E+03  0.7546771E-02  0.1025657E+00
         21   -1    0    0  502  501  0.00000000000E+00  0.00000000000E+00  0.11421508094E+03  0.11421508094E+03  0.00000000000E+00 0.  1.
         21   -1    0    0  501  502 -0.00000000000E+00 -0.00000000000E+00 -0.45712692962E+03  0.45712692962E+03  0.00000000000E+00 0.  1.
      99926    2    1    2    0    0  0.00000000000E+00  0.00000000000E+00 -0.34291184867E+03  0.57134201056E+03  0.45699360725E+03 0.  0.
      99925    2    3    3    0    0 -0.32675872991E+00 -0.10806563610E+03 -0.16552985981E+03  0.32887517458E+03  0.26283161433E+03 0.  0.
         25    1    3    3    0    0  0.32675872991E+00  0.10806563610E+03 -0.17738198886E+03  0.24246683598E+03  0.12509000000E+03 0.  0.
         25    1    4    4    0    0 -0.32025806864E+02 -0.53350168634E+02 -0.54123438731E+02  0.14982906100E+03  0.12509000000E+03 0.  0.
         25    1    4    4    0    0  0.31699048134E+02 -0.54715467464E+02 -0.11140642108E+03  0.17904611359E+03  0.12509000000E+03 0.  0.
<mgrwt>
<rscale>  2 0.45699361E+03</rscale>
<asrwt>0</asrwt>
<pdfrwt beam="1">  1       21 0.16796336E-01 0.45699361E+03</pdfrwt>
<pdfrwt beam="2">  1       21 0.67224547E-01 0.45699361E+03</pdfrwt>
<totfact> 0.59533761E+04</totfact>
</mgrwt>
</event>
<event>
 7    0  0.4748297E-002  0.4492779E+03  0.7546771E-02  0.1027938E+00
         21   -1    0    0  502  501  0.00000000000E+00  0.00000000000E+00  0.63189461049E+03  0.63189461049E+03  0.00000000000E+00 0.  1.
         21   -1    0    0  501  502 -0.00000000000E+00 -0.00000000000E+00 -0.79859293294E+02  0.79859293294E+02  0.00000000000E+00 0.  1.
      99926    2    1    2    0    0  0.00000000000E+00  0.00000000000E+00  0.55203531719E+03  0.71175390378E+03  0.44927789632E+03 0.  0.
      99925    2    3    3    0    0  0.69521289872E+02  0.72224735454E+02  0.41146070168E+03  0.49854425864E+03  0.26305293504E+03 0.  0.
         25    1    4    4    0    0  0.36664814071E+02  0.49753197184E+02  0.14345349283E+03  0.20011522162E+03  0.12509000000E+03 0.  0.
         25    1    3    3    0    0 -0.69521289872E+02 -0.72224735454E+02  0.14057461551E+03  0.21320964514E+03  0.12509000000E+03 0.  0.
         25    1    4    4    0    0  0.32856475801E+02  0.22471538270E+02  0.26800720885E+03  0.29842903701E+03  0.12509000000E+03 0.  0.
<mgrwt>
<rscale>  2 0.44927790E+03</rscale>
<asrwt>0</asrwt>
<pdfrwt beam="1">  1       21 0.92925675E-01 0.44927790E+03</pdfrwt>
<pdfrwt beam="2">  1       21 0.11744014E-01 0.44927790E+03</pdfrwt>
<totfact> 0.54690174E+04</totfact>
</mgrwt>
</event>
<event>
 7    0  0.4748297E-002  0.4493834E+03  0.7546771E-02  0.1027906E+00
         21   -1    0    0  502  501  0.00000000000E+00  0.00000000000E+00  0.14555811667E+03  0.14555811667E+03  0.00000000000E+00 0.  1.
         21   -1    0    0  501  502 -0.00000000000E+00 -0.00000000000E+00 -0.34684678181E+03  0.34684678181E+03  0.00000000000E+00 0.  1.
      99926    2    1    2    0    0  0.17763568394E-14  0.00000000000E+00 -0.20128866514E+03  0.49240489847E+03  0.44938341906E+03 0.  0.
      99925    2    3    3    0    0 -0.14338303488E+02  0.72721627242E+02 -0.21305169108E+03  0.34652858479E+03  0.26305325504E+03 0.  0.
         25    1    3    3    0    0  0.14338303488E+02 -0.72721627242E+02  0.11763025940E+02  0.14587631369E+03  0.12509000000E+03 0.  0.
         25    1    4    4    0    0 -0.33750511660E+02  0.52344728710E+01 -0.94974426019E+02  0.16073004212E+03  0.12509000000E+03 0.  0.
         25    1    4    4    0    0  0.19412208172E+02  0.67487154371E+02 -0.11807726506E+03  0.18579854266E+03  0.12509000000E+03 0.  0.
<mgrwt>
<rscale>  2 0.44938342E+03</rscale>
<asrwt>0</asrwt>
<pdfrwt beam="1">  1       21 0.21405605E-01 0.44938342E+03</pdfrwt>
<pdfrwt beam="2">  1       21 0.51006880E-01 0.44938342E+03</pdfrwt>
<totfact> 0.68825520E+04</totfact>
</mgrwt>
</event>
<event>
 7    0  0.4748297E-002  0.4675537E+03  0.7546771E-02  0.1022613E+00
         21   -1    0    0  502  501  0.00000000000E+00  0.00000000000E+00  0.34168987731E+03  0.34168987731E+03  0.00000000000E+00 0.  1.
         21   -1    0    0  501  502 -0.00000000000E+00 -0.00000000000E+00 -0.15994510736E+03  0.15994510736E+03  0.00000000000E+00 0.  1.
      99926    2    1    2    0    0 -0.44408920985E-15  0.00000000000E+00  0.18174476994E+03  0.50163498467E+03  0.46755373642E+03 0.  0.
      99925    2    3    3    0    0 -0.33876005862E+01  0.46377781816E+02 -0.10807136791E+02  0.26735711681E+03  0.26306018174E+03 0.  0.
         25    1    4    4    0    0  0.28577232050E+01  0.60160033837E+02  0.11832960110E+02  0.13933744399E+03  0.12509000000E+03 0.  0.
         25    1    3    3    0    0  0.33876005862E+01 -0.46377781816E+02  0.19255190674E+03  0.23427786787E+03  0.12509000000E+03 0.  0.
         25    1    4    4    0    0 -0.62453237912E+01 -0.13782252021E+02 -0.22640096901E+02  0.12801967282E+03  0.12509000000E+03 0.  0.
<mgrwt>
<rscale>  2 0.46755374E+03</rscale>
<asrwt>0</asrwt>
<pdfrwt beam="1">  1       21 0.50248511E-01 0.46755374E+03</pdfrwt>
<pdfrwt beam="2">  1       21 0.23521339E-01 0.46755374E+03</pdfrwt>
<totfact> 0.59048273E+04</totfact>
</mgrwt>
</event>
<event>
 7    0  0.4748297E-002  0.4577074E+03  0.7546771E-02  0.1025448E+00
         21   -1    0    0  502  501  0.00000000000E+00  0.00000000000E+00  0.69825100518E+03  0.69825100518E+03  0.00000000000E+00 0. -1.
         21   -1    0    0  501  502 -0.00000000000E+00 -0.00000000000E+00 -0.75007448259E+02  0.75007448259E+02  0.00000000000E+00 0. -1.
      99926    2    1    2    0    0  0.00000000000E+00  0.88817841970E-15  0.62324355692E+03  0.77325845344E+03  0.45770744430E+03 0.  0.
      99925    2    3    3    0    0  0.51791822708E+02 -0.88757518312E+00  0.21633455139E+03  0.34441625919E+03  0.26294246667E+03 0.  0.
         25    1    3    3    0    0 -0.51791822708E+02  0.88757518312E+00  0.40690900553E+03  0.42884219425E+03  0.12509000000E+03 0.  0.
         25    1    4    4    0    0  0.50981954258E+02  0.20632889522E+02  0.80901575105E+02  0.15880002753E+03  0.12509000000E+03 0.  0.
         25    1    4    4    0    0  0.80986844964E+00 -0.21520464705E+02  0.13543297629E+03  0.18561623166E+03  0.12509000000E+03 0.  0.
<mgrwt>
<rscale>  2 0.45770744E+03</rscale>
<asrwt>0</asrwt>
<pdfrwt beam="1">  1       21 0.10268397E+00 0.45770744E+03</pdfrwt>
<pdfrwt beam="2">  1       21 0.11030507E-01 0.45770744E+03</pdfrwt>
<totfact> 0.48055970E+04</totfact>
</mgrwt>
</event>
<event>
 7    0  0.4748297E-002  0.4592342E+03  0.7546771E-02  0.1025004E+00
         21   -1    0    0  502  501  0.00000000000E+00  0.00000000000E+00  0.60738371769E+02  0.60738371769E+02  0.00000000000E+00 0.  1.
         21   -1    0    0  501  502 -0.00000000000E+00 -0.00000000000E+00 -0.86805096068E+03  0.86805096068E+03  0.00000000000E+00 0.  1.
      99926    2    1    2    0    0  0.00000000000E+00  0.00000000000E+00 -0.80731258891E+03  0.92878933245E+03  0.45923415363E+03 0.  0.
      99925    2    3    3    0    0 -0.97807847303E+02 -0.63528392705E+02 -0.52742955667E+03  0.60078894905E+03  0.26298895866E+03 0.  0.
         25    1    3    3    0    0  0.97807847303E+02  0.63528392705E+02 -0.27988303224E+03  0.32800038339E+03  0.12509000000E+03 0.  0.
         25    1    4    4    0    0 -0.55212487664E+02 -0.39719887274E+01 -0.19561757851E+03  0.23870052495E+03  0.12509000000E+03 0.  0.
         25    1    4    4    0    0 -0.42595359639E+02 -0.59556403977E+02 -0.33181197816E+03  0.36208842410E+03  0.12509000000E+03 0.  0.
<mgrwt>
<rscale>  2 0.45923415E+03</rscale>
<asrwt>0</asrwt>
<pdfrwt beam="1">  1       21 0.89321143E-02 0.45923415E+03</pdfrwt>
<pdfrwt beam="2">  1       21 0.12765454E+00 0.45923415E+03</pdfrwt>
<totfact> 0.40648716E+04</totfact>
</mgrwt>
</event>
<event>
 7    0  0.4748297E-002  0.4586426E+03  0.7546771E-02  0.1025176E+00
         21   -1    0    0  502  501  0.00000000000E+00  0.00000000000E+00  0.82855365810E+02  0.82855365810E+02  0.00000000000E+00 0. -1.
         21   -1    0    0  501  502 -0.00000000000E+00 -0.00000000000E+00 -0.63469962758E+03  0.63469962758E+03  0.00000000000E+00 0. -1.
      99926    2    1    2    0    0  0.00000000000E+00  0.00000000000E+00 -0.55184426177E+03  0.71755499339E+03  0.45864264879E+03 0.  0.
      99925    2    3    3    0    0  0.11109705889E+03 -0.26532511227E+02 -0.38197461152E+03  0.47765973120E+03  0.26307353404E+03 0.  0.
         25    1    4    4    0    0  0.88078162647E+02 -0.18686895216E+02 -0.25369856344E+03  0.29684580506E+03  0.12509000000E+03 0.  0.
         25    1    3    3    0    0 -0.11109705889E+03  0.26532511227E+02 -0.16986965025E+03  0.23989526219E+03  0.12509000000E+03 0.  0.
         25    1    4    4    0    0  0.23018896246E+02 -0.78456160108E+01 -0.12827604808E+03  0.18081392614E+03  0.12509000000E+03 0.  0.
<mgrwt>
<rscale>  2 0.45864265E+03</rscale>
<asrwt>0</asrwt>
<pdfrwt beam="1">  1       21 0.12184613E-01 0.45864265E+03</pdfrwt>
<pdfrwt beam="2">  1       21 0.93338180E-01 0.45864265E+03</pdfrwt>
<totfact> 0.50497641E+04</totfact>
</mgrwt>
</event>
<event>
 7    0  0.4748297E-002  0.4554501E+03  0.7546771E-02  0.1026109E+00
         21   -1    0    0  502  501  0.00000000000E+00  0.00000000000E+00  0.58012441312E+02  0.58012441312E+02  0.00000000000E+00 0. -1.
         21   -1    0    0  501  502 -0.00000000000E+00 -0.00000000000E+00 -0.89392354531E+03  0.89392354531E+03  0.00000000000E+00 0. -1.
      99926    2    1    2    0    0 -0.17763568394E-14  0.00000000000E+00 -0.83591110399E+03  0.95193598662E+03  0.45545005087E+03 0.  0.
      99925    2    3    3    0    0  0.11160235412E+02 -0.66914479175E+02 -0.71779288141E+03  0.76699945430E+03  0.26164755669E+03 0.  0.
         25    1    4    4    0    0 -0.31968419326E+02 -0.40466361595E+02 -0.36759506437E+03  0.39170543232E+03  0.12509000000E+03 0.  0.
         25    1    3    3    0    0 -0.11160235412E+02  0.66914479175E+02 -0.11811822259E+03  0.18493653232E+03  0.12509000000E+03 0.  0.
         25    1    4    4    0    0  0.43128654737E+02 -0.26448117579E+02 -0.35019781703E+03  0.37529402198E+03  0.12509000000E+03 0.  0.
<mgrwt>
<rscale>  2 0.45545005E+03</rscale>
<asrwt>0</asrwt>
<pdfrwt beam="1">  1       21 0.85312416E-02 0.45545005E+03</pdfrwt>
<pdfrwt beam="2">  1       21 0.13145934E+00 0.45545005E+03</pdfrwt>
<totfact> 0.40918327E+04</totfact>
</mgrwt>
</event>
<event>
 7    0  0.4748297E-002  0.4137080E+03  0.7546771E-02  0.1039134E+00
         21   -1    0    0  502  501  0.00000000000E+00  0.00000000000E+00  0.20765775022E+04  0.20765775022E+04  0.00000000000E+00 0.  1.
         21   -1    0    0  501  502 -0.00000000000E+00 -0.00000000000E+00 -0.20605336766E+02  0.20605336766E+02  0.00000000000E+00 0.  1.
      99926    2    1    2    0    0  0.00000000000E+00  0.00000000000E+00  0.20559721655E+04  0.20971828390E+04  0.41370800695E+03 0.  0.
      99925    2    3    3    0    0 -0.51257650460E+02  0.18907442174E+02  0.15487854689E+04  0.15719488994E+04  0.26325287338E+03 0.  0.
         25    1    4    4    0    0 -0.19998424084E+02  0.33950373598E+02  0.96728378043E+03  0.97613420430E+03  0.12509000000E+03 0.  0.
         25    1    4    4    0    0 -0.31259226376E+02 -0.15042931425E+02  0.58150168850E+03  0.59581469506E+03  0.12509000000E+03 0.  0.
         25    1    3    3    0    0  0.51257650460E+02 -0.18907442174E+02  0.50718669656E+03  0.52523393965E+03  0.12509000000E+03 0.  0.
<mgrwt>
<rscale>  2 0.41370801E+03</rscale>
<asrwt>0</asrwt>
<pdfrwt beam="1">  1       21 0.30537890E+00 0.41370801E+03</pdfrwt>
<pdfrwt beam="2">  1       21 0.30301980E-02 0.41370801E+03</pdfrwt>
<totfact> 0.17027192E+04</totfact>
</mgrwt>
</event>
<event>
 7    0  0.4748297E-002  0.4553975E+03  0.7546771E-02  0.1026125E+00
         21   -1    0    0  502  501  0.00000000000E+00  0.00000000000E+00  0.40698882972E+03  0.40698882972E+03  0.00000000000E+00 0. -1.
         21   -1    0    0  501  502 -0.00000000000E+00 -0.00000000000E+00 -0.12739100683E+03  0.12739100683E+03  0.00000000000E+00 0. -1.
      99926    2    1    2    0    0  0.00000000000E+00 -0.35527136788E-14  0.27959782289E+03  0.53437983655E+03  0.45539748259E+03 0.  0.
      99925    2    3    3    0    0  0.10635304305E+03  0.29326993280E+02  0.14463042992E+03  0.31982274026E+03  0.26305433209E+03 0.  0.
         25    1    3    3    0    0 -0.10635304305E+03 -0.29326993280E+02  0.13496739297E+03  0.21455709629E+03  0.12509000000E+03 0.  0.
         25    1    4    4    0    0  0.32626165115E+02  0.21537867149E+01  0.29704762836E+02  0.13266117172E+03  0.12509000000E+03 0.  0.
         25    1    4    4    0    0  0.73726877940E+02  0.27173206566E+02  0.11492566708E+03  0.18716156854E+03  0.12509000000E+03 0.  0.
<mgrwt>
<rscale>  2 0.45539748E+03</rscale>
<asrwt>0</asrwt>
<pdfrwt beam="1">  1       21 0.59851298E-01 0.45539748E+03</pdfrwt>
<pdfrwt beam="2">  1       21 0.18733972E-01 0.45539748E+03</pdfrwt>
<totfact> 0.62713119E+04</totfact>
</mgrwt>
</event>
<event>
 7    0  0.4748297E-002  0.4600823E+03  0.7546771E-02  0.1024757E+00
         21   -1    0    0  502  501  0.00000000000E+00  0.00000000000E+00  0.43149770810E+03  0.43149770810E+03  0.00000000000E+00 0.  1.
         21   -1    0    0  501  502 -0.00000000000E+00 -0.00000000000E+00 -0.12264011995E+03  0.12264011995E+03  0.00000000000E+00 0.  1.
      99926    2    1    2    0    0  0.00000000000E+00  0.14210854715E-13  0.30885758815E+03  0.55413782805E+03  0.46008229994E+03 0.  0.
      99925    2    3    3    0    0 -0.23029940568E+02 -0.10528260250E+03  0.13591423825E+03  0.31503175341E+03  0.26297817580E+03 0.  0.
         25    1    4    4    0    0 -0.93185939282E+01 -0.80285874351E+02  0.10736511886E+03  0.18359584598E+03  0.12509000000E+03 0.  0.
         25    1    3    3    0    0  0.23029940568E+02  0.10528260250E+03  0.17294334990E+03  0.23910607463E+03  0.12509000000E+03 0.  0.
         25    1    4    4    0    0 -0.13711346640E+02 -0.24996728150E+02  0.28549119383E+02  0.13143590743E+03  0.12509000000E+03 0.  0.
<mgrwt>
<rscale>  2 0.46008230E+03</rscale>
<asrwt>0</asrwt>
<pdfrwt beam="1">  1       21 0.63455545E-01 0.46008230E+03</pdfrwt>
<pdfrwt beam="2">  1       21 0.18035312E-01 0.46008230E+03</pdfrwt>
<totfact> 0.59178390E+04</totfact>
</mgrwt>
</event>
<event>
 7    0  0.4748297E-002  0.4471667E+03  0.7546771E-02  0.1028570E+00
         21   -1    0    0  502  501  0.00000000000E+00  0.00000000000E+00  0.23274663086E+02  0.23274663086E+02  0.00000000000E+00 0.  1.
         21   -1    0    0  501  502 -0.00000000000E+00 -0.00000000000E+00 -0.21478080696E+04  0.21478080696E+04  0.00000000000E+00 0.  1.
      99926    2    1    2    0    0  0.00000000000E+00  0.00000000000E+00 -0.21245334065E+04  0.21710827327E+04  0.44716667673E+03 0.  0.
      99925    2    3    3    0    0 -0.40943631805E+02  0.93557030824E+02 -0.12061191667E+04  0.12385799053E+04  0.26254035623E+03 0.  0.
         25    1    3    3    0    0  0.40943631805E+02 -0.93557030824E+02 -0.91841423981E+03  0.93250282734E+03  0.12509000000E+03 0.  0.
         25    1    4    4    0    0 -0.49300815375E+02  0.48464246214E+02 -0.50115730459E+03  0.52113866255E+03  0.12509000000E+03 0.  0.
         25    1    4    4    0    0  0.83571835703E+01  0.45092784609E+02 -0.70496186211E+03  0.71744124280E+03  0.12509000000E+03 0.  0.
<mgrwt>
<rscale>  2 0.44716668E+03</rscale>
<asrwt>0</asrwt>
<pdfrwt beam="1">  1       21 0.34227420E-02 0.44716668E+03</pdfrwt>
<pdfrwt beam="2">  1       21 0.31585437E+00 0.44716668E+03</pdfrwt>
<totfact> 0.11814915E+04</totfact>
</mgrwt>
</event>
<event>
 7    0  0.4748297E-002  0.4544740E+03  0.7546771E-02  0.1026396E+00
         21   -1    0    0  502  501  0.00000000000E+00  0.00000000000E+00  0.13068492529E+03  0.13068492529E+03  0.00000000000E+00 0. -1.
         21   -1    0    0  501  502 -0.00000000000E+00 -0.00000000000E+00 -0.39512334559E+03  0.39512334559E+03  0.00000000000E+00 0. -1.
      99926    2    1    2    0    0 -0.35527136788E-14  0.00000000000E+00 -0.26443842030E+03  0.52580827089E+03  0.45447404723E+03 0.  0.
      99925    2    3    3    0    0 -0.19499421013E+02  0.73732242198E+02 -0.70366520254E+02  0.28264560630E+03  0.26290762756E+03 0.  0.
         25    1    3    3    0    0  0.19499421013E+02 -0.73732242198E+02 -0.19407190005E+03  0.24316266458E+03  0.12509000000E+03 0.  0.
         25    1    4    4    0    0 -0.20344818806E+02  0.95231309326E+00 -0.51072264783E+02  0.13664078045E+03  0.12509000000E+03 0.  0.
         25    1    4    4    0    0  0.84539779357E+00  0.72779929105E+02 -0.19294255471E+02  0.14600482585E+03  0.12509000000E+03 0.  0.
<mgrwt>
<rscale>  2 0.45447405E+03</rscale>
<asrwt>0</asrwt>
<pdfrwt beam="1">  1       21 0.19218372E-01 0.45447405E+03</pdfrwt>
<pdfrwt beam="2">  1       21 0.58106373E-01 0.45447405E+03</pdfrwt>
<totfact> 0.63756577E+04</totfact>
</mgrwt>
</event>
<event>
 7    0  0.4748297E-002  0.4569256E+03  0.7546771E-02  0.1025677E+00
         21   -1    0    0  502  501  0.00000000000E+00  0.00000000000E+00  0.53199143894E+03  0.53199143894E+03  0.00000000000E+00 0.  1.
         21   -1    0    0  501  502 -0.00000000000E+00 -0.00000000000E+00 -0.98112963372E+02  0.98112963372E+02  0.00000000000E+00 0.  1.
      99926    2    1    2    0    0  0.00000000000E+00  0.00000000000E+00  0.43387847557E+03  0.63010440231E+03  0.45692562442E+03 0.  0.
      99925    2    3    3    0    0 -0.46809064855E+02 -0.10007409256E+03  0.31608184411E+03  0.42582648614E+03  0.26308658568E+03 0.  0.
         25    1    4    4    0    0 -0.28512622482E+02 -0.53646498277E+02  0.22046327648E+03  0.26065778484E+03  0.12509000000E+03 0.  0.
         25    1    4    4    0    0 -0.18296442373E+02 -0.46427594282E+02  0.95618567630E+02  0.16516870130E+03  0.12509000000E+03 0.  0.
         25    1    3    3    0    0  0.46809064855E+02  0.10007409256E+03  0.11779663146E+03  0.20427791618E+03  0.12509000000E+03 0.  0.
<mgrwt>
<rscale>  2 0.45692562E+03</rscale>
<asrwt>0</asrwt>
<pdfrwt beam="1">  1       21 0.78234034E-01 0.45692562E+03</pdfrwt>
<pdfrwt beam="2">  1       21 0.14428377E-01 0.45692562E+03</pdfrwt>
<totfact> 0.56006262E+04</totfact>
</mgrwt>
</event>
<event>
 7    0  0.4748297E-002  0.4518377E+03  0.7546771E-02  0.1027175E+00
         21   -1    0    0  502  501  0.00000000000E+00  0.00000000000E+00  0.24362544350E+03  0.24362544350E+03  0.00000000000E+00 0.  1.
         21   -1    0    0  501  502 -0.00000000000E+00 -0.00000000000E+00 -0.20949914875E+03  0.20949914875E+03  0.00000000000E+00 0.  1.
      99926    2    1    2    0    0  0.00000000000E+00  0.35527136788E-14  0.34126294748E+02  0.45312459224E+03  0.45183768336E+03 0.  0.
      99925    2    3    3    0    0 -0.22808384572E+02 -0.18757029695E+02 -0.84821811283E+02  0.27800118262E+03  0.26309289101E+03 0.  0.
         25    1    3    3    0    0  0.22808384572E+02  0.18757029695E+02  0.11894810603E+03  0.17512340962E+03  0.12509000000E+03 0.  0.
         25    1    4    4    0    0  0.26488446646E+02  0.60946091222E+01 -0.41896144807E+02  0.13469067197E+03  0.12509000000E+03 0.  0.
         25    1    4    4    0    0 -0.49296831218E+02 -0.24851638817E+02 -0.42925666476E+02  0.14331051065E+03  0.12509000000E+03 0.  0.
<mgrwt>
<rscale>  2 0.45183768E+03</rscale>
<asrwt>0</asrwt>
<pdfrwt beam="1">  1       21 0.35827271E-01 0.45183768E+03</pdfrwt>
<pdfrwt beam="2">  1       21 0.30808698E-01 0.45183768E+03</pdfrwt>
<totfact> 0.70444124E+04</totfact>
</mgrwt>
</event>
<event>
 7    0  0.4748297E-002  0.4464071E+03  0.7546771E-02  0.1028799E+00
         21   -1    0    0  502  501  0.00000000000E+00  0.00000000000E+00  0.29387757720E+03  0.29387757720E+03  0.00000000000E+00 0.  1.
         21   -1    0    0  501  502 -0.00000000000E+00 -0.00000000000E+00 -0.16952577486E+03  0.16952577486E+03  0.00000000000E+00 0.  1.
      99926    2    1    2    0    0  0.35527136788E-14  0.00000000000E+00  0.12435180234E+03  0.46340335207E+03  0.44640709668E+03 0.  0.
      99925    2    3    3    0    0 -0.29965099616E+02 -0.10053471821E+03  0.79534537765E+02  0.29410706722E+03  0.26299826526E+03 0.  0.
         25    1    4    4    0    0 -0.46287166472E+02 -0.36906829848E+02  0.16417834142E+02  0.13936164913E+03  0.12509000000E+03 0.  0.
         25    1    4    4    0    0  0.16322066855E+02 -0.63627888360E+02  0.63116703624E+02  0.15474541809E+03  0.12509000000E+03 0.  0.
         25    1    3    3    0    0  0.29965099616E+02  0.10053471821E+03  0.44817264576E+02  0.16929628485E+03  0.12509000000E+03 0.  0.
<mgrwt>
<rscale>  2 0.44640710E+03</rscale>
<asrwt>0</asrwt>
<pdfrwt beam="1">  1       21 0.43217291E-01 0.44640710E+03</pdfrwt>
<pdfrwt beam="2">  1       21 0.24930261E-01 0.44640710E+03</pdfrwt>
<totfact> 0.72764621E+04</totfact>
</mgrwt>
</event>
<event>
 7    0  0.4748297E-002  0.4556556E+03  0.7546771E-02  0.1026049E+00
         21   -1    0    0  502  501  0.00000000000E+00  0.00000000000E+00  0.27943499705E+03  0.27943499705E+03  0.00000000000E+00 0.  1.
         21   -1    0    0  501  502 -0.00000000000E+00 -0.00000000000E+00 -0.18575162276E+03  0.18575162276E+03  0.00000000000E+00 0.  1.
      99926    2    1    2    0    0  0.00000000000E+00  0.00000000000E+00  0.93683374288E+02  0.46518661982E+03  0.45565558993E+03 0.  0.
      99925    2    3    3    0    0 -0.19566838833E+02 -0.72923567311E+02  0.14580973131E+03  0.31005643885E+03  0.26300914371E+03 0.  0.
         25    1    4    4    0    0 -0.18353402467E+02 -0.13337053271E+02  0.32907470540E+02  0.13132072985E+03  0.12509000000E+03 0.  0.
         25    1    4    4    0    0 -0.12134363668E+01 -0.59586514039E+02  0.11290226077E+03  0.17873570899E+03  0.12509000000E+03 0.  0.
         25    1    3    3    0    0  0.19566838833E+02  0.72923567311E+02 -0.52126357018E+02  0.15513018097E+03  0.12509000000E+03 0.  0.
<mgrwt>
<rscale>  2 0.45565559E+03</rscale>
<asrwt>0</asrwt>
<pdfrwt beam="1">  1       21 0.41093382E-01 0.45565559E+03</pdfrwt>
<pdfrwt beam="2">  1       21 0.27316415E-01 0.45565559E+03</pdfrwt>
<totfact> 0.67444260E+04</totfact>
</mgrwt>
</event>
<event>
 7    0  0.4748297E-002  0.4503738E+03  0.7546771E-02  0.1027611E+00
         21   -1    0    0  502  501  0.00000000000E+00  0.00000000000E+00  0.47879749905E+02  0.47879749905E+02  0.00000000000E+00 0. -1.
         21   -1    0    0  501  502 -0.00000000000E+00 -0.00000000000E+00 -0.10590935454E+04  0.10590935454E+04  0.00000000000E+00 0. -1.
      99926    2    1    2    0    0  0.00000000000E+00 -0.88817841970E-15 -0.10112137955E+04  0.11069732953E+04  0.45037377402E+03 0.  0.
      99925    2    3    3    0    0 -0.10738567279E+03 -0.48780693215E+01 -0.67940572388E+03  0.73643371203E+03  0.26303421128E+03 0.  0.
         25    1    4    4    0    0 -0.23915264267E+02  0.25735448450E+02 -0.33838485408E+03  0.36247216548E+03  0.12509000000E+03 0.  0.
         25    1    4    4    0    0 -0.83470408522E+02 -0.30613517772E+02 -0.34102086979E+03  0.37396154656E+03  0.12509000000E+03 0.  0.
         25    1    3    3    0    0  0.10738567279E+03  0.48780693215E+01 -0.33180807162E+03  0.37053958327E+03  0.12509000000E+03 0.  0.
<mgrwt>
<rscale>  2 0.45037377E+03</rscale>
<asrwt>0</asrwt>
<pdfrwt beam="1">  1       21 0.70411404E-02 0.45037377E+03</pdfrwt>
<pdfrwt beam="2">  1       21 0.15574904E+00 0.45037377E+03</pdfrwt>
<totfact> 0.36552560E+04</totfact>
</mgrwt>
</event>
<event>
 7    0  0.4748297E-002  0.4512980E+03  0.7546771E-02  0.1027336E+00
         21   -1    0    0  502  501  0.00000000000E+00  0.00000000000E+00  0.85692887702E+02  0.85692887702E+02  0.00000000000E+00 0. -1.
         21   -1    0    0  501  502 -0.00000000000E+00 -0.00000000000E+00 -0.59418552120E+03  0.59418552120E+03  0.00000000000E+00 0. -1.
      99926    2    1    2    0    0  0.00000000000E+00  0.88817841970E-15 -0.50849263350E+03  0.67987840890E+03  0.45129800860E+03 0.  0.
      99925    2    3    3    0    0  0.76261643066E+02 -0.26450845249E+01 -0.20259968335E+03  0.34070170020E+03  0.26307448023E+03 0.  0.
         25    1    4    4    0    0  0.61437638396E+02  0.13534862358E+02 -0.14394157634E+03  0.20080951524E+03  0.12509000000E+03 0.  0.
         25    1    4    4    0    0  0.14824004669E+02 -0.16179946883E+02 -0.58658107010E+02  0.13989218496E+03  0.12509000000E+03 0.  0.
         25    1    3    3    0    0 -0.76261643066E+02  0.26450845249E+01 -0.30589295015E+03  0.33917670870E+03  0.12509000000E+03 0.  0.
<mgrwt>
<rscale>  2 0.45129801E+03</rscale>
<asrwt>0</asrwt>
<pdfrwt beam="1">  1       21 0.12601896E-01 0.45129801E+03</pdfrwt>
<pdfrwt beam="2">  1       21 0.87380221E-01 0.45129801E+03</pdfrwt>
<totfact> 0.55613002E+04</totfact>
</mgrwt>
</event>
<event>
 7    0  0.4748297E-002  0.4572252E+03  0.7546771E-02  0.1025589E+00
         21   -1    0    0  502  501  0.00000000000E+00  0.00000000000E+00  0.18403940273E+04  0.18403940273E+04  0.00000000000E+00 0.  1.
         21   -1    0    0  501  502 -0.00000000000E+00 -0.00000000000E+00 -0.28398112870E+02  0.28398112870E+02  0.00000000000E+00 0.  1.
      99926    2    1    2    0    0  0.17763568394E-14  0.00000000000E+00  0.18119959145E+04  0.18687921402E+04  0.45722518440E+03 0.  0.
      99925    2    3    3    0    0  0.54288471656E+01 -0.10185069545E+03  0.13578900228E+04  0.13868557279E+04  0.26286966254E+03 0.  0.
         25    1    4    4    0    0  0.42408676801E+02 -0.50031063540E+02  0.64581784742E+03  0.66108229694E+03  0.12509000000E+03 0.  0.
         25    1    3    3    0    0 -0.54288471656E+01  0.10185069545E+03  0.45410589164E+03  0.48193641227E+03  0.12509000000E+03 0.  0.
         25    1    4    4    0    0 -0.36979829636E+02 -0.51819631912E+02  0.71207217539E+03  0.72577343098E+03  0.12509000000E+03 0.  0.
<mgrwt>
<rscale>  2 0.45722518E+03</rscale>
<asrwt>0</asrwt>
<pdfrwt beam="1">  1       21 0.27064610E+00 0.45722518E+03</pdfrwt>
<pdfrwt beam="2">  1       21 0.41761943E-02 0.45722518E+03</pdfrwt>
<totfact> 0.15699783E+04</totfact>
</mgrwt>
</event>
<event>
 7    0  0.4748297E-002  0.4532326E+03  0.7546771E-02  0.1026762E+00
         21   -1    0    0  502  501  0.00000000000E+00  0.00000000000E+00  0.60112232243E+03  0.60112232243E+03  0.00000000000E+00 0.  1.
         21   -1    0    0  501  502 -0.00000000000E+00 -0.00000000000E+00 -0.85431778827E+02  0.85431778827E+02  0.00000000000E+00 0.  1.
      99926    2    1    2    0    0  0.00000000000E+00  0.00000000000E+00  0.51569054360E+03  0.68655410126E+03  0.45323260826E+03 0.  0.
      99925    2    3    3    0    0  0.55471106193E+02  0.82040446226E+02  0.24573389550E+03  0.37297511855E+03  0.26252164334E+03 0.  0.
         25    1    4    4    0    0  0.50447720701E+02  0.76886289736E+02  0.13332634271E+03  0.20464578137E+03  0.12509000000E+03 0.  0.
         25    1    3    3    0    0 -0.55471106193E+02 -0.82040446226E+02  0.26995664811E+03  0.31357898271E+03  0.12509000000E+03 0.  0.
         25    1    4    4    0    0  0.50233854919E+01  0.51541564892E+01  0.11240755278E+03  0.16832933717E+03  0.12509000000E+03 0.  0.
<mgrwt>
<rscale>  2 0.45323261E+03</rscale>
<asrwt>0</asrwt>
<pdfrwt beam="1">  1       21 0.88400339E-01 0.45323261E+03</pdfrwt>
<pdfrwt beam="2">  1       21 0.12563497E-01 0.45323261E+03</pdfrwt>
<totfact> 0.54392142E+04</totfact>
</mgrwt>
</event>
<event>
 7    0  0.4748297E-002  0.4569289E+03  0.7546771E-02  0.1025676E+00
         21   -1    0    0  502  501  0.00000000000E+00  0.00000000000E+00  0.23037985628E+03  0.23037985628E+03  0.00000000000E+00 0.  1.
         21   -1    0    0  501  502 -0.00000000000E+00 -0.00000000000E+00 -0.22656497601E+03  0.22656497601E+03  0.00000000000E+00 0.  1.
      99926    2    1    2    0    0 -0.71054273576E-14  0.00000000000E+00  0.38148802706E+01  0.45694483229E+03  0.45692890743E+03 0.  0.
      99925    2    3    3    0    0  0.35944935474E+02  0.10931961569E+03  0.16378728153E+01  0.28695934990E+03  0.26286911022E+03 0.  0.
         25    1    4    4    0    0  0.55958976237E+02  0.66019062170E+02 -0.10880071727E+02  0.15249854967E+03  0.12509000000E+03 0.  0.
         25    1    3    3    0    0 -0.35944935474E+02 -0.10931961569E+03  0.21770074553E+01  0.16998548239E+03  0.12509000000E+03 0.  0.
         25    1    4    4    0    0 -0.20014040763E+02  0.43300553525E+02  0.12517944543E+02  0.13446080023E+03  0.12509000000E+03 0.  0.
<mgrwt>
<rscale>  2 0.45692891E+03</rscale>
<asrwt>0</asrwt>
<pdfrwt beam="1">  1       21 0.33879391E-01 0.45692891E+03</pdfrwt>
<pdfrwt beam="2">  1       21 0.33318379E-01 0.45692891E+03</pdfrwt>
<totfact> 0.67360834E+04</totfact>
</mgrwt>
</event>
<event>
 7    0  0.4748297E-002  0.4530328E+03  0.7546771E-02  0.1026821E+00
         21   -1    0    0  502  501  0.00000000000E+00  0.00000000000E+00  0.66424998240E+03  0.66424998240E+03  0.00000000000E+00 0. -1.
         21   -1    0    0  501  502 -0.00000000000E+00 -0.00000000000E+00 -0.77244529649E+02  0.77244529649E+02  0.00000000000E+00 0. -1.
      99926    2    1    2    0    0  0.00000000000E+00  0.00000000000E+00  0.58700545275E+03  0.74149451205E+03  0.45303279113E+03 0.  0.
      99925    2    3    3    0    0  0.74598134054E+02  0.53190251154E+02  0.47311765847E+03  0.54910942372E+03  0.26322377562E+03 0.  0.
         25    1    3    3    0    0 -0.74598134054E+02 -0.53190251154E+02  0.11388779428E+03  0.19238508832E+03  0.12509000000E+03 0.  0.
         25    1    4    4    0    0  0.69032031363E+02  0.82480792889E+00  0.25047744239E+03  0.28836185411E+03  0.12509000000E+03 0.  0.
         25    1    4    4    0    0  0.55661026913E+01  0.52365443225E+02  0.22264021608E+03  0.26074756961E+03  0.12509000000E+03 0.  0.
<mgrwt>
<rscale>  2 0.45303279E+03</rscale>
<asrwt>0</asrwt>
<pdfrwt beam="1">  1       21 0.97683818E-01 0.45303279E+03</pdfrwt>
<pdfrwt beam="2">  1       21 0.11359490E-01 0.45303279E+03</pdfrwt>
<totfact> 0.51499101E+04</totfact>
</mgrwt>
</event>
<event>
 7    0  0.4748297E-002  0.4190412E+03  0.7546771E-02  0.1037379E+00
         21   -1    0    0  502  501  0.00000000000E+00  0.00000000000E+00  0.13383836700E+03  0.13383836700E+03  0.00000000000E+00 0.  1.
         21   -1    0    0  501  502 -0.00000000000E+00 -0.00000000000E+00 -0.32799916468E+03  0.32799916468E+03  0.00000000000E+00 0.  1.
      99926    2    1    2    0    0 -0.88817841970E-15  0.17763568394E-14 -0.19416079768E+03  0.46183753169E+03  0.41904115588E+03 0.  0.
      99925    2    3    3    0    0  0.77302570775E+01 -0.74834444809E+01 -0.45237603369E+02  0.26705204783E+03  0.26297261583E+03 0.  0.
         25    1    3    3    0    0 -0.77302570775E+01  0.74834444809E+01 -0.14892319431E+03  0.19478548385E+03  0.12509000000E+03 0.  0.
         25    1    4    4    0    0 -0.11071515898E+02 -0.34971608208E+02 -0.13414131244E+01  0.13036448648E+03  0.12509000000E+03 0.  0.
         25    1    4    4    0    0  0.18801772976E+02  0.27488163727E+02 -0.43896190245E+02  0.13668756136E+03  0.12509000000E+03 0.  0.
<mgrwt>
<rscale>  2 0.41904116E+03</rscale>
<asrwt>0</asrwt>
<pdfrwt beam="1">  1       21 0.19682113E-01 0.41904116E+03</pdfrwt>
<pdfrwt beam="2">  1       21 0.48235170E-01 0.41904116E+03</pdfrwt>
<totfact> 0.91505622E+04</totfact>
</mgrwt>
</event>
<event>
 7    0  0.4748297E-002  0.4076380E+03  0.7546771E-02  0.1041167E+00
         21   -1    0    0  502  501  0.00000000000E+00  0.00000000000E+00  0.12112439855E+04  0.12112439855E+04  0.00000000000E+00 0.  1.
         21   -1    0    0  501  502 -0.00000000000E+00 -0.00000000000E+00 -0.34297119296E+02  0.34297119296E+02  0.00000000000E+00 0.  1.
      99926    2    1    2    0    0 -0.19984014443E-14  0.00000000000E+00  0.11769468662E+04  0.12455411048E+04  0.40763797403E+03 0.  0.
      99925    2    3    3    0    0 -0.18687015284E+01 -0.45618872241E+02  0.66394734527E+03  0.71554054807E+03  0.26284524933E+03 0.  0.
         25    1    4    4    0    0 -0.24133998211E+02 -0.24490679648E+02  0.24480518950E+03  0.27705474579E+03  0.12509000000E+03 0.  0.
         25    1    4    4    0    0  0.22265296682E+02 -0.21128192593E+02  0.41914215577E+03  0.43848580228E+03  0.12509000000E+03 0.  0.
         25    1    3    3    0    0  0.18687015284E+01  0.45618872241E+02  0.51299952095E+03  0.53000055674E+03  0.12509000000E+03 0.  0.
<mgrwt>
<rscale>  2 0.40763797E+03</rscale>
<asrwt>0</asrwt>
<pdfrwt beam="1">  1       21 0.17812409E+00 0.40763797E+03</pdfrwt>
<pdfrwt beam="2">  1       21 0.50436948E-02 0.40763797E+03</pdfrwt>
<totfact> 0.45258052E+04</totfact>
</mgrwt>
</event>
<event>
 7    0  0.4748297E-002  0.4578420E+03  0.7546771E-02  0.1025409E+00
         21   -1    0    0  502  501  0.00000000000E+00  0.00000000000E+00  0.39157352538E+03  0.39157352538E+03  0.00000000000E+00 0. -1.
         21   -1    0    0  501  502 -0.00000000000E+00 -0.00000000000E+00 -0.13383137509E+03  0.13383137509E+03  0.00000000000E+00 0. -1.
      99926    2    1    2    0    0 -0.66613381478E-15  0.00000000000E+00  0.25774215029E+03  0.52540490046E+03  0.45784199610E+03 0.  0.
      99925    2    3    3    0    0 -0.91854561351E+00 -0.26217852954E+02  0.32459319806E+02  0.26639123026E+03  0.26310161645E+03 0.  0.
         25    1    3    3    0    0  0.91854561351E+00  0.26217852954E+02  0.22528283048E+03  0.25901367020E+03  0.12509000000E+03 0.  0.
         25    1    4    4    0    0 -0.32263588692E+02 -0.41287333910E+01  0.40115057058E+02  0.13533185692E+03  0.12509000000E+03 0.  0.
         25    1    4    4    0    0  0.31345043078E+02 -0.22089119563E+02 -0.76557372525E+01  0.13105937334E+03  0.12509000000E+03 0.  0.
<mgrwt>
<rscale>  2 0.45784200E+03</rscale>
<asrwt>0</asrwt>
<pdfrwt beam="1">  1       21 0.57584342E-01 0.45784200E+03</pdfrwt>
<pdfrwt beam="2">  1       21 0.19681085E-01 0.45784200E+03</pdfrwt>
<totfact> 0.62107505E+04</totfact>
</mgrwt>
</event>
<event>
 7    0  0.4748297E-002  0.4599433E+03  0.7546771E-02  0.1024798E+00
         21   -1    0    0  502  501  0.00000000000E+00  0.00000000000E+00  0.10065291143E+03  0.10065291143E+03  0.00000000000E+00 0.  1.
         21   -1    0    0  501  502 -0.00000000000E+00 -0.00000000000E+00 -0.52543904542E+03  0.52543904542E+03  0.00000000000E+00 0.  1.
      99926    2    1    2    0    0 -0.14210854715E-13  0.00000000000E+00 -0.42478613399E+03  0.62609195684E+03  0.45994334303E+03 0.  0.
      99925    2    3    3    0    0  0.11577270463E+03  0.17266440963E+02 -0.24939717142E+03  0.38091804833E+03  0.26305543391E+03 0.  0.
         25    1    3    3    0    0 -0.11577270463E+03 -0.17266440963E+02 -0.17538896258E+03  0.24517390851E+03  0.12509000000E+03 0.  0.
         25    1    4    4    0    0  0.83610945120E+02  0.16132042276E+02 -0.91167061322E+02  0.17666344869E+03  0.12509000000E+03 0.  0.
         25    1    4    4    0    0  0.32161759515E+02  0.11343986869E+01 -0.15823011009E+03  0.20425459964E+03  0.12509000000E+03 0.  0.
<mgrwt>
<rscale>  2 0.45994334E+03</rscale>
<asrwt>0</asrwt>
<pdfrwt beam="1">  1       21 0.14801899E-01 0.45994334E+03</pdfrwt>
<pdfrwt beam="2">  1       21 0.77270448E-01 0.45994334E+03</pdfrwt>
<totfact> 0.54925033E+04</totfact>
</mgrwt>
</event>
<event>
 7    0  0.4748297E-002  0.4508471E+03  0.7546771E-02  0.1027470E+00
         21   -1    0    0  502  501  0.00000000000E+00  0.00000000000E+00  0.10555028508E+04  0.10555028508E+04  0.00000000000E+00 0.  1.
         21   -1    0    0  501  502 -0.00000000000E+00 -0.00000000000E+00 -0.48143674490E+02  0.48143674490E+02  0.00000000000E+00 0.  1.
      99926    2    1    2    0    0  0.00000000000E+00  0.00000000000E+00  0.10073591763E+04  0.11036465253E+04  0.45084713894E+03 0.  0.
      99925    2    3    3    0    0 -0.10901966689E+03  0.90806629376E+00  0.61951371924E+03  0.68179617384E+03  0.26298795025E+03 0.  0.
         25    1    4    4    0    0 -0.56643053256E+02  0.53206103802E+01  0.21530727132E+03  0.25542410529E+03  0.12509000000E+03 0.  0.
         25    1    3    3    0    0  0.10901966689E+03 -0.90806629376E+00  0.38784545708E+03  0.42185035147E+03  0.12509000000E+03 0.  0.
         25    1    4    4    0    0 -0.52376613636E+02 -0.44125440864E+01  0.40420644792E+03  0.42637206855E+03  0.12509000000E+03 0.  0.
<mgrwt>
<rscale>  2 0.45084714E+03</rscale>
<asrwt>0</asrwt>
<pdfrwt beam="1">  1       21 0.15522099E+00 0.45084714E+03</pdfrwt>
<pdfrwt beam="2">  1       21 0.70799528E-02 0.45084714E+03</pdfrwt>
<totfact> 0.36536963E+04</totfact>
</mgrwt>
</event>
<event>
 7    0  0.4748297E-002  0.4525353E+03  0.7546771E-02  0.1026969E+00
         21   -1    0    0  502  501  0.00000000000E+00  0.00000000000E+00  0.11632134327E+04  0.11632134327E+04  0.00000000000E+00 0. -1.
         21   -1    0    0  501  502 -0.00000000000E+00 -0.00000000000E+00 -0.44013459372E+02  0.44013459372E+02  0.00000000000E+00 0. -1.
      99926    2    1    2    0    0 -0.14210854715E-13  0.71054273576E-14  0.11191999733E+04  0.12072268920E+04  0.45253528994E+03 0.  0.
      99925    2    3    3    0    0 -0.73027610666E+02  0.61126487066E+02  0.55415682632E+03  0.62071964964E+03  0.26293272134E+03 0.  0.
         25    1    3    3    0    0  0.73027610666E+02 -0.61126487066E+02  0.56504314697E+03  0.58650724239E+03  0.12509000000E+03 0.  0.
         25    1    4    4    0    0 -0.33579618458E+02  0.59700118378E+02  0.22501944332E+03  0.26640749404E+03  0.12509000000E+03 0.  0.
         25    1    4    4    0    0 -0.39447992208E+02  0.14263686882E+01  0.32913738300E+03  0.35431215560E+03  0.12509000000E+03 0.  0.
<mgrwt>
<rscale>  2 0.45253529E+03</rscale>
<asrwt>0</asrwt>
<pdfrwt beam="1">  1       21 0.17106078E+00 0.45253529E+03</pdfrwt>
<pdfrwt beam="2">  1       21 0.64725684E-02 0.45253529E+03</pdfrwt>
<totfact> 0.32548140E+04</totfact>
</mgrwt>
</event>
<event>
 7    0  0.4748297E-002  0.4001362E+03  0.7546771E-02  0.1043733E+00
         21   -1    0    0  502  501  0.00000000000E+00  0.00000000000E+00  0.21821208466E+03  0.21821208466E+03  0.00000000000E+00 0.  1.
         21   -1    0    0  501  502 -0.00000000000E+00 -0.00000000000E+00 -0.18343276853E+03  0.18343276853E+03  0.00000000000E+00 0.  1.
      99926    2    1    2    0    0  0.00000000000E+00  0.00000000000E+00  0.34779316133E+02  0.40164485319E+03  0.40013621088E+03 0.  0.
      99925    2    3    3    0    0 -0.20807592334E+02  0.29051089128E+02 -0.54403448802E+01  0.26547565362E+03  0.26300342894E+03 0.  0.
         25    1    4    4    0    0 -0.49511892782E+02  0.36939123385E+01 -0.41593427781E+01  0.13464724560E+03  0.12509000000E+03 0.  0.
         25    1    4    4    0    0  0.28704300448E+02  0.25357176789E+02 -0.12810021021E+01  0.13082840802E+03  0.12509000000E+03 0.  0.
         25    1    3    3    0    0  0.20807592334E+02 -0.29051089128E+02  0.40219661013E+02  0.13616919957E+03  0.12509000000E+03 0.  0.
<mgrwt>
<rscale>  2 0.40013621E+03</rscale>
<asrwt>0</asrwt>
<pdfrwt beam="1">  1       21 0.32090013E-01 0.40013621E+03</pdfrwt>
<pdfrwt beam="2">  1       21 0.26975407E-01 0.40013621E+03</pdfrwt>
<totfact> 0.11551810E+05</totfact>
</mgrwt>
</event>
<event>
 7    0  0.4748297E-002  0.4570215E+03  0.7546771E-02  0.1025649E+00
         21   -1    0    0  502  501  0.00000000000E+00  0.00000000000E+00  0.12579987626E+03  0.12579987626E+03  0.00000000000E+00 0.  1.
         21   -1    0    0  501  502 -0.00000000000E+00 -0.00000000000E+00 -0.41508119472E+03  0.41508119472E+03  0.00000000000E+00 0.  1.
      99926    2    1    2    0    0  0.00000000000E+00  0.00000000000E+00 -0.28928131846E+03  0.54088107098E+03  0.45702150030E+03 0.  0.
      99925    2    3    3    0    0 -0.42724960837E+01  0.27889218354E+02 -0.49693544129E+02  0.26913510058E+03  0.26299846257E+03 0.  0.
         25    1    4    4    0    0  0.29335687727E+01 -0.76840590450E+00 -0.62679458973E+02  0.13994791513E+03  0.12509000000E+03 0.  0.
         25    1    3    3    0    0  0.42724960837E+01 -0.27889218354E+02 -0.23958777433E+03  0.27174597040E+03  0.12509000000E+03 0.  0.
         25    1    4    4    0    0 -0.72060648564E+01  0.28657624258E+02  0.12985914845E+02  0.12918718544E+03  0.12509000000E+03 0.  0.
<mgrwt>
<rscale>  2 0.45702150E+03</rscale>
<asrwt>0</asrwt>
<pdfrwt beam="1">  1       21 0.18499982E-01 0.45702150E+03</pdfrwt>
<pdfrwt beam="2">  1       21 0.61041351E-01 0.45702150E+03</pdfrwt>
<totfact> 0.61483633E+04</totfact>
</mgrwt>
</event>
<event>
 7    0  0.4748297E-002  0.4539645E+03  0.7546771E-02  0.1026546E+00
         21   -1    0    0  502  501  0.00000000000E+00  0.00000000000E+00  0.22436908757E+03  0.22436908757E+03  0.00000000000E+00 0.  1.
         21   -1    0    0  501  502 -0.00000000000E+00 -0.00000000000E+00 -0.22962580420E+03  0.22962580420E+03  0.00000000000E+00 0.  1.
      99926    2    1    2    0    0 -0.35527136788E-14  0.14210854715E-13 -0.52567166308E+01  0.45399489178E+03  0.45396445752E+03 0.  0.
      99925    2    3    3    0    0 -0.30763495037E+02  0.10740761731E+03 -0.13498384858E+02  0.28607162931E+03  0.26300566879E+03 0.  0.
         25    1    4    4    0    0 -0.15815409888E+02  0.59751183034E+02 -0.47079557637E+02  0.14725598090E+03  0.12509000000E+03 0.  0.
         25    1    4    4    0    0 -0.14948085150E+02  0.47656434275E+02  0.33581172779E+02  0.13881564841E+03  0.12509000000E+03 0.  0.
         25    1    3    3    0    0  0.30763495037E+02 -0.10740761731E+03  0.82416682269E+01  0.16792326247E+03  0.12509000000E+03 0.  0.
<mgrwt>
<rscale>  2 0.45396446E+03</rscale>
<asrwt>0</asrwt>
<pdfrwt beam="1">  1       21 0.32995454E-01 0.45396446E+03</pdfrwt>
<pdfrwt beam="2">  1       21 0.33768501E-01 0.45396446E+03</pdfrwt>
<totfact> 0.69189403E+04</totfact>
</mgrwt>
</event>
<event>
 7    0  0.4748297E-002  0.4593415E+03  0.7546771E-02  0.1024972E+00
         21   -1    0    0  502  501  0.00000000000E+00  0.00000000000E+00  0.91548277490E+03  0.91548277490E+03  0.00000000000E+00 0. -1.
         21   -1    0    0  501  502 -0.00000000000E+00 -0.00000000000E+00 -0.57618390560E+02  0.57618390560E+02  0.00000000000E+00 0. -1.
      99926    2    1    2    0    0  0.00000000000E+00  0.00000000000E+00  0.85786438434E+03  0.97310116546E+03  0.45934145937E+03 0.  0.
      99925    2    3    3    0    0 -0.90161612691E+02  0.47133971690E+02  0.66093821891E+03  0.71858564448E+03  0.26301192281E+03 0.  0.
         25    1    4    4    0    0 -0.72421432866E+02  0.49820009487E+02  0.31144027088E+03  0.34694300354E+03  0.12509000000E+03 0.  0.
         25    1    4    4    0    0 -0.17740179825E+02 -0.26860377965E+01  0.34949794804E+03  0.37164264093E+03  0.12509000000E+03 0.  0.
         25    1    3    3    0    0  0.90161612691E+02 -0.47133971690E+02  0.19692616542E+03  0.25451552098E+03  0.12509000000E+03 0.  0.
<mgrwt>
<rscale>  2 0.45934146E+03</rscale>
<asrwt>0</asrwt>
<pdfrwt beam="1">  1       21 0.13462981E+00 0.45934146E+03</pdfrwt>
<pdfrwt beam="2">  1       21 0.84732933E-02 0.45934146E+03</pdfrwt>
<totfact> 0.38882689E+04</totfact>
</mgrwt>
</event>
<event>
 7    0  0.4748297E-002  0.4404151E+03  0.7546771E-02  0.1030620E+00
         21   -1    0    0  502  501  0.00000000000E+00  0.00000000000E+00  0.42784268926E+03  0.42784268926E+03  0.00000000000E+00 0. -1.
         21   -1    0    0  501  502 -0.00000000000E+00 -0.00000000000E+00 -0.11333925999E+03  0.11333925999E+03  0.00000000000E+00 0. -1.
      99926    2    1    2    0    0 -0.14210854715E-13 -0.71054273576E-14  0.31450342927E+03  0.54118194925E+03  0.44041513957E+03 0.  0.
      99925    2    3    3    0    0 -0.90181538999E+02 -0.40733224058E+02  0.20178137973E+03  0.34587277365E+03  0.26290748340E+03 0.  0.
         25    1    4    4    0    0 -0.26285305226E+02 -0.28095197744E+02  0.53943672422E+02  0.14155453119E+03  0.12509000000E+03 0.  0.
         25    1    3    3    0    0  0.90181538999E+02  0.40733224058E+02  0.11272204955E+03  0.19530917560E+03  0.12509000000E+03 0.  0.
         25    1    4    4    0    0 -0.63896233773E+02 -0.12638026314E+02  0.14783770730E+03  0.20431824246E+03  0.12509000000E+03 0.  0.
<mgrwt>
<rscale>  2 0.44041514E+03</rscale>
<asrwt>0</asrwt>
<pdfrwt beam="1">  1       21 0.62918042E-01 0.44041514E+03</pdfrwt>
<pdfrwt beam="2">  1       21 0.16667538E-01 0.44041514E+03</pdfrwt>
<totfact> 0.70212634E+04</totfact>
</mgrwt>
</event>
<event>
 7    0  0.4748297E-002  0.4558159E+03  0.7546771E-02  0.1026002E+00
         21   -1    0    0  502  501  0.00000000000E+00  0.00000000000E+00  0.29262186390E+02  0.29262186390E+02  0.00000000000E+00 0.  1.
         21   -1    0    0  501  502 -0.00000000000E+00 -0.00000000000E+00 -0.17750567714E+04  0.17750567714E+04  0.00000000000E+00 0.  1.
      99926    2    1    2    0    0 -0.35527136788E-14  0.00000000000E+00 -0.17457945850E+04  0.18043189577E+04  0.45581593696E+03 0.  0.
      99925    2    3    3    0    0  0.30646124077E+02  0.10223022796E+03 -0.12559735341E+04  0.12876349398E+04  0.26295249649E+03 0.  0.
         25    1    3    3    0    0 -0.30646124077E+02 -0.10223022796E+03 -0.48982105086E+03  0.51668401794E+03  0.12509000000E+03 0.  0.
         25    1    4    4    0    0  0.10861263146E+02  0.83894556359E+01 -0.58819490591E+03  0.60150569860E+03  0.12509000000E+03 0.  0.
         25    1    4    4    0    0  0.19784860931E+02  0.93840772319E+02 -0.66777862819E+03  0.68612924121E+03  0.12509000000E+03 0.  0.
<mgrwt>
<rscale>  2 0.45581594E+03</rscale>
<asrwt>0</asrwt>
<pdfrwt beam="1">  1       21 0.43032619E-02 0.45581594E+03</pdfrwt>
<pdfrwt beam="2">  1       21 0.26103781E+00 0.45581594E+03</pdfrwt>
<totfact> 0.17068232E+04</totfact>
</mgrwt>
</event>
<event>
 7    0  0.4748297E-002  0.4436909E+03  0.7546771E-02  0.1029620E+00
         21   -1    0    0  502  501  0.00000000000E+00  0.00000000000E+00  0.82094640817E+02  0.82094640817E+02  0.00000000000E+00 0. -1.
         21   -1    0    0  501  502 -0.00000000000E+00 -0.00000000000E+00 -0.59949589251E+03  0.59949589251E+03  0.00000000000E+00 0. -1.
      99926    2    1    2    0    0  0.44408920985E-15  0.00000000000E+00 -0.51740125169E+03  0.68159053332E+03  0.44369088324E+03 0.  0.
      99925    2    3    3    0    0 -0.37124472487E+01  0.61622723809E+02 -0.20740338734E+03  0.34165329448E+03  0.26438545004E+03 0.  0.
         25    1    4    4    0    0 -0.40774667635E+02  0.16059370098E+02 -0.11432627583E+03  0.17503851672E+03  0.12509000000E+03 0.  0.
         25    1    4    4    0    0  0.37062220386E+02  0.45563353711E+02 -0.93077111508E+02  0.16661477776E+03  0.12509000000E+03 0.  0.
         25    1    3    3    0    0  0.37124472487E+01 -0.61622723809E+02 -0.30999786435E+03  0.33993723885E+03  0.12509000000E+03 0.  0.
<mgrwt>
<rscale>  2 0.44369088E+03</rscale>
<asrwt>0</asrwt>
<pdfrwt beam="1">  1       21 0.12072741E-01 0.44369088E+03</pdfrwt>
<pdfrwt beam="2">  1       21 0.88161161E-01 0.44369088E+03</pdfrwt>
<totfact> 0.58994427E+04</totfact>
</mgrwt>
</event>
<event>
 7    0  0.4748297E-002  0.4600106E+03  0.7546771E-02  0.1024778E+00
         21   -1    0    0  502  501  0.00000000000E+00  0.00000000000E+00  0.38391775665E+03  0.38391775665E+03  0.00000000000E+00 0. -1.
         21   -1    0    0  501  502 -0.00000000000E+00 -0.00000000000E+00 -0.13779626958E+03  0.13779626958E+03  0.00000000000E+00 0. -1.
      99926    2    1    2    0    0  0.00000000000E+00  0.14210854715E-13  0.24612148707E+03  0.52171402622E+03  0.46001058548E+03 0.  0.
      99925    2    3    3    0    0  0.73125537624E+02 -0.83181009044E+02  0.19979070731E+03  0.34833446061E+03  0.26297175742E+03 0.  0.
         25    1    4    4    0    0  0.32855648161E+02 -0.74016839125E+02  0.13692684393E+03  0.20237207016E+03  0.12509000000E+03 0.  0.
         25    1    3    3    0    0 -0.73125537624E+02  0.83181009044E+02  0.46330779756E+02  0.17337956561E+03  0.12509000000E+03 0.  0.
         25    1    4    4    0    0  0.40269889464E+02 -0.91641699188E+01  0.62863863381E+02  0.14596239045E+03  0.12509000000E+03 0.  0.
<mgrwt>
<rscale>  2 0.46001059E+03</rscale>
<asrwt>0</asrwt>
<pdfrwt beam="1">  1       21 0.56458493E-01 0.46001059E+03</pdfrwt>
<pdfrwt beam="2">  1       21 0.20264157E-01 0.46001059E+03</pdfrwt>
<totfact> 0.61297298E+04</totfact>
</mgrwt>
</event>
<event>
 7    0  0.4748297E-002  0.4549041E+03  0.7546771E-02  0.1026270E+00
         21   -1    0    0  502  501  0.00000000000E+00  0.00000000000E+00  0.89102351044E+03  0.89102351044E+03  0.00000000000E+00 0.  1.
         21   -1    0    0  501  502 -0.00000000000E+00 -0.00000000000E+00 -0.58061802052E+02  0.58061802052E+02  0.00000000000E+00 0.  1.
      99926    2    1    2    0    0  0.00000000000E+00  0.00000000000E+00  0.83296170839E+03  0.94908531250E+03  0.45490408082E+03 0.  0.
      99925    2    3    3    0    0  0.10062092109E+03  0.32142597641E+01  0.62926933321E+03  0.68971493440E+03  0.26380275925E+03 0.  0.
         25    1    4    4    0    0  0.12741774953E+02  0.22164323355E+02  0.30842685599E+03  0.33380869319E+03  0.12509000000E+03 0.  0.
         25    1    3    3    0    0 -0.10062092109E+03 -0.32142597641E+01  0.20369237518E+03  0.25937037810E+03  0.12509000000E+03 0.  0.
         25    1    4    4    0    0  0.87879146139E+02 -0.18950063590E+02  0.32084247723E+03  0.35590624121E+03  0.12509000000E+03 0.  0.
<mgrwt>
<rscale>  2 0.45490408E+03</rscale>
<asrwt>0</asrwt>
<pdfrwt beam="1">  1       21 0.13103286E+00 0.45490408E+03</pdfrwt>
<pdfrwt beam="2">  1       21 0.85385008E-02 0.45490408E+03</pdfrwt>
<totfact> 0.41208768E+04</totfact>
</mgrwt>
</event>
<event>
 7    0  0.4748297E-002  0.4474829E+03  0.7546771E-02  0.1028475E+00
         21   -1    0    0  502  501  0.00000000000E+00  0.00000000000E+00  0.98322473267E+02  0.98322473267E+02  0.00000000000E+00 0. -1.
         21   -1    0    0  501  502 -0.00000000000E+00 -0.00000000000E+00 -0.50914327365E+03  0.50914327365E+03  0.00000000000E+00 0. -1.
      99926    2    1    2    0    0  0.00000000000E+00 -0.35527136788E-14 -0.41082080039E+03  0.60746574692E+03  0.44748285291E+03 0.  0.
      99925    2    3    3    0    0 -0.39137126310E+02  0.17083211122E+02 -0.39194528001E+03  0.47394666915E+03  0.26302241715E+03 0.  0.
         25    1    4    4    0    0  0.13374573445E+02  0.46071157101E+01 -0.23105597034E+03  0.26312444634E+03  0.12509000000E+03 0.  0.
         25    1    4    4    0    0 -0.52511699755E+02  0.12476095412E+02 -0.16088930967E+03  0.21082222282E+03  0.12509000000E+03 0.  0.
         25    1    3    3    0    0  0.39137126310E+02 -0.17083211122E+02 -0.18875520378E+02  0.13351907777E+03  0.12509000000E+03 0.  0.
<mgrwt>
<rscale>  2 0.44748285E+03</rscale>
<asrwt>0</asrwt>
<pdfrwt beam="1">  1       21 0.14459187E-01 0.44748285E+03</pdfrwt>
<pdfrwt beam="2">  1       21 0.74874010E-01 0.44748285E+03</pdfrwt>
<totfact> 0.61810382E+04</totfact>
</mgrwt>
</event>
<event>
 7    0  0.4748297E-002  0.4586716E+03  0.7546771E-02  0.1025167E+00
         21   -1    0    0  502  501  0.00000000000E+00  0.00000000000E+00  0.18187916655E+03  0.18187916655E+03  0.00000000000E+00 0. -1.
         21   -1    0    0  501  502 -0.00000000000E+00 -0.00000000000E+00 -0.28917504507E+03  0.28917504507E+03  0.00000000000E+00 0. -1.
      99926    2    1    2    0    0  0.14210854715E-13  0.00000000000E+00 -0.10729587852E+03  0.47105421162E+03  0.45867163062E+03 0.  0.
      99925    2    3    3    0    0  0.71727745217E+02  0.91613729583E+02 -0.73076302174E+02  0.29682323737E+03  0.26310823518E+03 0.  0.
         25    1    4    4    0    0 -0.11556501544E+01  0.26572443674E+02 -0.45456013128E+02  0.13572467543E+03  0.12509000000E+03 0.  0.
         25    1    3    3    0    0 -0.71727745217E+02 -0.91613729583E+02 -0.34219576348E+02  0.17423097425E+03  0.12509000000E+03 0.  0.
         25    1    4    4    0    0  0.72883395372E+02  0.65041285909E+02 -0.27620289046E+02  0.16109856194E+03  0.12509000000E+03 0.  0.
<mgrwt>
<rscale>  2 0.45867163E+03</rscale>
<asrwt>0</asrwt>
<pdfrwt beam="1">  1       21 0.26746936E-01 0.45867163E+03</pdfrwt>
<pdfrwt beam="2">  1       21 0.42525742E-01 0.45867163E+03</pdfrwt>
<totfact> 0.65430960E+04</totfact>
</mgrwt>
</event>
<event>
 7    0  0.4748297E-002  0.4553456E+03  0.7546771E-02  0.1026140E+00
         21   -1    0    0  502  501  0.00000000000E+00  0.00000000000E+00  0.11803655883E+03  0.11803655883E+03  0.00000000000E+00 0.  1.
         21   -1    0    0  501  502 -0.00000000000E+00 -0.00000000000E+00 -0.43914277644E+03  0.43914277644E+03  0.00000000000E+00 0.  1.
      99926    2    1    2    0    0  0.35527136788E-14 -0.14210854715E-13 -0.32110621761E+03  0.55717933526E+03  0.45534559255E+03 0.  0.
      99925    2    3    3    0    0 -0.22752923040E+02  0.11069643281E+03 -0.18862070184E+03  0.34277011034E+03  0.26294901338E+03 0.  0.
         25    1    4    4    0    0 -0.16344343173E+02  0.98208575652E+02 -0.11510676357E+03  0.19700034773E+03  0.12509000000E+03 0.  0.
         25    1    4    4    0    0 -0.64085798671E+01  0.12487857158E+02 -0.73513938270E+02  0.14576976261E+03  0.12509000000E+03 0.  0.
         25    1    3    3    0    0  0.22752923040E+02 -0.11069643281E+03 -0.13248551577E+03  0.21440922492E+03  0.12509000000E+03 0.  0.
<mgrwt>
<rscale>  2 0.45534559E+03</rscale>
<asrwt>0</asrwt>
<pdfrwt beam="1">  1       21 0.17358318E-01 0.45534559E+03</pdfrwt>
<pdfrwt beam="2">  1       21 0.64579820E-01 0.45534559E+03</pdfrwt>
<totfact> 0.61227020E+04</totfact>
</mgrwt>
</event>
<event>
 7    0  0.4748297E-002  0.4519290E+03  0.7546771E-02  0.1027148E+00
         21   -1    0    0  502  501  0.00000000000E+00  0.00000000000E+00  0.33196468658E+04  0.33196468658E+04  0.00000000000E+00 0.  1.
         21   -1    0    0  501  502 -0.00000000000E+00 -0.00000000000E+00 -0.15381142324E+02  0.15381142324E+02  0.00000000000E+00 0.  1.
      99926    2    1    2    0    0  0.17763568394E-14  0.71054273576E-14  0.33042657235E+04  0.33350280082E+04  0.45192902500E+03 0.  0.
      99925    2    3    3    0    0 -0.14574595499E+02  0.40779563334E+02  0.28332126847E+04  0.28457286467E+04  0.26306277287E+03 0.  0.
         25    1    4    4    0    0 -0.16392621470E+02  0.58420746131E+02  0.13471823545E+04  0.13543372940E+04  0.12509000000E+03 0.  0.
         25    1    3    3    0    0  0.14574595499E+02 -0.40779563334E+02  0.47105303881E+03  0.48929936143E+03  0.12509000000E+03 0.  0.
         25    1    4    4    0    0  0.18180259703E+01 -0.17641182797E+02  0.14860303302E+04  0.14913913527E+04  0.12509000000E+03 0.  0.
<mgrwt>
<rscale>  2 0.45192902E+03</rscale>
<asrwt>0</asrwt>
<pdfrwt beam="1">  1       21 0.48818287E+00 0.45192902E+03</pdfrwt>
<pdfrwt beam="2">  1       21 0.22619350E-02 0.45192902E+03</pdfrwt>
<totfact> 0.18164410E+03</totfact>
</mgrwt>
</event>
<event>
 7    0  0.4748297E-002  0.4526423E+03  0.7546771E-02  0.1026937E+00
         21   -1    0    0  502  501  0.00000000000E+00  0.00000000000E+00  0.21892002126E+02  0.21892002126E+02  0.00000000000E+00 0.  1.
         21   -1    0    0  501  502 -0.00000000000E+00 -0.00000000000E+00 -0.23397246020E+04  0.23397246020E+04  0.00000000000E+00 0.  1.
      99926    2    1    2    0    0  0.00000000000E+00  0.00000000000E+00 -0.23178325999E+04  0.23616166042E+04  0.45264226918E+03 0.  0.
      99925    2    3    3    0    0 -0.51392404270E+02 -0.90454339933E+02 -0.12600230722E+04  0.12913681882E+04  0.26296480415E+03 0.  0.
         25    1    4    4    0    0 -0.25935120013E+02 -0.88031412606E+01 -0.67495595524E+03  0.68699576080E+03  0.12509000000E+03 0.  0.
         25    1    4    4    0    0 -0.25457284257E+02 -0.81651198672E+02 -0.58506711697E+03  0.60437242742E+03  0.12509000000E+03 0.  0.
         25    1    3    3    0    0  0.51392404270E+02  0.90454339933E+02 -0.10578095277E+04  0.10702484159E+04  0.12509000000E+03 0.  0.
<mgrwt>
<rscale>  2 0.45264227E+03</rscale>
<asrwt>0</asrwt>
<pdfrwt beam="1">  1       21 0.32194122E-02 0.45264227E+03</pdfrwt>
<pdfrwt beam="2">  1       21 0.34407713E+00 0.45264227E+03</pdfrwt>
<totfact> 0.88137118E+03</totfact>
</mgrwt>
</event>
<event>
 7    0  0.4748297E-002  0.4535986E+03  0.7546771E-02  0.1026654E+00
         21   -1    0    0  502  501  0.00000000000E+00  0.00000000000E+00  0.13515015335E+04  0.13515015335E+04  0.00000000000E+00 0. -1.
         21   -1    0    0  501  502 -0.00000000000E+00 -0.00000000000E+00 -0.38059833904E+02  0.38059833904E+02  0.00000000000E+00 0. -1.
      99926    2    1    2    0    0  0.00000000000E+00  0.00000000000E+00  0.13134416996E+04  0.13895613674E+04  0.45359860620E+03 0.  0.
      99925    2    3    3    0    0  0.10732096494E+03 -0.10018131608E+02  0.73582924094E+03  0.78881032664E+03  0.26298081133E+03 0.  0.
         25    1    3    3    0    0 -0.10732096494E+03  0.10018131608E+02  0.57761245869E+03  0.60075104079E+03  0.12509000000E+03 0.  0.
         25    1    4    4    0    0  0.48087356434E+02  0.61292180267E+00  0.47244318652E+03  0.49108333520E+03  0.12509000000E+03 0.  0.
         25    1    4    4    0    0  0.59233608505E+02 -0.10631053411E+02  0.26338605442E+03  0.29772699144E+03  0.12509000000E+03 0.  0.
<mgrwt>
<rscale>  2 0.45359861E+03</rscale>
<asrwt>0</asrwt>
<pdfrwt beam="1">  1       21 0.19875019E+00 0.45359861E+03</pdfrwt>
<pdfrwt beam="2">  1       21 0.55970353E-02 0.45359861E+03</pdfrwt>
<totfact> 0.26903323E+04</totfact>
</mgrwt>
</event>
<event>
 7    0  0.4748297E-002  0.4557076E+03  0.7546771E-02  0.1026034E+00
         21   -1    0    0  502  501  0.00000000000E+00  0.00000000000E+00  0.43198125132E+02  0.43198125132E+02  0.00000000000E+00 0. -1.
         21   -1    0    0  501  502 -0.00000000000E+00 -0.00000000000E+00 -0.12018425105E+04  0.12018425105E+04  0.00000000000E+00 0. -1.
      99926    2    1    2    0    0  0.00000000000E+00 -0.14210854715E-13 -0.11586443854E+04  0.12450406357E+04  0.45570755166E+03 0.  0.
      99925    2    3    3    0    0 -0.35527990898E+02  0.73422476805E+02 -0.51170597301E+03  0.58109039975E+03  0.26300180919E+03 0.  0.
         25    1    3    3    0    0  0.35527990898E+02 -0.73422476805E+02 -0.64693841240E+03  0.66395023592E+03  0.12509000000E+03 0.  0.
         25    1    4    4    0    0 -0.57573543682E+02  0.35902913562E+02 -0.24568615119E+03  0.28392415382E+03  0.12509000000E+03 0.  0.
         25    1    4    4    0    0  0.22045552784E+02  0.37519563244E+02 -0.26601982182E+03  0.29716624594E+03  0.12509000000E+03 0.  0.
<mgrwt>
<rscale>  2 0.45570755E+03</rscale>
<asrwt>0</asrwt>
<pdfrwt beam="1">  1       21 0.63526668E-02 0.45570755E+03</pdfrwt>
<pdfrwt beam="2">  1       21 0.17674151E+00 0.45570755E+03</pdfrwt>
<totfact> 0.30584720E+04</totfact>
</mgrwt>
</event>
<event>
 7    0  0.4748297E-002  0.4556156E+03  0.7546771E-02  0.1026061E+00
         21   -1    0    0  502  501  0.00000000000E+00  0.00000000000E+00  0.25680012050E+02  0.25680012050E+02  0.00000000000E+00 0. -1.
         21   -1    0    0  501  502 -0.00000000000E+00 -0.00000000000E+00 -0.20208869244E+04  0.20208869244E+04  0.00000000000E+00 0. -1.
      99926    2    1    2    0    0  0.00000000000E+00  0.00000000000E+00 -0.19952069124E+04  0.20465669365E+04  0.45561562998E+03 0.  0.
      99925    2    3    3    0    0 -0.20254029829E+02  0.10315592241E+03 -0.14495319703E+04  0.14769530141E+04  0.26305114119E+03 0.  0.
         25    1    3    3    0    0  0.20254029829E+02 -0.10315592241E+03 -0.54567494204E+03  0.56961392234E+03  0.12509000000E+03 0.  0.
         25    1    4    4    0    0 -0.26125249215E+02  0.20007415092E+02 -0.78907314211E+03  0.79960412518E+03  0.12509000000E+03 0.  0.
         25    1    4    4    0    0  0.58712193862E+01  0.83148507320E+02 -0.66045882821E+03  0.67734888893E+03  0.12509000000E+03 0.  0.
<mgrwt>
<rscale>  2 0.45561563E+03</rscale>
<asrwt>0</asrwt>
<pdfrwt beam="1">  1       21 0.37764716E-02 0.45561563E+03</pdfrwt>
<pdfrwt beam="2">  1       21 0.29718931E+00 0.45561563E+03</pdfrwt>
<totfact> 0.12902517E+04</totfact>
</mgrwt>
</event>
<event>
 7    0  0.4748297E-002  0.4114952E+03  0.7546771E-02  0.1039870E+00
         21   -1    0    0  502  501  0.00000000000E+00  0.00000000000E+00  0.56928428160E+02  0.56928428160E+02  0.00000000000E+00 0.  1.
         21   -1    0    0  501  502 -0.00000000000E+00 -0.00000000000E+00 -0.74360162407E+03  0.74360162407E+03  0.00000000000E+00 0.  1.
      99926    2    1    2    0    0  0.88817841970E-15 -0.35527136788E-14 -0.68667319591E+03  0.80053005223E+03  0.41149518410E+03 0.  0.
      99925    2    3    3    0    0  0.68295685505E+01 -0.17126320773E+02 -0.33183257904E+03  0.42383478368E+03  0.26302682272E+03 0.  0.
         25    1    4    4    0    0  0.62450048377E+01 -0.24804417898E+02 -0.22700093045E+03  0.26044421621E+03  0.12509000000E+03 0.  0.
         25    1    3    3    0    0 -0.68295685505E+01  0.17126320773E+02 -0.35484061687E+03  0.37669526856E+03  0.12509000000E+03 0.  0.
         25    1    4    4    0    0  0.58456371284E+00  0.76780971251E+01 -0.10483164859E+03  0.16339056746E+03  0.12509000000E+03 0.  0.
<mgrwt>
<rscale>  2 0.41149518E+03</rscale>
<asrwt>0</asrwt>
<pdfrwt beam="1">  1       21 0.83718284E-02 0.41149518E+03</pdfrwt>
<pdfrwt beam="2">  1       21 0.10935317E+00 0.41149518E+03</pdfrwt>
<totfact> 0.68210985E+04</totfact>
</mgrwt>
</event>
<event>
 7    0  0.4748297E-002  0.4488792E+03  0.7546771E-02  0.1028057E+00
         21   -1    0    0  502  501  0.00000000000E+00  0.00000000000E+00  0.27295429575E+02  0.27295429575E+02  0.00000000000E+00 0.  1.
         21   -1    0    0  501  502 -0.00000000000E+00 -0.00000000000E+00 -0.18454785090E+04  0.18454785090E+04  0.00000000000E+00 0.  1.
      99926    2    1    2    0    0  0.00000000000E+00  0.17763568394E-14 -0.18181830794E+04  0.18727739386E+04  0.44887917605E+03 0.  0.
      99925    2    3    3    0    0 -0.94726215869E+02  0.11223395253E+02 -0.94565106983E+03  0.98617445941E+03  0.26303060271E+03 0.  0.
         25    1    4    4    0    0 -0.30852401527E+02 -0.13996847093E+02 -0.33802776823E+03  0.36201942296E+03  0.12509000000E+03 0.  0.
         25    1    4    4    0    0 -0.63873814342E+02  0.25220242346E+02 -0.60762330160E+03  0.62415503645E+03  0.12509000000E+03 0.  0.
         25    1    3    3    0    0  0.94726215869E+02 -0.11223395253E+02 -0.87253200958E+03  0.88659947914E+03  0.12509000000E+03 0.  0.
<mgrwt>
<rscale>  2 0.44887918E+03</rscale>
<asrwt>0</asrwt>
<pdfrwt beam="1">  1       21 0.40140344E-02 0.44887918E+03</pdfrwt>
<pdfrwt beam="2">  1       21 0.27139386E+00 0.44887918E+03</pdfrwt>
<totfact> 0.16678536E+04</totfact>
</mgrwt>
</event>
<event>
 7    0  0.4748297E-002  0.4548750E+03  0.7546771E-02  0.1026278E+00
         21   -1    0    0  502  501  0.00000000000E+00  0.00000000000E+00  0.77764004967E+02  0.77764004967E+02  0.00000000000E+00 0.  1.
         21   -1    0    0  501  502 -0.00000000000E+00 -0.00000000000E+00 -0.66518961510E+03  0.66518961510E+03  0.00000000000E+00 0.  1.
      99926    2    1    2    0    0  0.00000000000E+00  0.00000000000E+00 -0.58742561013E+03  0.74295362007E+03  0.45487496538E+03 0.  0.
      99925    2    3    3    0    0 -0.17784404095E+02  0.70875016865E+02 -0.22888181865E+03  0.35624867886E+03  0.26303361237E+03 0.  0.
         25    1    4    4    0    0  0.17572744103E+01  0.12037893612E+02 -0.15072867282E+03  0.19625147083E+03  0.12509000000E+03 0.  0.
         25    1    4    4    0    0 -0.19541678506E+02  0.58837123252E+02 -0.78153145836E+02  0.15999720802E+03  0.12509000000E+03 0.  0.
         25    1    3    3    0    0  0.17784404095E+02 -0.70875016865E+02 -0.35854379148E+03  0.38670494121E+03  0.12509000000E+03 0.  0.
<mgrwt>
<rscale>  2 0.45487497E+03</rscale>
<asrwt>0</asrwt>
<pdfrwt beam="1">  1       21 0.11435883E-01 0.45487497E+03</pdfrwt>
<pdfrwt beam="2">  1       21 0.97822004E-01 0.45487497E+03</pdfrwt>
<totfact> 0.50681914E+04</totfact>
</mgrwt>
</event>
<event>
 7    0  0.4748297E-002  0.4552912E+03  0.7546771E-02  0.1026156E+00
         21   -1    0    0  502  501  0.00000000000E+00  0.00000000000E+00  0.35304158541E+03  0.35304158541E+03  0.00000000000E+00 0. -1.
         21   -1    0    0  501  502 -0.00000000000E+00 -0.00000000000E+00 -0.14678870074E+03  0.14678870074E+03  0.00000000000E+00 0. -1.
      99926    2    1    2    0    0  0.00000000000E+00  0.00000000000E+00  0.20625288466E+03  0.49983028615E+03  0.45529118432E+03 0.  0.
      99925    2    3    3    0    0  0.32256502232E+02  0.10489775762E+03  0.16051000111E+03  0.32725004109E+03  0.26322064403E+03 0.  0.
         25    1    4    4    0    0  0.54357019337E+02  0.49488948435E+02  0.65287872299E+02  0.15910328701E+03  0.12509000000E+03 0.  0.
         25    1    3    3    0    0 -0.32256502232E+02 -0.10489775762E+03  0.45742883558E+02  0.17258024506E+03  0.12509000000E+03 0.  0.
         25    1    4    4    0    0 -0.22100517105E+02  0.55408809186E+02  0.95222128806E+02  0.16814675408E+03  0.12509000000E+03 0.  0.
<mgrwt>
<rscale>  2 0.45529118E+03</rscale>
<asrwt>0</asrwt>
<pdfrwt beam="1">  1       21 0.51917880E-01 0.45529118E+03</pdfrwt>
<pdfrwt beam="2">  1       21 0.21586574E-01 0.45529118E+03</pdfrwt>
<totfact> 0.65131906E+04</totfact>
</mgrwt>
</event>
<event>
 7    0  0.4748297E-002  0.4494592E+03  0.7546771E-02  0.1027883E+00
         21   -1    0    0  502  501  0.00000000000E+00  0.00000000000E+00  0.93931114385E+03  0.93931114385E+03  0.00000000000E+00 0.  1.
         21   -1    0    0  501  502 -0.00000000000E+00 -0.00000000000E+00 -0.53766416801E+02  0.53766416801E+02  0.00000000000E+00 0.  1.
      99926    2    1    2    0    0  0.00000000000E+00 -0.17763568394E-14  0.88554472704E+03  0.99307756065E+03  0.44945920601E+03 0.  0.
      99925    2    3    3    0    0  0.60373158757E+01  0.11899067887E+02  0.32381396294E+03  0.41743270795E+03  0.26309037624E+03 0.  0.
         25    1    4    4    0    0 -0.72323961328E+00  0.44439556726E+02  0.18422403270E+03  0.22707135354E+03  0.12509000000E+03 0.  0.
         25    1    3    3    0    0 -0.60373158757E+01 -0.11899067887E+02  0.56173076410E+03  0.57564485270E+03  0.12509000000E+03 0.  0.
         25    1    4    4    0    0  0.67605554890E+01 -0.32540488840E+02  0.13958993025E+03  0.19036135440E+03  0.12509000000E+03 0.  0.
<mgrwt>
<rscale>  2 0.44945921E+03</rscale>
<asrwt>0</asrwt>
<pdfrwt beam="1">  1       21 0.13813398E+00 0.44945921E+03</pdfrwt>
<pdfrwt beam="2">  1       21 0.79068266E-02 0.44945921E+03</pdfrwt>
<totfact> 0.41191033E+04</totfact>
</mgrwt>
</event>
<event>
 7    0  0.4748297E-002  0.4277702E+03  0.7546771E-02  0.1034567E+00
         21   -1    0    0  502  501  0.00000000000E+00  0.00000000000E+00  0.25559697979E+03  0.25559697979E+03  0.00000000000E+00 0.  1.
         21   -1    0    0  501  502 -0.00000000000E+00 -0.00000000000E+00 -0.17898033564E+03  0.17898033564E+03  0.00000000000E+00 0.  1.
      99926    2    1    2    0    0  0.35527136788E-14  0.00000000000E+00  0.76616644151E+02  0.43457731543E+03  0.42777018704E+03 0.  0.
      99925    2    3    3    0    0  0.10980090429E+02 -0.44091159579E+02  0.12270365859E+03  0.29373657651E+03  0.26298364171E+03 0.  0.
         25    1    3    3    0    0 -0.10980090429E+02  0.44091159579E+02 -0.46087014444E+02  0.14084073892E+03  0.12509000000E+03 0.  0.
         25    1    4    4    0    0 -0.27727111848E+02 -0.25868706209E+02  0.35792011399E+02  0.13552327797E+03  0.12509000000E+03 0.  0.
         25    1    4    4    0    0  0.38707202278E+02 -0.18222453370E+02  0.86911647195E+02  0.15821329853E+03  0.12509000000E+03 0.  0.
<mgrwt>
<rscale>  2 0.42777019E+03</rscale>
<asrwt>0</asrwt>
<pdfrwt beam="1">  1       21 0.37587791E-01 0.42777019E+03</pdfrwt>
<pdfrwt beam="2">  1       21 0.26320637E-01 0.42777019E+03</pdfrwt>
<totfact> 0.87601919E+04</totfact>
</mgrwt>
</event>
<event>
 7    0  0.4748297E-002  0.4528183E+03  0.7546771E-02  0.1026885E+00
         21   -1    0    0  502  501  0.00000000000E+00  0.00000000000E+00  0.23218488620E+03  0.23218488620E+03  0.00000000000E+00 0.  1.
         21   -1    0    0  501  502 -0.00000000000E+00 -0.00000000000E+00 -0.22077711116E+03  0.22077711116E+03  0.00000000000E+00 0.  1.
      99926    2    1    2    0    0 -0.35527136788E-14  0.00000000000E+00  0.11407775031E+02  0.45296199736E+03  0.45281832308E+03 0.  0.
      99925    2    3    3    0    0  0.15849383101E+02 -0.98587154121E+02 -0.41538349831E+02  0.28437543164E+03  0.26300821606E+03 0.  0.
         25    1    3    3    0    0 -0.15849383101E+02  0.98587154121E+02  0.52946124863E+02  0.16858656572E+03  0.12509000000E+03 0.  0.
         25    1    4    4    0    0 -0.31242994226E+02 -0.56657456269E+02 -0.28497992512E+02  0.14368658851E+03  0.12509000000E+03 0.  0.
         25    1    4    4    0    0  0.47092377327E+02 -0.41929697852E+02 -0.13040357320E+02  0.14068884314E+03  0.12509000000E+03 0.  0.
<mgrwt>
<rscale>  2 0.45281832E+03</rscale>
<asrwt>0</asrwt>
<pdfrwt beam="1">  1       21 0.34144836E-01 0.45281832E+03</pdfrwt>
<pdfrwt beam="2">  1       21 0.32467222E-01 0.45281832E+03</pdfrwt>
<totfact> 0.69904314E+04</totfact>
</mgrwt>
</event>
<event>
 7    0  0.4748297E-002  0.4164750E+03  0.7546771E-02  0.1038220E+00
         21   -1    0    0  502  501  0.00000000000E+00  0.00000000000E+00  0.10977246849E+03  0.10977246849E+03  0.00000000000E+00 0. -1.
         21   -1    0    0  501  502 -0.00000000000E+00 -0.00000000000E+00 -0.39502493767E+03  0.39502493767E+03  0.00000000000E+00 0. -1.
      99926    2    1    2    0    0 -0.71054273576E-14  0.00000000000E+00 -0.28525246918E+03  0.50479740616E+03  0.41647502938E+03 0.  0.
      99925    2    3    3    0    0  0.31265672883E+02  0.15204933535E+02 -0.26264050693E+03  0.37301143862E+03  0.26258096876E+03 0.  0.
         25    1    3    3    0    0 -0.31265672883E+02 -0.15204933535E+02 -0.22611962248E+02  0.13178596754E+03  0.12509000000E+03 0.  0.
         25    1    4    4    0    0 -0.14968062031E+02  0.27482515945E+02 -0.10598168736E+03  0.16691002882E+03  0.12509000000E+03 0.  0.
         25    1    4    4    0    0  0.46233734914E+02 -0.12277582410E+02 -0.15665881957E+03  0.20610140980E+03  0.12509000000E+03 0.  0.
<mgrwt>
<rscale>  2 0.41647503E+03</rscale>
<asrwt>0</asrwt>
<pdfrwt beam="1">  1       21 0.16143010E-01 0.41647503E+03</pdfrwt>
<pdfrwt beam="2">  1       21 0.58091903E-01 0.41647503E+03</pdfrwt>
<totfact> 0.89222611E+04</totfact>
</mgrwt>
</event>
<event>
 7    0  0.4748297E-002  0.4512574E+03  0.7546771E-02  0.1027348E+00
         21   -1    0    0  502  501  0.00000000000E+00  0.00000000000E+00  0.20360997029E+03  0.20360997029E+03  0.00000000000E+00 0. -1.
         21   -1    0    0  501  502 -0.00000000000E+00 -0.00000000000E+00 -0.25002858701E+03  0.25002858701E+03  0.00000000000E+00 0. -1.
      99926    2    1    2    0    0  0.00000000000E+00  0.00000000000E+00 -0.46418616727E+02  0.45363855730E+03  0.45125741289E+03 0.  0.
      99925    2    3    3    0    0 -0.90616645124E+02  0.59381190659E+02 -0.13150212898E+02  0.28484342416E+03  0.26310709989E+03 0.  0.
         25    1    4    4    0    0 -0.79349395209E+02  0.21916713319E+02 -0.29929389495E+02  0.15270869425E+03  0.12509000000E+03 0.  0.
         25    1    3    3    0    0  0.90616645124E+02 -0.59381190659E+02 -0.33268403829E+02  0.16879513314E+03  0.12509000000E+03 0.  0.
         25    1    4    4    0    0 -0.11267249915E+02  0.37464477340E+02  0.16779176597E+02  0.13213472992E+03  0.12509000000E+03 0.  0.
<mgrwt>
<rscale>  2 0.45125741E+03</rscale>
<asrwt>0</asrwt>
<pdfrwt beam="1">  1       21 0.29942643E-01 0.45125741E+03</pdfrwt>
<pdfrwt beam="2">  1       21 0.36768910E-01 0.45125741E+03</pdfrwt>
<totfact> 0.70734298E+04</totfact>
</mgrwt>
</event>
<event>
 7    0  0.4748297E-002  0.4532886E+03  0.7546771E-02  0.1026746E+00
         21   -1    0    0  502  501  0.00000000000E+00  0.00000000000E+00  0.17391218761E+03  0.17391218761E+03  0.00000000000E+00 0.  1.
         21   -1    0    0  501  502 -0.00000000000E+00 -0.00000000000E+00 -0.29536535448E+03  0.29536535448E+03  0.00000000000E+00 0.  1.
      99926    2    1    2    0    0  0.00000000000E+00 -0.14210854715E-13 -0.12145316687E+03  0.46927754209E+03  0.45328858332E+03 0.  0.
      99925    2    3    3    0    0  0.49398418424E+02 -0.74936701472E+02 -0.80330196436E+01  0.27805162631E+03  0.26304460557E+03 0.  0.
         25    1    4    4    0    0  0.15616717124E+02 -0.37860060894E+02 -0.43615694341E+02  0.13866182949E+03  0.12509000000E+03 0.  0.
         25    1    3    3    0    0 -0.49398418424E+02  0.74936701472E+02 -0.11342014722E+03  0.19122591578E+03  0.12509000000E+03 0.  0.
         25    1    4    4    0    0  0.33781701300E+02 -0.37076640577E+02  0.35582674697E+02  0.13938979682E+03  0.12509000000E+03 0.  0.
<mgrwt>
<rscale>  2 0.45328858E+03</rscale>
<asrwt>0</asrwt>
<pdfrwt beam="1">  1       21 0.25575322E-01 0.45328858E+03</pdfrwt>
<pdfrwt beam="2">  1       21 0.43436081E-01 0.45328858E+03</pdfrwt>
<totfact> 0.68413624E+04</totfact>
</mgrwt>
</event>
<event>
 7    0  0.4748297E-002  0.4575492E+03  0.7546771E-02  0.1025494E+00
         21   -1    0    0  502  501  0.00000000000E+00  0.00000000000E+00  0.31937943040E+03  0.31937943040E+03  0.00000000000E+00 0. -1.
         21   -1    0    0  501  502 -0.00000000000E+00 -0.00000000000E+00 -0.16387351156E+03  0.16387351156E+03  0.00000000000E+00 0. -1.
      99926    2    1    2    0    0  0.00000000000E+00  0.00000000000E+00  0.15550591884E+03  0.48325294195E+03  0.45754924884E+03 0.  0.
      99925    2    3    3    0    0 -0.74137230977E+02  0.88383668916E+02  0.91113586303E+02  0.30131371436E+03  0.26302141910E+03 0.  0.
         25    1    4    4    0    0 -0.63791946133E+02  0.59300695132E+02  0.18841233889E+02  0.15358543235E+03  0.12509000000E+03 0.  0.
         25    1    4    4    0    0 -0.10345284844E+02  0.29082973785E+02  0.72272352414E+02  0.14772828201E+03  0.12509000000E+03 0.  0.
         25    1    3    3    0    0  0.74137230977E+02 -0.88383668916E+02  0.64392332536E+02  0.18193922759E+03  0.12509000000E+03 0.  0.
<mgrwt>
<rscale>  2 0.45754925E+03</rscale>
<asrwt>0</asrwt>
<pdfrwt beam="1">  1       21 0.46967563E-01 0.45754925E+03</pdfrwt>
<pdfrwt beam="2">  1       21 0.24099046E-01 0.45754925E+03</pdfrwt>
<totfact> 0.65135989E+04</totfact>
</mgrwt>
</event>
<event>
 7    0  0.4748297E-002  0.4477779E+03  0.7546771E-02  0.1028387E+00
         21   -1    0    0  502  501  0.00000000000E+00  0.00000000000E+00  0.10732075697E+03  0.10732075697E+03  0.00000000000E+00 0.  1.
         21   -1    0    0  501  502 -0.00000000000E+00 -0.00000000000E+00 -0.46706951589E+03  0.46706951589E+03  0.00000000000E+00 0.  1.
      99926    2    1    2    0    0  0.00000000000E+00  0.14210854715E-13 -0.35974875892E+03  0.57439027287E+03  0.44777786459E+03 0.  0.
      99925    2    3    3    0    0 -0.99127531960E+01 -0.77033567378E+02 -0.13503692377E+03  0.30573556858E+03  0.26307191780E+03 0.  0.
         25    1    4    4    0    0 -0.92855659720E+01 -0.10663953142E+02 -0.29965419801E+02  0.12940392620E+03  0.12509000000E+03 0.  0.
         25    1    4    4    0    0 -0.62718722401E+00 -0.66369614237E+02 -0.10507150397E+03  0.17633164238E+03  0.12509000000E+03 0.  0.
         25    1    3    3    0    0  0.99127531960E+01  0.77033567378E+02 -0.22471183515E+03  0.26865470429E+03  0.12509000000E+03 0.  0.
<mgrwt>
<rscale>  2 0.44777786E+03</rscale>
<asrwt>0</asrwt>
<pdfrwt beam="1">  1       21 0.15782465E-01 0.44777786E+03</pdfrwt>
<pdfrwt beam="2">  1       21 0.68686692E-01 0.44777786E+03</pdfrwt>
<totfact> 0.63851763E+04</totfact>
</mgrwt>
</event>
<event>
 7    0  0.4748297E-002  0.4368648E+03  0.7546771E-02  0.1031713E+00
         21   -1    0    0  502  501  0.00000000000E+00  0.00000000000E+00  0.21446817987E+03  0.21446817987E+03  0.00000000000E+00 0.  1.
         21   -1    0    0  501  502 -0.00000000000E+00 -0.00000000000E+00 -0.22246992340E+03  0.22246992340E+03  0.00000000000E+00 0.  1.
      99926    2    1    2    0    0  0.00000000000E+00  0.00000000000E+00 -0.80017435324E+01  0.43693810327E+03  0.43686482829E+03 0.  0.
      99925    2    3    3    0    0  0.86354451352E+02 -0.26729797655E+02  0.24616209464E+02  0.27919460164E+03  0.26300588295E+03 0.  0.
         25    1    4    4    0    0  0.71370730253E+02 -0.35384690980E+02 -0.88143954885E+01  0.14856331701E+03  0.12509000000E+03 0.  0.
         25    1    3    3    0    0 -0.86354451352E+02  0.26729797655E+02 -0.32617952996E+02  0.15774350164E+03  0.12509000000E+03 0.  0.
         25    1    4    4    0    0  0.14983721099E+02  0.86548933249E+01  0.33430604952E+02  0.13063128463E+03  0.12509000000E+03 0.  0.
<mgrwt>
<rscale>  2 0.43686483E+03</rscale>
<asrwt>0</asrwt>
<pdfrwt beam="1">  1       21 0.31539438E-01 0.43686483E+03</pdfrwt>
<pdfrwt beam="2">  1       21 0.32716165E-01 0.43686483E+03</pdfrwt>
<totfact> 0.80989697E+04</totfact>
</mgrwt>
</event>
<event>
 7    0  0.4748297E-002  0.4567114E+03  0.7546771E-02  0.1025739E+00
         21   -1    0    0  502  501  0.00000000000E+00  0.00000000000E+00  0.41615030193E+02  0.41615030193E+02  0.00000000000E+00 0.  1.
         21   -1    0    0  501  502 -0.00000000000E+00 -0.00000000000E+00 -0.12530648131E+04  0.12530648131E+04  0.00000000000E+00 0.  1.
      99926    2    1    2    0    0  0.88817841970E-15  0.71054273576E-14 -0.12114497829E+04  0.12946798433E+04  0.45671141887E+03 0.  0.
      99925    2    3    3    0    0  0.56547613896E+01  0.63753867680E+02 -0.49096533934E+03  0.56062134869E+03  0.26296920011E+03 0.  0.
         25    1    4    4    0    0  0.42215179025E+02  0.41844189917E+02 -0.25131291434E+03  0.28694728886E+03  0.12509000000E+03 0.  0.
         25    1    4    4    0    0 -0.36560417635E+02  0.21909677763E+02 -0.23965242500E+03  0.27367405983E+03  0.12509000000E+03 0.  0.
         25    1    3    3    0    0 -0.56547613896E+01 -0.63753867680E+02 -0.72048444357E+03  0.73405849460E+03  0.12509000000E+03 0.  0.
<mgrwt>
<rscale>  2 0.45671142E+03</rscale>
<asrwt>0</asrwt>
<pdfrwt beam="1">  1       21 0.61198564E-02 0.45671142E+03</pdfrwt>
<pdfrwt beam="2">  1       21 0.18427427E+00 0.45671142E+03</pdfrwt>
<totfact> 0.28883238E+04</totfact>
</mgrwt>
</event>
<event>
 7    0  0.4748297E-002  0.4534910E+03  0.7546771E-02  0.1026686E+00
         21   -1    0    0  502  501  0.00000000000E+00  0.00000000000E+00  0.16592932809E+03  0.16592932809E+03  0.00000000000E+00 0. -1.
         21   -1    0    0  501  502 -0.00000000000E+00 -0.00000000000E+00 -0.30985198189E+03  0.30985198189E+03  0.00000000000E+00 0. -1.
      99926    2    1    2    0    0  0.14210854715E-13  0.17763568394E-14 -0.14392265380E+03  0.47578130998E+03  0.45349104142E+03 0.  0.
      99925    2    3    3    0    0 -0.97929149793E+02  0.15676858263E+02 -0.36803850313E+02  0.28353712040E+03  0.26306442744E+03 0.  0.
         25    1    4    4    0    0 -0.69318556292E+02 -0.27006346952E+01  0.15246011224E+02  0.14384819996E+03  0.12509000000E+03 0.  0.
         25    1    3    3    0    0  0.97929149793E+02 -0.15676858263E+02 -0.10711880349E+03  0.19224418957E+03  0.12509000000E+03 0.  0.
         25    1    4    4    0    0 -0.28610593500E+02  0.18377492958E+02 -0.52049861537E+02  0.13968892044E+03  0.12509000000E+03 0.  0.
<mgrwt>
<rscale>  2 0.45349104E+03</rscale>
<asrwt>0</asrwt>
<pdfrwt beam="1">  1       21 0.24401372E-01 0.45349104E+03</pdfrwt>
<pdfrwt beam="2">  1       21 0.45566468E-01 0.45349104E+03</pdfrwt>
<totfact> 0.67817020E+04</totfact>
</mgrwt>
</event>
<event>
 7    0  0.4748297E-002  0.4609142E+03  0.7546771E-02  0.1024516E+00
         21   -1    0    0  502  501  0.00000000000E+00  0.00000000000E+00  0.14474193953E+04  0.14474193953E+04  0.00000000000E+00 0.  1.
         21   -1    0    0  501  502 -0.00000000000E+00 -0.00000000000E+00 -0.36693223918E+02  0.36693223918E+02  0.00000000000E+00 0.  1.
      99926    2    1    2    0    0 -0.88817841970E-15  0.00000000000E+00  0.14107261714E+04  0.14841126192E+04  0.46091423920E+03 0.  0.
      99925    2    3    3    0    0 -0.46436116323E+01 -0.60111641842E+02  0.12119873861E+04  0.12416676038E+04  0.26304000020E+03 0.  0.
         25    1    4    4    0    0 -0.23284579255E+02 -0.10736206224E+02  0.45391560325E+03  0.47153400803E+03  0.12509000000E+03 0.  0.
         25    1    3    3    0    0  0.46436116323E+01  0.60111641842E+02  0.19873878528E+03  0.24244501539E+03  0.12509000000E+03 0.  0.
         25    1    4    4    0    0  0.18640967623E+02 -0.49375435619E+02  0.75807178287E+03  0.77013359582E+03  0.12509000000E+03 0.  0.
<mgrwt>
<rscale>  2 0.46091424E+03</rscale>
<asrwt>0</asrwt>
<pdfrwt beam="1">  1       21 0.21285576E+00 0.46091424E+03</pdfrwt>
<pdfrwt beam="2">  1       21 0.53960633E-02 0.46091424E+03</pdfrwt>
<totfact> 0.23092009E+04</totfact>
</mgrwt>
</event>
<event>
 7    0  0.4748297E-002  0.4551361E+03  0.7546771E-02  0.1026201E+00
         21   -1    0    0  502  501  0.00000000000E+00  0.00000000000E+00  0.13564257352E+03  0.13564257352E+03  0.00000000000E+00 0.  1.
         21   -1    0    0  501  502 -0.00000000000E+00 -0.00000000000E+00 -0.38179173878E+03  0.38179173878E+03  0.00000000000E+00 0.  1.
      99926    2    1    2    0    0  0.00000000000E+00  0.17763568394E-14 -0.24614916526E+03  0.51743431230E+03  0.45513608514E+03 0.  0.
      99925    2    3    3    0    0  0.11194205882E+03  0.15549912811E+02 -0.16863424230E+03  0.33188406115E+03  0.26255798988E+03 0.  0.
         25    1    3    3    0    0 -0.11194205882E+03 -0.15549912811E+02 -0.77514922953E+02  0.18555025115E+03  0.12509000000E+03 0.  0.
         25    1    4    4    0    0  0.75931842186E+02  0.22846222908E+02 -0.52047444773E+02  0.15698420037E+03  0.12509000000E+03 0.  0.
         25    1    4    4    0    0  0.36010216636E+02 -0.72963100969E+01 -0.11658679753E+03  0.17489986078E+03  0.12509000000E+03 0.  0.
<mgrwt>
<rscale>  2 0.45513609E+03</rscale>
<asrwt>0</asrwt>
<pdfrwt beam="1">  1       21 0.19947438E-01 0.45513609E+03</pdfrwt>
<pdfrwt beam="2">  1       21 0.56145843E-01 0.45513609E+03</pdfrwt>
<totfact> 0.63993288E+04</totfact>
</mgrwt>
</event>
<event>
 7    0  0.4748297E-002  0.4516869E+03  0.7546771E-02  0.1027220E+00
         21   -1    0    0  502  501  0.00000000000E+00  0.00000000000E+00  0.64669213023E+02  0.64669213023E+02  0.00000000000E+00 0.  1.
         21   -1    0    0  501  502 -0.00000000000E+00 -0.00000000000E+00 -0.78871010009E+03  0.78871010009E+03  0.00000000000E+00 0.  1.
      99926    2    1    2    0    0  0.00000000000E+00  0.00000000000E+00 -0.72404088707E+03  0.85337931311E+03  0.45168688923E+03 0.  0.
      99925    2    3    3    0    0  0.85120298048E+02  0.13854571831E+02 -0.58600874714E+03  0.64810439001E+03  0.26305063074E+03 0.  0.
         25    1    4    4    0    0  0.86225557047E+01  0.27229343846E+02 -0.30414103986E+03  0.33009856991E+03  0.12509000000E+03 0.  0.
         25    1    4    4    0    0  0.76497742343E+02 -0.13374772016E+02 -0.28186770728E+03  0.31800582010E+03  0.12509000000E+03 0.  0.
         25    1    3    3    0    0 -0.85120298048E+02 -0.13854571831E+02 -0.13803213993E+03  0.20527492310E+03  0.12509000000E+03 0.  0.
<mgrwt>
<rscale>  2 0.45168689E+03</rscale>
<asrwt>0</asrwt>
<pdfrwt beam="1">  1       21 0.95101786E-02 0.45168689E+03</pdfrwt>
<pdfrwt beam="2">  1       21 0.11598678E+00 0.45168689E+03</pdfrwt>
<totfact> 0.46484933E+04</totfact>
</mgrwt>
</event>
<event>
 7    0  0.4748297E-002  0.4674092E+03  0.7546771E-02  0.1022654E+00
         21   -1    0    0  502  501  0.00000000000E+00  0.00000000000E+00  0.29259257083E+03  0.29259257083E+03  0.00000000000E+00 0.  1.
         21   -1    0    0  501  502 -0.00000000000E+00 -0.00000000000E+00 -0.18666858938E+03  0.18666858938E+03  0.00000000000E+00 0.  1.
      99926    2    1    2    0    0  0.00000000000E+00  0.00000000000E+00  0.10592398145E+03  0.47926116021E+03  0.46740921026E+03 0.  0.
      99925    2    3    3    0    0 -0.65765509123E+02  0.67412520863E+02 -0.17284980702E+02  0.28001882883E+03  0.26313917189E+03 0.  0.
         25    1    4    4    0    0 -0.48132080917E+02  0.73170150306E+02 -0.16166941323E+02  0.15355600347E+03  0.12509000000E+03 0.  0.
         25    1    3    3    0    0  0.65765509123E+02 -0.67412520863E+02  0.12320896215E+03  0.19924233138E+03  0.12509000000E+03 0.  0.
         25    1    4    4    0    0 -0.17633428206E+02 -0.57576294427E+01 -0.11180393792E+01  0.12646282536E+03  0.12509000000E+03 0.  0.
<mgrwt>
<rscale>  2 0.46740921E+03</rscale>
<asrwt>0</asrwt>
<pdfrwt beam="1">  1       21 0.43028319E-01 0.46740921E+03</pdfrwt>
<pdfrwt beam="2">  1       21 0.27451263E-01 0.46740921E+03</pdfrwt>
<totfact> 0.60566369E+04</totfact>
</mgrwt>
</event>
<event>
 7    0  0.4748297E-002  0.4542809E+03  0.7546771E-02  0.1026453E+00
         21   -1    0    0  502  501  0.00000000000E+00  0.00000000000E+00  0.37728526990E+02  0.37728526990E+02  0.00000000000E+00 0.  1.
         21   -1    0    0  501  502 -0.00000000000E+00 -0.00000000000E+00 -0.13674744146E+04  0.13674744146E+04  0.00000000000E+00 0.  1.
      99926    2    1    2    0    0  0.00000000000E+00  0.00000000000E+00 -0.13297458876E+04  0.14052029416E+04  0.45428094990E+03 0.  0.
      99925    2    3    3    0    0 -0.73763651648E+02  0.67457824127E+02 -0.99804416577E+03  0.10368754043E+04  0.26272954328E+03 0.  0.
         25    1    4    4    0    0 -0.68585007602E+02  0.61154533653E+02 -0.52020251404E+03  0.54286457240E+03  0.12509000000E+03 0.  0.
         25    1    3    3    0    0  0.73763651648E+02 -0.67457824127E+02 -0.33170172183E+03  0.36832753726E+03  0.12509000000E+03 0.  0.
         25    1    4    4    0    0 -0.51786440463E+01  0.63032904739E+01 -0.47784165174E+03  0.49401083193E+03  0.12509000000E+03 0.  0.
<mgrwt>
<rscale>  2 0.45428095E+03</rscale>
<asrwt>0</asrwt>
<pdfrwt beam="1">  1       21 0.55483118E-02 0.45428095E+03</pdfrwt>
<pdfrwt beam="2">  1       21 0.20109922E+00 0.45428095E+03</pdfrwt>
<totfact> 0.26340552E+04</totfact>
</mgrwt>
</event>
<event>
 7    0  0.4748297E-002  0.4469110E+03  0.7546771E-02  0.1028647E+00
         21   -1    0    0  502  501  0.00000000000E+00  0.00000000000E+00  0.12188491737E+03  0.12188491737E+03  0.00000000000E+00 0.  1.
         21   -1    0    0  501  502 -0.00000000000E+00 -0.00000000000E+00 -0.40966804991E+03  0.40966804991E+03  0.00000000000E+00 0.  1.
      99926    2    1    2    0    0  0.00000000000E+00  0.00000000000E+00 -0.28778313255E+03  0.53155296728E+03  0.44691098179E+03 0.  0.
      99925    2    3    3    0    0  0.51380950464E+02 -0.18219898454E+02 -0.28905974479E+03  0.39509379900E+03  0.26376430232E+03 0.  0.
         25    1    4    4    0    0  0.26600191947E+02 -0.25192780924E+02 -0.20245933851E+03  0.24078940647E+03  0.12509000000E+03 0.  0.
         25    1    3    3    0    0 -0.51380950464E+02  0.18219898454E+02  0.12766122439E+01  0.13645916829E+03  0.12509000000E+03 0.  0.
         25    1    4    4    0    0  0.24780758517E+02  0.69728824707E+01 -0.86600406284E+02  0.15430439252E+03  0.12509000000E+03 0.  0.
<mgrwt>
<rscale>  2 0.44691098E+03</rscale>
<asrwt>0</asrwt>
<pdfrwt beam="1">  1       21 0.17924253E-01 0.44691098E+03</pdfrwt>
<pdfrwt beam="2">  1       21 0.60245301E-01 0.44691098E+03</pdfrwt>
<totfact> 0.67309536E+04</totfact>
</mgrwt>
</event>
<event>
 7    0  0.4748297E-002  0.4382173E+03  0.7546771E-02  0.1031295E+00
         21   -1    0    0  502  501  0.00000000000E+00  0.00000000000E+00  0.75502171939E+02  0.75502171939E+02  0.00000000000E+00 0.  1.
         21   -1    0    0  501  502 -0.00000000000E+00 -0.00000000000E+00 -0.63585710751E+03  0.63585710751E+03  0.00000000000E+00 0.  1.
      99926    2    1    2    0    0  0.00000000000E+00  0.00000000000E+00 -0.56035493557E+03  0.71135927945E+03  0.43821726420E+03 0.  0.
      99925    2    3    3    0    0  0.89997669001E+02  0.34950962332E+02 -0.35804000822E+03  0.45464934953E+03  0.26304416614E+03 0.  0.
         25    1    4    4    0    0  0.16304825052E+02 -0.34669901487E+01 -0.20120834088E+03  0.23750825644E+03  0.12509000000E+03 0.  0.
         25    1    3    3    0    0 -0.89997669001E+02 -0.34950962332E+02 -0.20231492735E+03  0.25670992992E+03  0.12509000000E+03 0.  0.
         25    1    4    4    0    0  0.73692843949E+02  0.38417952480E+02 -0.15683166735E+03  0.21714109308E+03  0.12509000000E+03 0.  0.
<mgrwt>
<rscale>  2 0.43821726E+03</rscale>
<asrwt>0</asrwt>
<pdfrwt beam="1">  1       21 0.11103261E-01 0.43821726E+03</pdfrwt>
<pdfrwt beam="2">  1       21 0.93508399E-01 0.43821726E+03</pdfrwt>
<totfact> 0.59804172E+04</totfact>
</mgrwt>
</event>
<event>
 7    0  0.4748297E-002  0.4593204E+03  0.7546771E-02  0.1024979E+00
         21   -1    0    0  502  501  0.00000000000E+00  0.00000000000E+00  0.13888483416E+03  0.13888483416E+03  0.00000000000E+00 0.  1.
         21   -1    0    0  501  502 -0.00000000000E+00 -0.00000000000E+00 -0.37976648574E+03  0.37976648574E+03  0.00000000000E+00 0.  1.
      99926    2    1    2    0    0  0.00000000000E+00  0.00000000000E+00 -0.24088165159E+03  0.51865131990E+03  0.45932039097E+03 0.  0.
      99925    2    3    3    0    0  0.11810654115E+02  0.10954761333E+03 -0.10587834288E+03  0.30414357505E+03  0.26296942716E+03 0.  0.
         25    1    4    4    0    0 -0.27428492095E+02  0.63249611370E+02 -0.30725805265E+02  0.14609729199E+03  0.12509000000E+03 0.  0.
         25    1    4    4    0    0  0.39239146210E+02  0.46298001960E+02 -0.75152537613E+02  0.15804628306E+03  0.12509000000E+03 0.  0.
         25    1    3    3    0    0 -0.11810654115E+02 -0.10954761333E+03 -0.13500330871E+03  0.21450774485E+03  0.12509000000E+03 0.  0.
<mgrwt>
<rscale>  2 0.45932039E+03</rscale>
<asrwt>0</asrwt>
<pdfrwt beam="1">  1       21 0.20424241E-01 0.45932039E+03</pdfrwt>
<pdfrwt beam="2">  1       21 0.55848011E-01 0.45932039E+03</pdfrwt>
<totfact> 0.61832213E+04</totfact>
</mgrwt>
</event>
<event>
 7    0  0.4748297E-002  0.4501406E+03  0.7546771E-02  0.1027680E+00
         21   -1    0    0  502  501  0.00000000000E+00  0.00000000000E+00  0.25335000016E+03  0.25335000016E+03  0.00000000000E+00 0.  1.
         21   -1    0    0  501  502 -0.00000000000E+00 -0.00000000000E+00 -0.19994730457E+03  0.19994730457E+03  0.00000000000E+00 0.  1.
      99926    2    1    2    0    0 -0.14210854715E-13  0.00000000000E+00  0.53402695585E+02  0.45329730473E+03  0.45014064311E+03 0.  0.
      99925    2    3    3    0    0  0.89047305780E+02 -0.81620049377E+01  0.96039127292E+02  0.29373097244E+03  0.26278951503E+03 0.  0.
         25    1    4    4    0    0  0.68375585146E+01  0.14608029732E+02  0.40788986942E+02  0.13255714351E+03  0.12509000000E+03 0.  0.
         25    1    3    3    0    0 -0.89047305780E+02  0.81620049377E+01 -0.42636431707E+02  0.15956633229E+03  0.12509000000E+03 0.  0.
         25    1    4    4    0    0  0.82209747265E+02 -0.22770034670E+02  0.55250140350E+02  0.16117382893E+03  0.12509000000E+03 0.  0.
<mgrwt>
<rscale>  2 0.45014064E+03</rscale>
<asrwt>0</asrwt>
<pdfrwt beam="1">  1       21 0.37257353E-01 0.45014064E+03</pdfrwt>
<pdfrwt beam="2">  1       21 0.29404015E-01 0.45014064E+03</pdfrwt>
<totfact> 0.71398832E+04</totfact>
</mgrwt>
</event>
<event>
 7    0  0.4748297E-002  0.4431882E+03  0.7546771E-02  0.1029773E+00
         21   -1    0    0  502  501  0.00000000000E+00  0.00000000000E+00  0.61703066622E+02  0.61703066622E+02  0.00000000000E+00 0. -1.
         21   -1    0    0  501  502 -0.00000000000E+00 -0.00000000000E+00 -0.79581057698E+03  0.79581057698E+03  0.00000000000E+00 0. -1.
      99926    2    1    2    0    0 -0.71054273576E-14  0.00000000000E+00 -0.73410751036E+03  0.85751364360E+03  0.44318823563E+03 0.  0.
      99925    2    3    3    0    0 -0.62893925005E+02  0.69872605307E+02 -0.39111619004E+03  0.48051446497E+03  0.26283920971E+03 0.  0.
         25    1    3    3    0    0  0.62893925005E+02 -0.69872605307E+02 -0.34299132032E+03  0.37699917863E+03  0.12509000000E+03 0.  0.
         25    1    4    4    0    0 -0.69851327778E+02  0.28820837996E+02 -0.18362512323E+03  0.23468179025E+03  0.12509000000E+03 0.  0.
         25    1    4    4    0    0  0.69574027726E+01  0.41051767311E+02 -0.20749106681E+03  0.24583267472E+03  0.12509000000E+03 0.  0.
<mgrwt>
<rscale>  2 0.44318824E+03</rscale>
<asrwt>0</asrwt>
<pdfrwt beam="1">  1       21 0.90739815E-02 0.44318824E+03</pdfrwt>
<pdfrwt beam="2">  1       21 0.11703095E+00 0.44318824E+03</pdfrwt>
<totfact> 0.49537531E+04</totfact>
</mgrwt>
</event>
<event>
 7    0  0.4748297E-002  0.4544563E+03  0.7546771E-02  0.1026401E+00
         21   -1    0    0  502  501  0.00000000000E+00  0.00000000000E+00  0.20310910519E+03  0.20310910519E+03  0.00000000000E+00 0.  1.
         21   -1    0    0  501  502 -0.00000000000E+00 -0.00000000000E+00 -0.25421134057E+03  0.25421134057E+03  0.00000000000E+00 0.  1.
      99926    2    1    2    0    0  0.00000000000E+00  0.71054273576E-14 -0.51102235373E+02  0.45732044576E+03  0.45445632535E+03 0.  0.
      99925    2    3    3    0    0  0.82294743655E+02 -0.55912594910E+02  0.20865141712E+02  0.28203366769E+03  0.26307602032E+03 0.  0.
         25    1    3    3    0    0 -0.82294743655E+02  0.55912594910E+02 -0.71967377085E+02  0.17528677807E+03  0.12509000000E+03 0.  0.
         25    1    4    4    0    0  0.77014067692E+02 -0.23900137568E+02 -0.10018940682E+02  0.14916524552E+03  0.12509000000E+03 0.  0.
         25    1    4    4    0    0  0.52806759628E+01 -0.32012457342E+02  0.30884082394E+02  0.13286842217E+03  0.12509000000E+03 0.  0.
<mgrwt>
<rscale>  2 0.45445633E+03</rscale>
<asrwt>0</asrwt>
<pdfrwt beam="1">  1       21 0.29868986E-01 0.45445633E+03</pdfrwt>
<pdfrwt beam="2">  1       21 0.37384021E-01 0.45445633E+03</pdfrwt>
<totfact> 0.68673465E+04</totfact>
</mgrwt>
</event>
<event>
 7    0  0.4748297E-002  0.4539794E+03  0.7546771E-02  0.1026542E+00
         21   -1    0    0  502  501  0.00000000000E+00  0.00000000000E+00  0.34975772885E+03  0.34975772885E+03  0.00000000000E+00 0. -1.
         21   -1    0    0  501  502 -0.00000000000E+00 -0.00000000000E+00 -0.14731429893E+03  0.14731429893E+03  0.00000000000E+00 0. -1.
      99926    2    1    2    0    0 -0.14210854715E-13  0.00000000000E+00  0.20244342992E+03  0.49707202778E+03  0.45397935909E+03 0.  0.
      99925    2    3    3    0    0  0.75303712381E+02 -0.81457999356E+02  0.10870989479E+03  0.30539642040E+03  0.26295071327E+03 0.  0.
         25    1    4    4    0    0  0.79057683618E+02 -0.36595161549E+02  0.56670390021E+02  0.16262953112E+03  0.12509000000E+03 0.  0.
         25    1    3    3    0    0 -0.75303712381E+02  0.81457999356E+02  0.93733535123E+02  0.19167560738E+03  0.12509000000E+03 0.  0.
         25    1    4    4    0    0 -0.37539712375E+01 -0.44862837806E+02  0.52039504774E+02  0.14276688927E+03  0.12509000000E+03 0.  0.
<mgrwt>
<rscale>  2 0.45397936E+03</rscale>
<asrwt>0</asrwt>
<pdfrwt beam="1">  1       21 0.51434960E-01 0.45397936E+03</pdfrwt>
<pdfrwt beam="2">  1       21 0.21663867E-01 0.45397936E+03</pdfrwt>
<totfact> 0.66010056E+04</totfact>
</mgrwt>
</event>
<event>
 7    0  0.4748297E-002  0.4462715E+03  0.7546771E-02  0.1028840E+00
         21   -1    0    0  502  501  0.00000000000E+00  0.00000000000E+00  0.93625446982E+02  0.93625446982E+02  0.00000000000E+00 0.  1.
         21   -1    0    0  501  502 -0.00000000000E+00 -0.00000000000E+00 -0.53179512827E+03  0.53179512827E+03  0.00000000000E+00 0.  1.
      99926    2    1    2    0    0  0.00000000000E+00 -0.71054273576E-14 -0.43816968128E+03  0.62542057525E+03  0.44627147158E+03 0.  0.
      99925    2    3    3    0    0  0.59684563225E+02 -0.47220372825E+02 -0.17704786612E+03  0.32604769546E+03  0.26300027019E+03 0.  0.
         25    1    3    3    0    0 -0.59684563225E+02  0.47220372825E+02 -0.26112181516E+03  0.29937287978E+03  0.12509000000E+03 0.  0.
         25    1    4    4    0    0  0.30238551700E+02 -0.64789390549E+02 -0.92274581947E+02  0.17109687814E+03  0.12509000000E+03 0.  0.
         25    1    4    4    0    0  0.29446011526E+02  0.17569017724E+02 -0.84773284177E+02  0.15495081732E+03  0.12509000000E+03 0.  0.
<mgrwt>
<rscale>  2 0.44627147E+03</rscale>
<asrwt>0</asrwt>
<pdfrwt beam="1">  1       21 0.13768449E-01 0.44627147E+03</pdfrwt>
<pdfrwt beam="2">  1       21 0.78205163E-01 0.44627147E+03</pdfrwt>
<totfact> 0.61253274E+04</totfact>
</mgrwt>
</event>
<event>
 7    0  0.4748297E-002  0.4503643E+03  0.7546771E-02  0.1027613E+00
         21   -1    0    0  502  501  0.00000000000E+00  0.00000000000E+00  0.22449443814E+03  0.22449443814E+03  0.00000000000E+00 0.  1.
         21   -1    0    0  501  502 -0.00000000000E+00 -0.00000000000E+00 -0.22587201749E+03  0.22587201749E+03  0.00000000000E+00 0.  1.
      99926    2    1    2    0    0  0.35527136788E-14  0.00000000000E+00 -0.13775793568E+01  0.45036645563E+03  0.45036434876E+03 0.  0.
      99925    2    3    3    0    0 -0.18520074095E+02  0.10561831695E+03  0.16843915488E+02  0.28460230693E+03  0.26309035255E+03 0.  0.
         25    1    4    4    0    0  0.10941811222E+02  0.78802361613E+02  0.34309384177E+02  0.15216496762E+03  0.12509000000E+03 0.  0.
         25    1    4    4    0    0 -0.29461885318E+02  0.26815955332E+02 -0.17465468689E+02  0.13243733931E+03  0.12509000000E+03 0.  0.
         25    1    3    3    0    0  0.18520074095E+02 -0.10561831695E+03 -0.18221494845E+02  0.16576414870E+03  0.12509000000E+03 0.  0.
<mgrwt>
<rscale>  2 0.45036435E+03</rscale>
<asrwt>0</asrwt>
<pdfrwt beam="1">  1       21 0.33013888E-01 0.45036435E+03</pdfrwt>
<pdfrwt beam="2">  1       21 0.33216473E-01 0.45036435E+03</pdfrwt>
<totfact> 0.71494632E+04</totfact>
</mgrwt>
</event>
<event>
 7    0  0.4748297E-002  0.4535139E+03  0.7546771E-02  0.1026679E+00
         21   -1    0    0  502  501  0.00000000000E+00  0.00000000000E+00  0.27714165935E+03  0.27714165935E+03  0.00000000000E+00 0.  1.
         21   -1    0    0  501  502 -0.00000000000E+00 -0.00000000000E+00 -0.18553223104E+03  0.18553223104E+03  0.00000000000E+00 0.  1.
      99926    2    1    2    0    0  0.00000000000E+00  0.00000000000E+00  0.91609428307E+02  0.46267389038E+03  0.45351388235E+03 0.  0.
      99925    2    3    3    0    0 -0.85770959935E+02 -0.66624277688E+02  0.84842121272E+02  0.29687655479E+03  0.26294876173E+03 0.  0.
         25    1    4    4    0    0 -0.74959953230E+02 -0.19017190198E+02  0.66316102028E+02  0.16132570037E+03  0.12509000000E+03 0.  0.
         25    1    3    3    0    0  0.85770959935E+02  0.66624277688E+02  0.67673070351E+01  0.16579733559E+03  0.12509000000E+03 0.  0.
         25    1    4    4    0    0 -0.10811006705E+02 -0.47607087490E+02  0.18526019243E+02  0.13555085442E+03  0.12509000000E+03 0.  0.
<mgrwt>
<rscale>  2 0.45351388E+03</rscale>
<asrwt>0</asrwt>
<pdfrwt beam="1">  1       21 0.40756126E-01 0.45351388E+03</pdfrwt>
<pdfrwt beam="2">  1       21 0.27284152E-01 0.45351388E+03</pdfrwt>
<totfact> 0.68792359E+04</totfact>
</mgrwt>
</event>
<event>
 7    0  0.4748297E-002  0.4682857E+03  0.7546771E-02  0.1022405E+00
         21   -1    0    0  502  501  0.00000000000E+00  0.00000000000E+00  0.10281408552E+04  0.10281408552E+04  0.00000000000E+00 0.  1.
         21   -1    0    0  501  502 -0.00000000000E+00 -0.00000000000E+00 -0.53322336707E+02  0.53322336707E+02  0.00000000000E+00 0.  1.
      99926    2    1    2    0    0  0.00000000000E+00  0.00000000000E+00  0.97481851846E+03  0.10814631919E+04  0.46828569425E+03 0.  0.
      99925    2    3    3    0    0  0.72165890754E+02  0.10065104260E+03  0.56491944597E+03  0.63536532605E+03  0.26309041971E+03 0.  0.
         25    1    4    4    0    0  0.57105032485E+02  0.39565246104E+02  0.21285311544E+03  0.25647680263E+03  0.12509000000E+03 0.  0.
         25    1    3    3    0    0 -0.72165890754E+02 -0.10065104260E+03  0.40989907248E+03  0.44609786582E+03  0.12509000000E+03 0.  0.
         25    1    4    4    0    0  0.15060858269E+02  0.61085796499E+02  0.35206633053E+03  0.37888852342E+03  0.12509000000E+03 0.  0.
<mgrwt>
<rscale>  2 0.46828569E+03</rscale>
<asrwt>0</asrwt>
<pdfrwt beam="1">  1       21 0.15119717E+00 0.46828569E+03</pdfrwt>
<pdfrwt beam="2">  1       21 0.78415208E-02 0.46828569E+03</pdfrwt>
<totfact> 0.32627750E+04</totfact>
</mgrwt>
</event>
<event>
 7    0  0.4748297E-002  0.4561256E+03  0.7546771E-02  0.1025911E+00
         21   -1    0    0  502  501  0.00000000000E+00  0.00000000000E+00  0.74233208182E+02  0.74233208182E+02  0.00000000000E+00 0. -1.
         21   -1    0    0  501  502 -0.00000000000E+00 -0.00000000000E+00 -0.70066535587E+03  0.70066535587E+03  0.00000000000E+00 0. -1.
      99926    2    1    2    0    0  0.00000000000E+00  0.00000000000E+00 -0.62643214769E+03  0.77489856405E+03  0.45612558459E+03 0.  0.
      99925    2    3    3    0    0 -0.79015249363E+02 -0.36836089625E+02 -0.51900312578E+03  0.58838097780E+03  0.26311142763E+03 0.  0.
         25    1    4    4    0    0 -0.69082031136E+02 -0.35839047615E+02 -0.33147782674E+03  0.36274208755E+03  0.12509000000E+03 0.  0.
         25    1    4    4    0    0 -0.99332182275E+01 -0.99704201050E+00 -0.18752529903E+03  0.22563889025E+03  0.12509000000E+03 0.  0.
         25    1    3    3    0    0  0.79015249363E+02  0.36836089625E+02 -0.10742902191E+03  0.18651758625E+03  0.12509000000E+03 0.  0.
<mgrwt>
<rscale>  2 0.45612558E+03</rscale>
<asrwt>0</asrwt>
<pdfrwt beam="1">  1       21 0.10916649E-01 0.45612558E+03</pdfrwt>
<pdfrwt beam="2">  1       21 0.10303902E+00 0.45612558E+03</pdfrwt>
<totfact> 0.48572336E+04</totfact>
</mgrwt>
</event>
<event>
 7    0  0.4748297E-002  0.4579575E+03  0.7546771E-02  0.1025375E+00
         21   -1    0    0  502  501  0.00000000000E+00  0.00000000000E+00  0.93854191227E+02  0.93854191227E+02  0.00000000000E+00 0.  1.
         21   -1    0    0  501  502 -0.00000000000E+00 -0.00000000000E+00 -0.55864591113E+03  0.55864591113E+03  0.00000000000E+00 0.  1.
      99926    2    1    2    0    0  0.00000000000E+00  0.14210854715E-13 -0.46479171990E+03  0.65250010235E+03  0.45795746602E+03 0.  0.
      99925    2    3    3    0    0 -0.27525980465E+02 -0.11255646758E+03 -0.28666837269E+03  0.40591933888E+03  0.26299261545E+03 0.  0.
         25    1    3    3    0    0  0.27525980465E+02  0.11255646758E+03 -0.17812334721E+03  0.24658076347E+03  0.12509000000E+03 0.  0.
         25    1    4    4    0    0  0.10034537618E+02 -0.63608186596E+02 -0.98724409917E+02  0.17187411254E+03  0.12509000000E+03 0.  0.
         25    1    4    4    0    0 -0.37560518083E+02 -0.48948280984E+02 -0.18794396278E+03  0.23404522634E+03  0.12509000000E+03 0.  0.
<mgrwt>
<rscale>  2 0.45795747E+03</rscale>
<asrwt>0</asrwt>
<pdfrwt beam="1">  1       21 0.13802087E-01 0.45795747E+03</pdfrwt>
<pdfrwt beam="2">  1       21 0.82153811E-01 0.45795747E+03</pdfrwt>
<totfact> 0.54280206E+04</totfact>
</mgrwt>
</event>
<event>
 7    0  0.4748297E-002  0.4513974E+03  0.7546771E-02  0.1027306E+00
         21   -1    0    0  502  501  0.00000000000E+00  0.00000000000E+00  0.10359039919E+03  0.10359039919E+03  0.00000000000E+00 0. -1.
         21   -1    0    0  501  502 -0.00000000000E+00 -0.00000000000E+00 -0.49174341384E+03  0.49174341384E+03  0.00000000000E+00 0. -1.
      99926    2    1    2    0    0  0.14210854715E-13 -0.35527136788E-14 -0.38815301465E+03  0.59533381303E+03  0.45139737057E+03 0.  0.
      99925    2    3    3    0    0 -0.74482518343E+02  0.24958761166E+02 -0.34634769243E+03  0.44182232042E+03  0.26283008479E+03 0.  0.
         25    1    4    4    0    0 -0.16095170548E+02 -0.21631702043E+02 -0.17727897405E+03  0.21863743455E+03  0.12509000000E+03 0.  0.
         25    1    3    3    0    0  0.74482518343E+02 -0.24958761166E+02 -0.41805322213E+02  0.15351149261E+03  0.12509000000E+03 0.  0.
         25    1    4    4    0    0 -0.58387347795E+02  0.46590463209E+02 -0.16906871839E+03  0.22318488587E+03  0.12509000000E+03 0.  0.
<mgrwt>
<rscale>  2 0.45139737E+03</rscale>
<asrwt>0</asrwt>
<pdfrwt beam="1">  1       21 0.15233882E-01 0.45139737E+03</pdfrwt>
<pdfrwt beam="2">  1       21 0.72315209E-01 0.45139737E+03</pdfrwt>
<totfact> 0.60675391E+04</totfact>
</mgrwt>
</event>
<event>
 7    0  0.4748297E-002  0.4547842E+03  0.7546771E-02  0.1026305E+00
         21   -1    0    0  502  501  0.00000000000E+00  0.00000000000E+00  0.75775268298E+02  0.75775268298E+02  0.00000000000E+00 0. -1.
         21   -1    0    0  501  502 -0.00000000000E+00 -0.00000000000E+00 -0.68237523788E+03  0.68237523788E+03  0.00000000000E+00 0. -1.
      99926    2    1    2    0    0  0.71054273576E-14  0.00000000000E+00 -0.60659996959E+03  0.75815050618E+03  0.45478419819E+03 0.  0.
      99925    2    3    3    0    0 -0.60250787612E+02 -0.42824655734E+02 -0.23939432398E+03  0.36324342495E+03  0.26300576964E+03 0.  0.
         25    1    3    3    0    0  0.60250787612E+02  0.42824655734E+02 -0.36720564561E+03  0.39490708124E+03  0.12509000000E+03 0.  0.
         25    1    4    4    0    0 -0.55811592005E+02  0.98279896468E+01 -0.12464788342E+03  0.18546192635E+03  0.12509000000E+03 0.  0.
         25    1    4    4    0    0 -0.44391956067E+01 -0.52652645380E+02 -0.11474644056E+03  0.17778149860E+03  0.12509000000E+03 0.  0.
<mgrwt>
<rscale>  2 0.45478420E+03</rscale>
<asrwt>0</asrwt>
<pdfrwt beam="1">  1       21 0.11143421E-01 0.45478420E+03</pdfrwt>
<pdfrwt beam="2">  1       21 0.10034930E+00 0.45478420E+03</pdfrwt>
<totfact> 0.49939606E+04</totfact>
</mgrwt>
</event>
<event>
 7    0  0.4748297E-002  0.4534524E+03  0.7546771E-02  0.1026697E+00
         21   -1    0    0  502  501  0.00000000000E+00  0.00000000000E+00  0.63206670905E+02  0.63206670905E+02  0.00000000000E+00 0. -1.
         21   -1    0    0  501  502 -0.00000000000E+00 -0.00000000000E+00 -0.81328071601E+03  0.81328071601E+03  0.00000000000E+00 0. -1.
      99926    2    1    2    0    0  0.17763568394E-14  0.71054273576E-14 -0.75007404510E+03  0.87648738691E+03  0.45345238590E+03 0.  0.
      99925    2    3    3    0    0 -0.58616493202E+01 -0.56271367698E+02 -0.65850789511E+03  0.71146407438E+03  0.26333943011E+03 0.  0.
         25    1    3    3    0    0  0.58616493202E+01  0.56271367698E+02 -0.91566149987E+02  0.16502331253E+03  0.12509000000E+03 0.  0.
         25    1    4    4    0    0 -0.15199820270E+02  0.11388718197E+02 -0.32653819733E+03  0.35019343206E+03  0.12509000000E+03 0.  0.
         25    1    4    4    0    0  0.93381709495E+01 -0.67660085895E+02 -0.33196969778E+03  0.36127064232E+03  0.12509000000E+03 0.  0.
<mgrwt>
<rscale>  2 0.45345239E+03</rscale>
<asrwt>0</asrwt>
<pdfrwt beam="1">  1       21 0.92950991E-02 0.45345239E+03</pdfrwt>
<pdfrwt beam="2">  1       21 0.11960010E+00 0.45345239E+03</pdfrwt>
<totfact> 0.44806598E+04</totfact>
</mgrwt>
</event>
<event>
 7    0  0.4748297E-002  0.4476861E+03  0.7546771E-02  0.1028414E+00
         21   -1    0    0  502  501  0.00000000000E+00  0.00000000000E+00  0.30691095835E+03  0.30691095835E+03  0.00000000000E+00 0. -1.
         21   -1    0    0  501  502 -0.00000000000E+00 -0.00000000000E+00 -0.16325812297E+03  0.16325812297E+03  0.00000000000E+00 0. -1.
      99926    2    1    2    0    0  0.00000000000E+00  0.00000000000E+00  0.14365283538E+03  0.47016908131E+03  0.44768608188E+03 0.  0.
      99925    2    3    3    0    0  0.47590455077E+02 -0.31069921728E+02 -0.32040706162E+01  0.26906052757E+03  0.26296978909E+03 0.  0.
         25    1    4    4    0    0  0.31833985477E+02  0.62257601737E+01  0.31636937619E+02  0.13304347651E+03  0.12509000000E+03 0.  0.
         25    1    3    3    0    0 -0.47590455077E+02  0.31069921728E+02  0.14685690599E+03  0.20110855374E+03  0.12509000000E+03 0.  0.
         25    1    4    4    0    0  0.15756469600E+02 -0.37295681902E+02 -0.34841008235E+02  0.13601705105E+03  0.12509000000E+03 0.  0.
<mgrwt>
<rscale>  2 0.44768608E+03</rscale>
<asrwt>0</asrwt>
<pdfrwt beam="1">  1       21 0.45133965E-01 0.44768608E+03</pdfrwt>
<pdfrwt beam="2">  1       21 0.24008547E-01 0.44768608E+03</pdfrwt>
<totfact> 0.71482640E+04</totfact>
</mgrwt>
</event>
<event>
 7    0  0.4748297E-002  0.4608649E+03  0.7546771E-02  0.1024531E+00
         21   -1    0    0  502  501  0.00000000000E+00  0.00000000000E+00  0.10317067543E+04  0.10317067543E+04  0.00000000000E+00 0. -1.
         21   -1    0    0  501  502 -0.00000000000E+00 -0.00000000000E+00 -0.51467248342E+02  0.51467248342E+02  0.00000000000E+00 0. -1.
      99926    2    1    2    0    0  0.00000000000E+00 -0.14210854715E-13  0.98023950599E+03  0.10831740027E+04  0.46086487278E+03 0.  0.
      99925    2    3    3    0    0  0.41956461017E+02 -0.67773495909E+02  0.40723809954E+03  0.49128574358E+03  0.26299281502E+03 0.  0.
         25    1    4    4    0    0  0.15480235157E+02  0.51884679623E+01  0.16303717224E+03  0.20614360410E+03  0.12509000000E+03 0.  0.
         25    1    3    3    0    0 -0.41956461017E+02  0.67773495909E+02  0.57300140645E+03  0.59188825910E+03  0.12509000000E+03 0.  0.
         25    1    4    4    0    0  0.26476225860E+02 -0.72961963871E+02  0.24420092730E+03  0.28514213947E+03  0.12509000000E+03 0.  0.
<mgrwt>
<rscale>  2 0.46086487E+03</rscale>
<asrwt>0</asrwt>
<pdfrwt beam="1">  1       21 0.15172157E+00 0.46086487E+03</pdfrwt>
<pdfrwt beam="2">  1       21 0.75687136E-02 0.46086487E+03</pdfrwt>
<totfact> 0.34478180E+04</totfact>
</mgrwt>
</event>
<event>
 7    0  0.4748297E-002  0.4366170E+03  0.7546771E-02  0.1031790E+00
         21   -1    0    0  502  501  0.00000000000E+00  0.00000000000E+00  0.27089374273E+03  0.27089374273E+03  0.00000000000E+00 0.  1.
         21   -1    0    0  501  502 -0.00000000000E+00 -0.00000000000E+00 -0.17593096267E+03  0.17593096267E+03  0.00000000000E+00 0.  1.
      99926    2    1    2    0    0 -0.17763568394E-14  0.00000000000E+00  0.94962780059E+02  0.44682470541E+03  0.43661698062E+03 0.  0.
      99925    2    3    3    0    0  0.11772755810E+02 -0.33513065213E+02 -0.29239248719E+02  0.26700430787E+03  0.26301072874E+03 0.  0.
         25    1    3    3    0    0 -0.11772755810E+02  0.33513065213E+02  0.12420202878E+03  0.17982039754E+03  0.12509000000E+03 0.  0.
         25    1    4    4    0    0 -0.24250149072E+02  0.58444867128E+01 -0.29895424498E+02  0.13100943577E+03  0.12509000000E+03 0.  0.
         25    1    4    4    0    0  0.36022904882E+02 -0.39357551925E+02  0.65617577931E+00  0.13599487210E+03  0.12509000000E+03 0.  0.
<mgrwt>
<rscale>  2 0.43661698E+03</rscale>
<asrwt>0</asrwt>
<pdfrwt beam="1">  1       21 0.39837315E-01 0.43661698E+03</pdfrwt>
<pdfrwt beam="2">  1       21 0.25872200E-01 0.43661698E+03</pdfrwt>
<totfact> 0.80281392E+04</totfact>
</mgrwt>
</event>
<event>
 7    0  0.4748297E-002  0.4613124E+03  0.7546771E-02  0.1024401E+00
         21   -1    0    0  502  501  0.00000000000E+00  0.00000000000E+00  0.54227140218E+03  0.54227140218E+03  0.00000000000E+00 0. -1.
         21   -1    0    0  501  502 -0.00000000000E+00 -0.00000000000E+00 -0.98110050031E+02  0.98110050031E+02  0.00000000000E+00 0. -1.
      99926    2    1    2    0    0  0.71054273576E-14  0.00000000000E+00  0.44416135215E+03  0.64038145222E+03  0.46131236445E+03 0.  0.
      99925    2    3    3    0    0  0.48438555081E+02  0.66601382819E+01  0.12716468851E+03  0.29610678872E+03  0.26290249383E+03 0.  0.
         25    1    4    4    0    0  0.52035699408E+02 -0.51364790229E+01  0.34367515856E+02  0.13986683551E+03  0.12509000000E+03 0.  0.
         25    1    3    3    0    0 -0.48438555081E+02 -0.66601382819E+01  0.31699666365E+03  0.34427466350E+03  0.12509000000E+03 0.  0.
         25    1    4    4    0    0 -0.35971443265E+01  0.11796617305E+02  0.92797172649E+02  0.15623995321E+03  0.12509000000E+03 0.  0.
<mgrwt>
<rscale>  2 0.46131236E+03</rscale>
<asrwt>0</asrwt>
<pdfrwt beam="1">  1       21 0.79745793E-01 0.46131236E+03</pdfrwt>
<pdfrwt beam="2">  1       21 0.14427949E-01 0.46131236E+03</pdfrwt>
<totfact> 0.53541540E+04</totfact>
</mgrwt>
</event>
<event>
 7    0  0.4748297E-002  0.4520834E+03  0.7546771E-02  0.1027103E+00
         21   -1    0    0  502  501  0.00000000000E+00  0.00000000000E+00  0.13553806143E+04  0.13553806143E+04  0.00000000000E+00 0. -1.
         21   -1    0    0  501  502 -0.00000000000E+00 -0.00000000000E+00 -0.37697789680E+02  0.37697789680E+02  0.00000000000E+00 0. -1.
      99926    2    1    2    0    0  0.17763568394E-14  0.00000000000E+00  0.13176828247E+04  0.13930784040E+04  0.45208341414E+03 0.  0.
      99925    2    3    3    0    0 -0.28904114780E+01 -0.10590063738E+03  0.92736816165E+03  0.96973889046E+03  0.26298005430E+03 0.  0.
         25    1    4    4    0    0 -0.16793261784E+02 -0.22374525253E+02  0.51052075591E+03  0.52636639648E+03  0.12509000000E+03 0.  0.
         25    1    4    4    0    0  0.13902850306E+02 -0.83526112132E+02  0.41684740573E+03  0.44337249398E+03  0.12509000000E+03 0.  0.
         25    1    3    3    0    0  0.28904114780E+01  0.10590063738E+03  0.39031466301E+03  0.42333951355E+03  0.12509000000E+03 0.  0.
<mgrwt>
<rscale>  2 0.45208341E+03</rscale>
<asrwt>0</asrwt>
<pdfrwt beam="1">  1       21 0.19932065E+00 0.45208341E+03</pdfrwt>
<pdfrwt beam="2">  1       21 0.55437935E-02 0.45208341E+03</pdfrwt>
<totfact> 0.27126705E+04</totfact>
</mgrwt>
</event>
<event>
 7    0  0.4748297E-002  0.4950359E+03  0.7546771E-02  0.1015083E+00
         21   -1    0    0  502  501  0.00000000000E+00  0.00000000000E+00  0.61801923255E+02  0.61801923255E+02  0.00000000000E+00 0.  1.
         21   -1    0    0  501  502 -0.00000000000E+00 -0.00000000000E+00 -0.99131446454E+03  0.99131446454E+03  0.00000000000E+00 0.  1.
      99926    2    1    2    0    0  0.00000000000E+00 -0.35527136788E-14 -0.92951254129E+03  0.10531163878E+04  0.49503591975E+03 0.  0.
      99925    2    3    3    0    0 -0.14015831650E+03 -0.28139887250E+02 -0.48818153493E+03  0.57264081900E+03  0.26298305953E+03 0.  0.
         25    1    4    4    0    0 -0.10241288252E+03 -0.14750011252E+02 -0.32392850991E+03  0.36233016569E+03  0.12509000000E+03 0.  0.
         25    1    3    3    0    0  0.14015831650E+03  0.28139887250E+02 -0.44133100636E+03  0.48047556880E+03  0.12509000000E+03 0.  0.
         25    1    4    4    0    0 -0.37745433982E+02 -0.13389875998E+02 -0.16425302502E+03  0.21031065330E+03  0.12509000000E+03 0.  0.
<mgrwt>
<rscale>  2 0.49503592E+03</rscale>
<asrwt>0</asrwt>
<pdfrwt beam="1">  1       21 0.90885191E-02 0.49503592E+03</pdfrwt>
<pdfrwt beam="2">  1       21 0.14578152E+00 0.49503592E+03</pdfrwt>
<totfact> 0.27507072E+04</totfact>
</mgrwt>
</event>
<event>
 7    0  0.4748297E-002  0.4519763E+03  0.7546771E-02  0.1027134E+00
         21   -1    0    0  502  501  0.00000000000E+00  0.00000000000E+00  0.67697779462E+02  0.67697779462E+02  0.00000000000E+00 0. -1.
         21   -1    0    0  501  502 -0.00000000000E+00 -0.00000000000E+00 -0.75439155747E+03  0.75439155747E+03  0.00000000000E+00 0. -1.
      99926    2    1    2    0    0  0.71054273576E-14  0.00000000000E+00 -0.68669377801E+03  0.82208933693E+03  0.45197625285E+03 0.  0.
      99925    2    3    3    0    0 -0.35952446228E+02 -0.98985803623E+02 -0.37309560284E+03  0.46841987079E+03  0.26291838808E+03 0.  0.
         25    1    3    3    0    0  0.35952446228E+02  0.98985803623E+02 -0.31359817517E+03  0.35366946614E+03  0.12509000000E+03 0.  0.
         25    1    4    4    0    0  0.20186530723E+02 -0.49676024366E+02 -0.15683593075E+03  0.20765408904E+03  0.12509000000E+03 0.  0.
         25    1    4    4    0    0 -0.56138976951E+02 -0.49309779257E+02 -0.21625967209E+03  0.26076578176E+03  0.12509000000E+03 0.  0.
<mgrwt>
<rscale>  2 0.45197625E+03</rscale>
<asrwt>0</asrwt>
<pdfrwt beam="1">  1       21 0.99555551E-02 0.45197625E+03</pdfrwt>
<pdfrwt beam="2">  1       21 0.11093994E+00 0.45197625E+03</pdfrwt>
<totfact> 0.47839853E+04</totfact>
</mgrwt>
</event>
<event>
 7    0  0.4748297E-002  0.4577375E+03  0.7546771E-02  0.1025439E+00
         21   -1    0    0  502  501  0.00000000000E+00  0.00000000000E+00  0.23461520407E+03  0.23461520407E+03  0.00000000000E+00 0.  1.
         21   -1    0    0  501  502 -0.00000000000E+00 -0.00000000000E+00 -0.22326303694E+03  0.22326303694E+03  0.00000000000E+00 0.  1.
      99926    2    1    2    0    0 -0.14210854715E-13  0.00000000000E+00  0.11352167124E+02  0.45787824101E+03  0.45773749234E+03 0.  0.
      99925    2    3    3    0    0 -0.55793194930E+02 -0.48333096291E+02  0.96406526097E+02  0.28956091903E+03  0.26287323705E+03 0.  0.
         25    1    3    3    0    0  0.55793194930E+02  0.48333096291E+02 -0.85054358974E+02  0.16831732198E+03  0.12509000000E+03 0.  0.
         25    1    4    4    0    0  0.12038399246E+02 -0.30511873460E+02  0.52634660143E+02  0.13962024576E+03  0.12509000000E+03 0.  0.
         25    1    4    4    0    0 -0.67831594176E+02 -0.17821222831E+02  0.43771865954E+02  0.14994067327E+03  0.12509000000E+03 0.  0.
<mgrwt>
<rscale>  2 0.45773749E+03</rscale>
<asrwt>0</asrwt>
<pdfrwt beam="1">  1       21 0.34502236E-01 0.45773749E+03</pdfrwt>
<pdfrwt beam="2">  1       21 0.32832800E-01 0.45773749E+03</pdfrwt>
<totfact> 0.66863035E+04</totfact>
</mgrwt>
</event>
<event>
 7    0  0.4748297E-002  0.4522391E+03  0.7546771E-02  0.1027056E+00
         21   -1    0    0  502  501  0.00000000000E+00  0.00000000000E+00  0.85111374407E+02  0.85111374407E+02  0.00000000000E+00 0. -1.
         21   -1    0    0  501  502 -0.00000000000E+00 -0.00000000000E+00 -0.60074293371E+03  0.60074293371E+03  0.00000000000E+00 0. -1.
      99926    2    1    2    0    0  0.00000000000E+00  0.00000000000E+00 -0.51563155930E+03  0.68585430812E+03  0.45223912592E+03 0.  0.
      99925    2    3    3    0    0  0.72515012468E+02  0.68950003331E+02 -0.25346322664E+03  0.37862105350E+03  0.26286453717E+03 0.  0.
         25    1    4    4    0    0  0.65218058486E+02  0.66293646065E+02 -0.14449664440E+03  0.21254418600E+03  0.12509000000E+03 0.  0.
         25    1    4    4    0    0  0.72969539819E+01  0.26563572663E+01 -0.10896658224E+03  0.16607686749E+03  0.12509000000E+03 0.  0.
         25    1    3    3    0    0 -0.72515012468E+02 -0.68950003331E+02 -0.26216833266E+03  0.30723325462E+03  0.12509000000E+03 0.  0.
<mgrwt>
<rscale>  2 0.45223913E+03</rscale>
<asrwt>0</asrwt>
<pdfrwt beam="1">  1       21 0.12516379E-01 0.45223913E+03</pdfrwt>
<pdfrwt beam="2">  1       21 0.88344547E-01 0.45223913E+03</pdfrwt>
<totfact> 0.54860685E+04</totfact>
</mgrwt>
</event>
<event>
 7    0  0.4748297E-002  0.4493891E+03  0.7546771E-02  0.1027904E+00
         21   -1    0    0  502  501  0.00000000000E+00  0.00000000000E+00  0.56075153852E+03  0.56075153852E+03  0.00000000000E+00 0. -1.
         21   -1    0    0  501  502 -0.00000000000E+00 -0.00000000000E+00 -0.90035670520E+02  0.90035670520E+02  0.00000000000E+00 0. -1.
      99926    2    1    2    0    0 -0.14210854715E-13  0.21094237468E-14  0.47071586800E+03  0.65078720904E+03  0.44938909985E+03 0.  0.
      99925    2    3    3    0    0  0.85218648557E+02  0.41976835492E+00  0.20205108307E+03  0.34241945938E+03  0.26299059247E+03 0.  0.
         25    1    4    4    0    0  0.23275646766E+02 -0.35831301084E+02  0.99888163799E+02  0.16568280308E+03  0.12509000000E+03 0.  0.
         25    1    4    4    0    0  0.61943001791E+02  0.36251069439E+02  0.10216291927E+03  0.17673665630E+03  0.12509000000E+03 0.  0.
         25    1    3    3    0    0 -0.85218648557E+02 -0.41976835492E+00  0.26866478493E+03  0.30836774965E+03  0.12509000000E+03 0.  0.
<mgrwt>
<rscale>  2 0.44938910E+03</rscale>
<asrwt>0</asrwt>
<pdfrwt beam="1">  1       21 0.82463460E-01 0.44938910E+03</pdfrwt>
<pdfrwt beam="2">  1       21 0.13240540E-01 0.44938910E+03</pdfrwt>
<totfact> 0.58189214E+04</totfact>
</mgrwt>
</event>
<event>
 7    0  0.4748297E-002  0.4433638E+03  0.7546771E-02  0.1029720E+00
         21   -1    0    0  502  501  0.00000000000E+00  0.00000000000E+00  0.11634857127E+03  0.11634857127E+03  0.00000000000E+00 0.  1.
         21   -1    0    0  501  502 -0.00000000000E+00 -0.00000000000E+00 -0.42237611449E+03  0.42237611449E+03  0.00000000000E+00 0.  1.
      99926    2    1    2    0    0  0.00000000000E+00  0.00000000000E+00 -0.30602754322E+03  0.53872468576E+03  0.44336376694E+03 0.  0.
      99925    2    3    3    0    0  0.51650828824E+02 -0.85624800452E+02 -0.21838218249E+03  0.35616337571E+03  0.26298699206E+03 0.  0.
         25    1    4    4    0    0  0.22761141978E+02 -0.60311378448E+02 -0.15940122919E+03  0.21263064672E+03  0.12509000000E+03 0.  0.
         25    1    4    4    0    0  0.28889686847E+02 -0.25313422003E+02 -0.58980953300E+02  0.14353272899E+03  0.12509000000E+03 0.  0.
         25    1    3    3    0    0 -0.51650828824E+02  0.85624800452E+02 -0.87645360729E+02  0.18256131005E+03  0.12509000000E+03 0.  0.
<mgrwt>
<rscale>  2 0.44336377E+03</rscale>
<asrwt>0</asrwt>
<pdfrwt beam="1">  1       21 0.17110084E-01 0.44336377E+03</pdfrwt>
<pdfrwt beam="2">  1       21 0.62114134E-01 0.44336377E+03</pdfrwt>
<totfact> 0.68731982E+04</totfact>
</mgrwt>
</event>
<event>
 7    0  0.4748297E-002  0.4625264E+03  0.7546771E-02  0.1024051E+00
         21   -1    0    0  502  501  0.00000000000E+00  0.00000000000E+00  0.96359800101E+02  0.96359800101E+02  0.00000000000E+00 0. -1.
         21   -1    0    0  501  502 -0.00000000000E+00 -0.00000000000E+00 -0.55503084539E+03  0.55503084539E+03  0.00000000000E+00 0. -1.
      99926    2    1    2    0    0  0.71054273576E-14  0.71054273576E-14 -0.45867104529E+03  0.65139064549E+03  0.46252637249E+03 0.  0.
      99925    2    3    3    0    0 -0.52917090690E+02 -0.62095193094E+02 -0.16220008218E+03  0.31942894354E+03  0.26281162802E+03 0.  0.
         25    1    4    4    0    0 -0.22906933447E+02 -0.10762418763E+02 -0.11860287603E+03  0.17422602435E+03  0.12509000000E+03 0.  0.
         25    1    4    4    0    0 -0.30010157243E+02 -0.51332774331E+02 -0.43597206145E+02  0.14520291919E+03  0.12509000000E+03 0.  0.
         25    1    3    3    0    0  0.52917090690E+02  0.62095193094E+02 -0.29647096311E+03  0.33196170195E+03  0.12509000000E+03 0.  0.
<mgrwt>
<rscale>  2 0.46252637E+03</rscale>
<asrwt>0</asrwt>
<pdfrwt beam="1">  1       21 0.14170559E-01 0.46252637E+03</pdfrwt>
<pdfrwt beam="2">  1       21 0.81622182E-01 0.46252637E+03</pdfrwt>
<totfact> 0.52437824E+04</totfact>
</mgrwt>
</event>
<event>
 7    0  0.4748297E-002  0.4455892E+03  0.7546771E-02  0.1029046E+00
         21   -1    0    0  502  501  0.00000000000E+00  0.00000000000E+00  0.24014047844E+03  0.24014047844E+03  0.00000000000E+00 0. -1.
         21   -1    0    0  501  502 -0.00000000000E+00 -0.00000000000E+00 -0.20670163392E+03  0.20670163392E+03  0.00000000000E+00 0. -1.
      99926    2    1    2    0    0  0.00000000000E+00 -0.88817841970E-15  0.33438844520E+02  0.44684211237E+03  0.44558917970E+03 0.  0.
      99925    2    3    3    0    0 -0.10397252051E+03 -0.70020485277E+01  0.17488543380E+02  0.28325350057E+03  0.26280674026E+03 0.  0.
         25    1    3    3    0    0  0.10397252051E+03  0.70020485277E+01  0.15950301140E+02  0.16358861180E+03  0.12509000000E+03 0.  0.
         25    1    4    4    0    0 -0.90076005090E+02 -0.11757444194E+02  0.27044610067E+02  0.15694216521E+03  0.12509000000E+03 0.  0.
         25    1    4    4    0    0 -0.13896515423E+02  0.47553956659E+01 -0.95560666874E+01  0.12631133536E+03  0.12509000000E+03 0.  0.
<mgrwt>
<rscale>  2 0.44558918E+03</rscale>
<asrwt>0</asrwt>
<pdfrwt beam="1">  1       21 0.35314776E-01 0.44558918E+03</pdfrwt>
<pdfrwt beam="2">  1       21 0.30397299E-01 0.44558918E+03</pdfrwt>
<totfact> 0.74593197E+04</totfact>
</mgrwt>
</event>
<event>
 7    0  0.4748297E-002  0.4536296E+03  0.7546771E-02  0.1026645E+00
         21   -1    0    0  502  501  0.00000000000E+00  0.00000000000E+00  0.27168684020E+03  0.27168684020E+03  0.00000000000E+00 0.  1.
         21   -1    0    0  501  502 -0.00000000000E+00 -0.00000000000E+00 -0.18935388636E+03  0.18935388636E+03  0.00000000000E+00 0.  1.
      99926    2    1    2    0    0  0.00000000000E+00  0.00000000000E+00  0.82332953840E+02  0.46104072656E+03  0.45362962454E+03 0.  0.
      99925    2    3    3    0    0  0.38798514987E+02 -0.25259449692E+01 -0.54667501168E+02  0.27149300715E+03  0.26307453712E+03 0.  0.
         25    1    4    4    0    0  0.57473187476E+02 -0.13573887061E+02 -0.37941393924E+02  0.14343805339E+03  0.12509000000E+03 0.  0.
         25    1    3    3    0    0 -0.38798514987E+02  0.25259449692E+01  0.13700045501E+03  0.18954771942E+03  0.12509000000E+03 0.  0.
         25    1    4    4    0    0 -0.18674672489E+02  0.11047942092E+02 -0.16726107244E+02  0.12805495375E+03  0.12509000000E+03 0.  0.
<mgrwt>
<rscale>  2 0.45362962E+03</rscale>
<asrwt>0</asrwt>
<pdfrwt beam="1">  1       21 0.39953947E-01 0.45362962E+03</pdfrwt>
<pdfrwt beam="2">  1       21 0.27846160E-01 0.45362962E+03</pdfrwt>
<totfact> 0.68852037E+04</totfact>
</mgrwt>
</event>
<event>
 7    0  0.4748297E-002  0.4448804E+03  0.7546771E-02  0.1029260E+00
         21   -1    0    0  502  501  0.00000000000E+00  0.00000000000E+00  0.51216219454E+02  0.51216219454E+02  0.00000000000E+00 0. -1.
         21   -1    0    0  501  502 -0.00000000000E+00 -0.00000000000E+00 -0.96609336034E+03  0.96609336034E+03  0.00000000000E+00 0. -1.
      99926    2    1    2    0    0  0.00000000000E+00  0.00000000000E+00 -0.91487714089E+03  0.10173095798E+04  0.44488043138E+03 0.  0.
      99925    2    3    3    0    0 -0.89828396111E+02 -0.21150446850E+02 -0.47437581278E+03  0.55018496011E+03  0.26297261537E+03 0.  0.
         25    1    3    3    0    0  0.89828396111E+02  0.21150446850E+02 -0.44050132811E+03  0.46712461968E+03  0.12509000000E+03 0.  0.
         25    1    4    4    0    0 -0.21969229822E+02 -0.42109173735E+02 -0.20487639122E+03  0.24469914865E+03  0.12509000000E+03 0.  0.
         25    1    4    4    0    0 -0.67859166289E+02  0.20958726885E+02 -0.26949942156E+03  0.30548581146E+03  0.12509000000E+03 0.  0.
<mgrwt>
<rscale>  2 0.44488043E+03</rscale>
<asrwt>0</asrwt>
<pdfrwt beam="1">  1       21 0.75317979E-02 0.44488043E+03</pdfrwt>
<pdfrwt beam="2">  1       21 0.14207253E+00 0.44488043E+03</pdfrwt>
<totfact> 0.41698816E+04</totfact>
</mgrwt>
</event>
<event>
 7    0  0.4748297E-002  0.4601219E+03  0.7546771E-02  0.1024746E+00
         21   -1    0    0  502  501  0.00000000000E+00  0.00000000000E+00  0.14470334587E+03  0.14470334587E+03  0.00000000000E+00 0.  1.
         21   -1    0    0  501  502 -0.00000000000E+00 -0.00000000000E+00 -0.36576931440E+03  0.36576931440E+03  0.00000000000E+00 0.  1.
      99926    2    1    2    0    0  0.00000000000E+00  0.00000000000E+00 -0.22106596853E+03  0.51047266027E+03  0.46012191258E+03 0.  0.
      99925    2    3    3    0    0 -0.75015880295E+02 -0.33850369873E+02 -0.23203215297E+03  0.36033607200E+03  0.26311582038E+03 0.  0.
         25    1    3    3    0    0  0.75015880295E+02  0.33850369873E+02  0.10966184435E+02  0.15013658827E+03  0.12509000000E+03 0.  0.
         25    1    4    4    0    0 -0.52203700658E+02 -0.53138923745E+02 -0.14178786550E+03  0.20322469949E+03  0.12509000000E+03 0.  0.
         25    1    4    4    0    0 -0.22812179637E+02  0.19288553873E+02 -0.90244287473E+02  0.15711137251E+03  0.12509000000E+03 0.  0.
<mgrwt>
<rscale>  2 0.46012191E+03</rscale>
<asrwt>0</asrwt>
<pdfrwt beam="1">  1       21 0.21279904E-01 0.46012191E+03</pdfrwt>
<pdfrwt beam="2">  1       21 0.53789604E-01 0.46012191E+03</pdfrwt>
<totfact> 0.61982729E+04</totfact>
</mgrwt>
</event>
<event>
 7    0  0.4748297E-002  0.4590891E+03  0.7546771E-02  0.1025046E+00
         21   -1    0    0  502  501  0.00000000000E+00  0.00000000000E+00  0.41588789762E+03  0.41588789762E+03  0.00000000000E+00 0. -1.
         21   -1    0    0  501  502 -0.00000000000E+00 -0.00000000000E+00 -0.12669447463E+03  0.12669447463E+03  0.00000000000E+00 0. -1.
      99926    2    1    2    0    0  0.00000000000E+00 -0.88817841970E-15  0.28919342300E+03  0.54258237225E+03  0.45908909241E+03 0.  0.
      99925    2    3    3    0    0 -0.11283592380E+03 -0.71524305007E+01  0.14534913076E+03  0.32094800788E+03  0.26286527154E+03 0.  0.
         25    1    3    3    0    0  0.11283592380E+03  0.71524305007E+01  0.14384429224E+03  0.22163436437E+03  0.12509000000E+03 0.  0.
         25    1    4    4    0    0 -0.94270255229E+02  0.15656326077E+02  0.73567690757E+02  0.17375763232E+03  0.12509000000E+03 0.  0.
         25    1    4    4    0    0 -0.18565668575E+02 -0.22808756578E+02  0.71781440004E+02  0.14719037555E+03  0.12509000000E+03 0.  0.
<mgrwt>
<rscale>  2 0.45908909E+03</rscale>
<asrwt>0</asrwt>
<pdfrwt beam="1">  1       21 0.61159984E-01 0.45908909E+03</pdfrwt>
<pdfrwt beam="2">  1       21 0.18631541E-01 0.45908909E+03</pdfrwt>
<totfact> 0.60381614E+04</totfact>
</mgrwt>
</event>
<event>
 7    0  0.4748297E-002  0.4240909E+03  0.7546771E-02  0.1035743E+00
         21   -1    0    0  502  501  0.00000000000E+00  0.00000000000E+00  0.12596421668E+04  0.12596421668E+04  0.00000000000E+00 0. -1.
         21   -1    0    0  501  502 -0.00000000000E+00 -0.00000000000E+00 -0.35695274426E+02  0.35695274426E+02  0.00000000000E+00 0. -1.
      99926    2    1    2    0    0  0.00000000000E+00  0.00000000000E+00  0.12239468924E+04  0.12953374412E+04  0.42409089979E+03 0.  0.
      99925    2    3    3    0    0  0.49611940857E+02 -0.13674464456E+02  0.60390235124E+03  0.66071071885E+03  0.26304423302E+03 0.  0.
         25    1    4    4    0    0 -0.37185870331E+01 -0.64621303287E+01  0.21751904248E+03  0.25103312323E+03  0.12509000000E+03 0.  0.
         25    1    3    3    0    0 -0.49611940857E+02  0.13674464456E+02  0.62004454111E+03  0.63462672235E+03  0.12509000000E+03 0.  0.
         25    1    4    4    0    0  0.53330527890E+02 -0.72123341269E+01  0.38638330876E+03  0.40967759563E+03  0.12509000000E+03 0.  0.
<mgrwt>
<rscale>  2 0.42409090E+03</rscale>
<asrwt>0</asrwt>
<pdfrwt beam="1">  1       21 0.18524146E+00 0.42409090E+03</pdfrwt>
<pdfrwt beam="2">  1       21 0.52493059E-02 0.42409090E+03</pdfrwt>
<totfact> 0.37483494E+04</totfact>
</mgrwt>
</event>
<event>
 6    0  0.4748297E-002  0.4532340E+03  0.7546771E-02  0.1026762E+00
         21   -1    0    0  502  501  0.00000000000E+00  0.00000000000E+00  0.85304825700E+03  0.85304825700E+03  0.00000000000E+00 0.  1.
         21   -1    0    0  501  502 -0.00000000000E+00 -0.00000000000E+00 -0.60202065399E+02  0.60202065399E+02  0.00000000000E+00 0.  1.
      99926    2    1    2    0    0  0.00000000000E+00 -0.71054273576E-14  0.79284619160E+03  0.91325032240E+03  0.45323401000E+03 0.  0.
         25    1    3    3    0    0  0.88764309031E+01  0.26734798226E+02  0.35059436400E+03  0.37330611652E+03  0.12509000000E+03 0.  0.
         25    1    3    3    0    0 -0.74913481337E+02 -0.54383762641E+02  0.16101189635E+03  0.22392400986E+03  0.12509000000E+03 0.  0.
         25    1    3    3    0    0  0.66037050434E+02  0.27648964415E+02  0.28123993124E+03  0.31602019601E+03  0.12509000000E+03 0.  0.
<mgrwt>
<rscale>  2 0.45323401E+03</rscale>
<asrwt>0</asrwt>
<pdfrwt beam="1">  1       21 0.12544827E+00 0.45323401E+03</pdfrwt>
<pdfrwt beam="2">  1       21 0.88532454E-02 0.45323401E+03</pdfrwt>
<totfact> 0.43260533E+04</totfact>
</mgrwt>
</event>
<event>
 7    0  0.4748297E-002  0.4457356E+03  0.7546771E-02  0.1029001E+00
         21   -1    0    0  502  501  0.00000000000E+00  0.00000000000E+00  0.29984865609E+03  0.29984865609E+03  0.00000000000E+00 0. -1.
         21   -1    0    0  501  502 -0.00000000000E+00 -0.00000000000E+00 -0.16565042824E+03  0.16565042824E+03  0.00000000000E+00 0. -1.
      99926    2    1    2    0    0  0.00000000000E+00  0.14210854715E-13  0.13419822785E+03  0.46549908432E+03  0.44573560902E+03 0.  0.
      99925    2    3    3    0    0 -0.21676300982E+02  0.94286450993E+02  0.12567857157E+03  0.30713277001E+03  0.26301261985E+03 0.  0.
         25    1    3    3    0    0  0.21676300982E+02 -0.94286450993E+02  0.85196562818E+01  0.15836631431E+03  0.12509000000E+03 0.  0.
         25    1    4    4    0    0 -0.21999374413E+02  0.94292990135E+01  0.40581263103E+02  0.13366836263E+03  0.12509000000E+03 0.  0.
         25    1    4    4    0    0  0.32307343036E+00  0.84857151979E+02  0.85097308465E+02  0.17346440738E+03  0.12509000000E+03 0.  0.
<mgrwt>
<rscale>  2 0.44573561E+03</rscale>
<asrwt>0</asrwt>
<pdfrwt beam="1">  1       21 0.44095391E-01 0.44573561E+03</pdfrwt>
<pdfrwt beam="2">  1       21 0.24360357E-01 0.44573561E+03</pdfrwt>
<totfact> 0.72991234E+04</totfact>
</mgrwt>
</event>
<event>
 7    0  0.4748297E-002  0.4613177E+03  0.7546771E-02  0.1024400E+00
         21   -1    0    0  502  501  0.00000000000E+00  0.00000000000E+00  0.26693228257E+03  0.26693228257E+03  0.00000000000E+00 0. -1.
         21   -1    0    0  501  502 -0.00000000000E+00 -0.00000000000E+00 -0.19931461365E+03  0.19931461365E+03  0.00000000000E+00 0. -1.
      99926    2    1    2    0    0  0.00000000000E+00  0.00000000000E+00  0.67617668923E+02  0.46624689622E+03  0.46131769865E+03 0.  0.
      99925    2    3    3    0    0 -0.57971129780E+02  0.89872543458E+02 -0.10446969691E+02  0.28409497650E+03  0.26298876505E+03 0.  0.
         25    1    4    4    0    0 -0.70457118081E+01  0.75379151478E+02  0.10775880414E+02  0.14661270829E+03  0.12509000000E+03 0.  0.
         25    1    4    4    0    0 -0.50925417972E+02  0.14493391980E+02 -0.21222850104E+02  0.13748226821E+03  0.12509000000E+03 0.  0.
         25    1    3    3    0    0  0.57971129780E+02 -0.89872543458E+02  0.78064638613E+02  0.18215191972E+03  0.12509000000E+03 0.  0.
<mgrwt>
<rscale>  2 0.46131770E+03</rscale>
<asrwt>0</asrwt>
<pdfrwt beam="1">  1       21 0.39254748E-01 0.46131770E+03</pdfrwt>
<pdfrwt beam="2">  1       21 0.29310972E-01 0.46131770E+03</pdfrwt>
<totfact> 0.64420383E+04</totfact>
</mgrwt>
</event>
<event>
 7    0  0.4748297E-002  0.4659782E+03  0.7546771E-02  0.1023062E+00
         21   -1    0    0  502  501  0.00000000000E+00  0.00000000000E+00  0.83162694268E+02  0.83162694268E+02  0.00000000000E+00 0. -1.
         21   -1    0    0  501  502 -0.00000000000E+00 -0.00000000000E+00 -0.65274364867E+03  0.65274364867E+03  0.00000000000E+00 0. -1.
      99926    2    1    2    0    0 -0.17763568394E-14  0.00000000000E+00 -0.56958095440E+03  0.73590634294E+03  0.46597819902E+03 0.  0.
      99925    2    3    3    0    0  0.14235048549E+02 -0.12161823544E+03 -0.37650730597E+03  0.47529442145E+03  0.26297034779E+03 0.  0.
         25    1    3    3    0    0 -0.14235048549E+02  0.12161823544E+03 -0.19307364843E+03  0.26061192148E+03  0.12509000000E+03 0.  0.
         25    1    4    4    0    0  0.41892142027E+02 -0.68364121799E+02 -0.16188190952E+03  0.21973134834E+03  0.12509000000E+03 0.  0.
         25    1    4    4    0    0 -0.27657093478E+02 -0.53254113644E+02 -0.21462539645E+03  0.25556307311E+03  0.12509000000E+03 0.  0.
<mgrwt>
<rscale>  2 0.46597820E+03</rscale>
<asrwt>0</asrwt>
<pdfrwt beam="1">  1       21 0.12229808E-01 0.46597820E+03</pdfrwt>
<pdfrwt beam="2">  1       21 0.95991715E-01 0.46597820E+03</pdfrwt>
<totfact> 0.46822162E+04</totfact>
</mgrwt>
</event>
<event>
 7    0  0.4748297E-002  0.4623376E+03  0.7546771E-02  0.1024105E+00
         21   -1    0    0  502  501  0.00000000000E+00  0.00000000000E+00  0.90003047454E+03  0.90003047454E+03  0.00000000000E+00 0.  1.
         21   -1    0    0  501  502 -0.00000000000E+00 -0.00000000000E+00 -0.59374665309E+02  0.59374665309E+02  0.00000000000E+00 0.  1.
      99926    2    1    2    0    0 -0.14210854715E-13  0.00000000000E+00  0.84065580923E+03  0.95940513985E+03  0.46233757448E+03 0.  0.
      99925    2    3    3    0    0  0.11251706938E+03  0.37921816202E+02  0.49000034908E+03  0.56863037751E+03  0.26294868146E+03 0.  0.
         25    1    4    4    0    0  0.35981716945E+02  0.33895003260E+02  0.29843748599E+03  0.32734690520E+03  0.12509000000E+03 0.  0.
         25    1    3    3    0    0 -0.11251706938E+03 -0.37921816202E+02  0.35065546015E+03  0.39077476233E+03  0.12509000000E+03 0.  0.
         25    1    4    4    0    0  0.76535352437E+02  0.40268129419E+01  0.19156286310E+03  0.24128347232E+03  0.12509000000E+03 0.  0.
<mgrwt>
<rscale>  2 0.46233757E+03</rscale>
<asrwt>0</asrwt>
<pdfrwt beam="1">  1       21 0.13235741E+00 0.46233757E+03</pdfrwt>
<pdfrwt beam="2">  1       21 0.87315690E-02 0.46233757E+03</pdfrwt>
<totfact> 0.38505227E+04</totfact>
</mgrwt>
</event>
<event>
 7    0  0.4748297E-002  0.4516757E+03  0.7546771E-02  0.1027224E+00
         21   -1    0    0  502  501  0.00000000000E+00  0.00000000000E+00  0.10712205178E+03  0.10712205178E+03  0.00000000000E+00 0. -1.
         21   -1    0    0  501  502 -0.00000000000E+00 -0.00000000000E+00 -0.47611794882E+03  0.47611794882E+03  0.00000000000E+00 0. -1.
      99926    2    1    2    0    0  0.00000000000E+00 -0.35527136788E-14 -0.36899589704E+03  0.58324000060E+03  0.45167568704E+03 0.  0.
      99925    2    3    3    0    0  0.88809346595E+02 -0.25441876474E+02 -0.30992926216E+03  0.41689468333E+03  0.26307915220E+03 0.  0.
         25    1    4    4    0    0  0.79557341920E+01  0.85952559578E+01 -0.12871288012E+03  0.17986574365E+03  0.12509000000E+03 0.  0.
         25    1    3    3    0    0 -0.88809346595E+02  0.25441876474E+02 -0.59066634882E+02  0.16634531727E+03  0.12509000000E+03 0.  0.
         25    1    4    4    0    0  0.80853612403E+02 -0.34037132431E+02 -0.18121638204E+03  0.23702893967E+03  0.12509000000E+03 0.  0.
<mgrwt>
<rscale>  2 0.45167569E+03</rscale>
<asrwt>0</asrwt>
<pdfrwt beam="1">  1       21 0.15753243E-01 0.45167569E+03</pdfrwt>
<pdfrwt beam="2">  1       21 0.70017346E-01 0.45167569E+03</pdfrwt>
<totfact> 0.61317439E+04</totfact>
</mgrwt>
</event>
<event>
 7    0  0.4748297E-002  0.4518958E+03  0.7546771E-02  0.1027158E+00
         21   -1    0    0  502  501  0.00000000000E+00  0.00000000000E+00  0.11936323740E+02  0.11936323740E+02  0.00000000000E+00 0. -1.
         21   -1    0    0  501  502 -0.00000000000E+00 -0.00000000000E+00 -0.42770676892E+04  0.42770676892E+04  0.00000000000E+00 0. -1.
      99926    2    1    2    0    0  0.00000000000E+00  0.00000000000E+00 -0.42651313655E+04  0.42890040130E+04  0.45189584905E+03 0.  0.
      99925    2    3    3    0    0 -0.77901712645E+02  0.57712139508E+02 -0.31895032335E+04  0.32017953144E+04  0.26298857531E+03 0.  0.
         25    1    4    4    0    0 -0.48410085160E+02  0.68797046306E+02 -0.16184907677E+04  0.16254957531E+04  0.12509000000E+03 0.  0.
         25    1    4    4    0    0 -0.29491627486E+02 -0.11084906798E+02 -0.15710124658E+04  0.15762995613E+04  0.12509000000E+03 0.  0.
         25    1    3    3    0    0  0.77901712645E+02 -0.57712139508E+02 -0.10756281320E+04  0.10872086986E+04  0.12509000000E+03 0.  0.
<mgrwt>
<rscale>  2 0.45189585E+03</rscale>
<asrwt>0</asrwt>
<pdfrwt beam="1">  1       21 0.17553422E-02 0.45189585E+03</pdfrwt>
<pdfrwt beam="2">  1       21 0.62898036E+00 0.45189585E+03</pdfrwt>
<totfact> 0.23805279E+02</totfact>
</mgrwt>
</event>
<event>
 7    0  0.4748297E-002  0.4574868E+03  0.7546771E-02  0.1025513E+00
         21   -1    0    0  502  501  0.00000000000E+00  0.00000000000E+00  0.30326300838E+03  0.30326300838E+03  0.00000000000E+00 0.  1.
         21   -1    0    0  501  502 -0.00000000000E+00 -0.00000000000E+00 -0.17253520413E+03  0.17253520413E+03  0.00000000000E+00 0.  1.
      99926    2    1    2    0    0  0.00000000000E+00  0.00000000000E+00  0.13072780425E+03  0.47579821251E+03  0.45748680880E+03 0.  0.
      99925    2    3    3    0    0 -0.32443172041E+02 -0.40967901881E+01 -0.33082961948E+02  0.26710988432E+03  0.26302825861E+03 0.  0.
         25    1    3    3    0    0  0.32443172041E+02  0.40967901881E+01  0.16381076619E+03  0.20868832819E+03  0.12509000000E+03 0.  0.
         25    1    4    4    0    0  0.97041582159E+01 -0.99336252520E+01 -0.46784699144E+02  0.13427272162E+03  0.12509000000E+03 0.  0.
         25    1    4    4    0    0 -0.42147330257E+02  0.58368350640E+01  0.13701737196E+02  0.13283716270E+03  0.12509000000E+03 0.  0.
<mgrwt>
<rscale>  2 0.45748681E+03</rscale>
<asrwt>0</asrwt>
<pdfrwt beam="1">  1       21 0.44597501E-01 0.45748681E+03</pdfrwt>
<pdfrwt beam="2">  1       21 0.25372824E-01 0.45748681E+03</pdfrwt>
<totfact> 0.65701107E+04</totfact>
</mgrwt>
</event>
<event>
 7    0  0.4748297E-002  0.4563645E+03  0.7546771E-02  0.1025841E+00
         21   -1    0    0  502  501  0.00000000000E+00  0.00000000000E+00  0.27451421231E+03  0.27451421231E+03  0.00000000000E+00 0.  1.
         21   -1    0    0  501  502 -0.00000000000E+00 -0.00000000000E+00 -0.18967010489E+03  0.18967010489E+03  0.00000000000E+00 0.  1.
      99926    2    1    2    0    0 -0.35527136788E-14  0.00000000000E+00  0.84844107425E+02  0.46418431720E+03  0.45636450099E+03 0.  0.
      99925    2    3    3    0    0 -0.11541120522E+02  0.83349789876E+02 -0.25470376385E+02  0.27737645234E+03  0.26307521986E+03 0.  0.
         25    1    4    4    0    0  0.21619418107E+02  0.13074115145E+02 -0.25380819600E+02  0.13011543271E+03  0.12509000000E+03 0.  0.
         25    1    3    3    0    0  0.11541120522E+02 -0.83349789876E+02  0.11031448381E+03  0.18680786486E+03  0.12509000000E+03 0.  0.
         25    1    4    4    0    0 -0.33160538629E+02  0.70275674731E+02 -0.89556784262E-01  0.14726101963E+03  0.12509000000E+03 0.  0.
<mgrwt>
<rscale>  2 0.45636450E+03</rscale>
<asrwt>0</asrwt>
<pdfrwt beam="1">  1       21 0.40369737E-01 0.45636450E+03</pdfrwt>
<pdfrwt beam="2">  1       21 0.27892662E-01 0.45636450E+03</pdfrwt>
<totfact> 0.67139533E+04</totfact>
</mgrwt>
</event>
<event>
 7    0  0.4748297E-002  0.4568889E+03  0.7546771E-02  0.1025687E+00
         21   -1    0    0  502  501  0.00000000000E+00  0.00000000000E+00  0.66006153741E+02  0.66006153741E+02  0.00000000000E+00 0. -1.
         21   -1    0    0  501  502 -0.00000000000E+00 -0.00000000000E+00 -0.79063624513E+03  0.79063624513E+03  0.00000000000E+00 0. -1.
      99926    2    1    2    0    0  0.00000000000E+00 -0.35527136788E-14 -0.72463009139E+03  0.85664239887E+03  0.45688885979E+03 0.  0.
      99925    2    3    3    0    0  0.10795950805E+03  0.28645416259E+02 -0.40326746881E+03  0.49415480110E+03  0.26284691513E+03 0.  0.
         25    1    4    4    0    0  0.56363209619E+02 -0.25884602736E+02 -0.19118855342E+03  0.23674331061E+03  0.12509000000E+03 0.  0.
         25    1    4    4    0    0  0.51596298430E+02  0.54530018994E+02 -0.21207891539E+03  0.25741149049E+03  0.12509000000E+03 0.  0.
         25    1    3    3    0    0 -0.10795950805E+03 -0.28645416259E+02 -0.32136262257E+03  0.36248759777E+03  0.12509000000E+03 0.  0.
<mgrwt>
<rscale>  2 0.45688886E+03</rscale>
<asrwt>0</asrwt>
<pdfrwt beam="1">  1       21 0.97067875E-02 0.45688886E+03</pdfrwt>
<pdfrwt beam="2">  1       21 0.11627003E+00 0.45688886E+03</pdfrwt>
<totfact> 0.44480968E+04</totfact>
</mgrwt>
</event>
<event>
 7    0  0.4748297E-002  0.4618904E+03  0.7546771E-02  0.1024234E+00
         21   -1    0    0  502  501  0.00000000000E+00  0.00000000000E+00  0.12119995070E+03  0.12119995070E+03  0.00000000000E+00 0.  1.
         21   -1    0    0  501  502 -0.00000000000E+00 -0.00000000000E+00 -0.44006351103E+03  0.44006351103E+03  0.00000000000E+00 0.  1.
      99926    2    1    2    0    0  0.14210854715E-13  0.00000000000E+00 -0.31886356033E+03  0.56126346174E+03  0.46189035861E+03 0.  0.
      99925    2    3    3    0    0 -0.69096639375E+02 -0.15578497138E+02 -0.31642665776E+03  0.41749113568E+03  0.26297525261E+03 0.  0.
         25    1    4    4    0    0 -0.22400400680E+01 -0.30290932894E+02 -0.13210686758E+03  0.18445132409E+03  0.12509000000E+03 0.  0.
         25    1    3    3    0    0  0.69096639375E+02  0.15578497138E+02 -0.24369025727E+01  0.14377232606E+03  0.12509000000E+03 0.  0.
         25    1    4    4    0    0 -0.66856599307E+02  0.14712435756E+02 -0.18431979018E+03  0.23303981159E+03  0.12509000000E+03 0.  0.
<mgrwt>
<rscale>  2 0.46189036E+03</rscale>
<asrwt>0</asrwt>
<pdfrwt beam="1">  1       21 0.17823522E-01 0.46189036E+03</pdfrwt>
<pdfrwt beam="2">  1       21 0.64715222E-01 0.46189036E+03</pdfrwt>
<totfact> 0.57907161E+04</totfact>
</mgrwt>
</event>
<event>
 7    0  0.4748297E-002  0.4581125E+03  0.7546771E-02  0.1025330E+00
         21   -1    0    0  502  501  0.00000000000E+00  0.00000000000E+00  0.12635789327E+03  0.12635789327E+03  0.00000000000E+00 0. -1.
         21   -1    0    0  501  502 -0.00000000000E+00 -0.00000000000E+00 -0.41522350778E+03  0.41522350778E+03  0.00000000000E+00 0. -1.
      99926    2    1    2    0    0  0.71054273576E-14  0.00000000000E+00 -0.28886561451E+03  0.54158140104E+03  0.45811250879E+03 0.  0.
      99925    2    3    3    0    0  0.42707541414E+02 -0.96545215368E+02 -0.23824892642E+03  0.37024993891E+03  0.26301626113E+03 0.  0.
         25    1    3    3    0    0 -0.42707541414E+02  0.96545215368E+02 -0.50616688091E+02  0.17133146214E+03  0.12509000000E+03 0.  0.
         25    1    4    4    0    0  0.59474459196E+02 -0.38225585742E+02 -0.10813427065E+03  0.17983029581E+03  0.12509000000E+03 0.  0.
         25    1    4    4    0    0 -0.16766917782E+02 -0.58319629626E+02 -0.13011465577E+03  0.19041964310E+03  0.12509000000E+03 0.  0.
<mgrwt>
<rscale>  2 0.45811251E+03</rscale>
<asrwt>0</asrwt>
<pdfrwt beam="1">  1       21 0.18582043E-01 0.45811251E+03</pdfrwt>
<pdfrwt beam="2">  1       21 0.61062280E-01 0.45811251E+03</pdfrwt>
<totfact> 0.60912003E+04</totfact>
</mgrwt>
</event>
<event>
 7    0  0.4748297E-002  0.4564797E+03  0.7546771E-02  0.1025807E+00
         21   -1    0    0  502  501  0.00000000000E+00  0.00000000000E+00  0.17744860058E+03  0.17744860058E+03  0.00000000000E+00 0. -1.
         21   -1    0    0  501  502 -0.00000000000E+00 -0.00000000000E+00 -0.29356907342E+03  0.29356907342E+03  0.00000000000E+00 0. -1.
      99926    2    1    2    0    0  0.00000000000E+00  0.35527136788E-14 -0.11612047284E+03  0.47101767400E+03  0.45647966549E+03 0.  0.
      99925    2    3    3    0    0 -0.10432724002E+03 -0.20287486525E+02 -0.11687589383E+03  0.30687190378E+03  0.26308674549E+03 0.  0.
         25    1    3    3    0    0  0.10432724002E+03  0.20287486525E+02  0.75542098738E+00  0.16414577022E+03  0.12509000000E+03 0.  0.
         25    1    4    4    0    0 -0.43984708705E+02 -0.49732379699E+02 -0.53289289456E+02  0.15131166730E+03  0.12509000000E+03 0.  0.
         25    1    4    4    0    0 -0.60342531314E+02  0.29444893174E+02 -0.63586604373E+02  0.15556023648E+03  0.12509000000E+03 0.  0.
<mgrwt>
<rscale>  2 0.45647967E+03</rscale>
<asrwt>0</asrwt>
<pdfrwt beam="1">  1       21 0.26095383E-01 0.45647967E+03</pdfrwt>
<pdfrwt beam="2">  1       21 0.43171922E-01 0.45647967E+03</pdfrwt>
<totfact> 0.66575195E+04</totfact>
</mgrwt>
</event>
<event>
 7    0  0.4748297E-002  0.4520790E+03  0.7546771E-02  0.1027104E+00
         21   -1    0    0  502  501  0.00000000000E+00  0.00000000000E+00  0.16242180336E+03  0.16242180336E+03  0.00000000000E+00 0.  1.
         21   -1    0    0  501  502 -0.00000000000E+00 -0.00000000000E+00 -0.31457517066E+03  0.31457517066E+03  0.00000000000E+00 0.  1.
      99926    2    1    2    0    0  0.00000000000E+00  0.00000000000E+00 -0.15215336730E+03  0.47699697401E+03  0.45207904844E+03 0.  0.
      99925    2    3    3    0    0  0.82296217612E+01 -0.10707282839E+03 -0.12386082658E+03  0.30972386436E+03  0.26278327674E+03 0.  0.
         25    1    3    3    0    0 -0.82296217612E+01  0.10707282839E+03 -0.28292540717E+02  0.16727310966E+03  0.12509000000E+03 0.  0.
         25    1    4    4    0    0 -0.14937552413E+01 -0.11049602878E+02 -0.61913770759E+02  0.14001838500E+03  0.12509000000E+03 0.  0.
         25    1    4    4    0    0  0.97233770024E+01 -0.96023225514E+02 -0.61947055823E+02  0.16970547936E+03  0.12509000000E+03 0.  0.
<mgrwt>
<rscale>  2 0.45207905E+03</rscale>
<asrwt>0</asrwt>
<pdfrwt beam="1">  1       21 0.23885559E-01 0.45207905E+03</pdfrwt>
<pdfrwt beam="2">  1       21 0.46261054E-01 0.45207905E+03</pdfrwt>
<totfact> 0.68493574E+04</totfact>
</mgrwt>
</event>
<event>
 7    0  0.4748297E-002  0.4425680E+03  0.7546771E-02  0.1029962E+00
         21   -1    0    0  502  501  0.00000000000E+00  0.00000000000E+00  0.20833140451E+03  0.20833140451E+03  0.00000000000E+00 0.  1.
         21   -1    0    0  501  502 -0.00000000000E+00 -0.00000000000E+00 -0.23504184752E+03  0.23504184752E+03  0.00000000000E+00 0.  1.
      99926    2    1    2    0    0  0.35527136788E-14  0.00000000000E+00 -0.26710443007E+02  0.44337325203E+03  0.44256795280E+03 0.  0.
      99925    2    3    3    0    0  0.22935739606E+02 -0.31299883498E+02 -0.11042060348E+03  0.28793635189E+03  0.26307584878E+03 0.  0.
         25    1    4    4    0    0 -0.17347530230E+01  0.84872334207E+01 -0.20828957628E+02  0.12710781280E+03  0.12509000000E+03 0.  0.
         25    1    3    3    0    0 -0.22935739606E+02  0.31299883498E+02  0.83710160472E+02  0.15543690014E+03  0.12509000000E+03 0.  0.
         25    1    4    4    0    0  0.24670492629E+02 -0.39787116919E+02 -0.89591645851E+02  0.16082853909E+03  0.12509000000E+03 0.  0.
<mgrwt>
<rscale>  2 0.44256795E+03</rscale>
<asrwt>0</asrwt>
<pdfrwt beam="1">  1       21 0.30636971E-01 0.44256795E+03</pdfrwt>
<pdfrwt beam="2">  1       21 0.34564977E-01 0.44256795E+03</pdfrwt>
<totfact> 0.76740377E+04</totfact>
</mgrwt>
</event>
<event>
 7    0  0.4748297E-002  0.4562651E+03  0.7546771E-02  0.1025870E+00
         21   -1    0    0  502  501  0.00000000000E+00  0.00000000000E+00  0.71029225806E+02  0.71029225806E+02  0.00000000000E+00 0. -1.
         21   -1    0    0  501  502 -0.00000000000E+00 -0.00000000000E+00 -0.73271903248E+03  0.73271903248E+03  0.00000000000E+00 0. -1.
      99926    2    1    2    0    0  0.00000000000E+00  0.00000000000E+00 -0.66168980667E+03  0.80374825828E+03  0.45626512297E+03 0.  0.
      99925    2    3    3    0    0 -0.11066707719E+03  0.17959745898E+02 -0.45494238106E+03  0.53736177112E+03  0.26308810031E+03 0.  0.
         25    1    4    4    0    0 -0.75179166444E+02 -0.21184392805E+02 -0.27359468017E+03  0.31080901319E+03  0.12509000000E+03 0.  0.
         25    1    3    3    0    0  0.11066707719E+03 -0.17959745898E+02 -0.20674742561E+03  0.26638648716E+03  0.12509000000E+03 0.  0.
         25    1    4    4    0    0 -0.35487910750E+02  0.39144138703E+02 -0.18134770090E+03  0.22655275793E+03  0.12509000000E+03 0.  0.
<mgrwt>
<rscale>  2 0.45626512E+03</rscale>
<asrwt>0</asrwt>
<pdfrwt beam="1">  1       21 0.10445474E-01 0.45626512E+03</pdfrwt>
<pdfrwt beam="2">  1       21 0.10775280E+00 0.45626512E+03</pdfrwt>
<totfact> 0.47114537E+04</totfact>
</mgrwt>
</event>
<event>
 7    0  0.4748297E-002  0.4548815E+03  0.7546771E-02  0.1026276E+00
         21   -1    0    0  502  501  0.00000000000E+00  0.00000000000E+00  0.54759338320E+02  0.54759338320E+02  0.00000000000E+00 0.  1.
         21   -1    0    0  501  502 -0.00000000000E+00 -0.00000000000E+00 -0.94466638260E+03  0.94466638260E+03  0.00000000000E+00 0.  1.
      99926    2    1    2    0    0  0.00000000000E+00  0.00000000000E+00 -0.88990704428E+03  0.99942572092E+03  0.45488154961E+03 0.  0.
      99925    2    3    3    0    0 -0.94617548540E+02 -0.32411899944E+02 -0.67580023958E+03  0.73204538569E+03  0.26302370833E+03 0.  0.
         25    1    3    3    0    0  0.94617548540E+02  0.32411899944E+02 -0.21410680470E+03  0.26738033523E+03  0.12509000000E+03 0.  0.
         25    1    4    4    0    0 -0.60519393496E+02 -0.28842155544E+02 -0.25653443462E+03  0.29317552963E+03  0.12509000000E+03 0.  0.
         25    1    4    4    0    0 -0.34098155044E+02 -0.35697444004E+01 -0.41926580496E+03  0.43886985606E+03  0.12509000000E+03 0.  0.
<mgrwt>
<rscale>  2 0.45488155E+03</rscale>
<asrwt>0</asrwt>
<pdfrwt beam="1">  1       21 0.80528445E-02 0.45488155E+03</pdfrwt>
<pdfrwt beam="2">  1       21 0.13892152E+00 0.45488155E+03</pdfrwt>
<totfact> 0.39225418E+04</totfact>
</mgrwt>
</event>
<event>
 7    0  0.4748297E-002  0.4550641E+03  0.7546771E-02  0.1026223E+00
         21   -1    0    0  502  501  0.00000000000E+00  0.00000000000E+00  0.48526522886E+02  0.48526522886E+02  0.00000000000E+00 0. -1.
         21   -1    0    0  501  502 -0.00000000000E+00 -0.00000000000E+00 -0.10668562836E+04  0.10668562836E+04  0.00000000000E+00 0. -1.
      99926    2    1    2    0    0  0.00000000000E+00 -0.17763568394E-14 -0.10183297607E+04  0.11153828065E+04  0.45506406522E+03 0.  0.
      99925    2    3    3    0    0 -0.96098601905E+02  0.12688260168E+02 -0.78415699698E+03  0.83275173140E+03  0.26301581131E+03 0.  0.
         25    1    4    4    0    0 -0.77730669960E+02 -0.13923100008E+02 -0.48035110253E+03  0.50261376779E+03  0.12509000000E+03 0.  0.
         25    1    4    4    0    0 -0.18367931945E+02  0.26611360176E+02 -0.30380589445E+03  0.33013796361E+03  0.12509000000E+03 0.  0.
         25    1    3    3    0    0  0.96098601905E+02 -0.12688260168E+02 -0.23417276377E+03  0.28263107512E+03  0.12509000000E+03 0.  0.
<mgrwt>
<rscale>  2 0.45506407E+03</rscale>
<asrwt>0</asrwt>
<pdfrwt beam="1">  1       21 0.71362538E-02 0.45506407E+03</pdfrwt>
<pdfrwt beam="2">  1       21 0.15689062E+00 0.45506407E+03</pdfrwt>
<totfact> 0.34941907E+04</totfact>
</mgrwt>
</event>
<event>
 7    0  0.4748297E-002  0.4461326E+03  0.7546771E-02  0.1028882E+00
         21   -1    0    0  502  501  0.00000000000E+00  0.00000000000E+00  0.46253329755E+03  0.46253329755E+03  0.00000000000E+00 0.  1.
         21   -1    0    0  501  502 -0.00000000000E+00 -0.00000000000E+00 -0.10757834513E+03  0.10757834513E+03  0.00000000000E+00 0.  1.
      99926    2    1    2    0    0  0.00000000000E+00  0.00000000000E+00  0.35495495242E+03  0.57011164269E+03  0.44613256648E+03 0.  0.
      99925    2    3    3    0    0  0.93945109403E+02  0.32061423541E+02  0.26750225369E+03  0.38804269675E+03  0.26299441117E+03 0.  0.
         25    1    4    4    0    0  0.39257812470E+02 -0.48889059949E+01  0.81779058425E+02  0.15459754118E+03  0.12509000000E+03 0.  0.
         25    1    4    4    0    0  0.54687296934E+02  0.36950329536E+02  0.18572319526E+03  0.23344515557E+03  0.12509000000E+03 0.  0.
         25    1    3    3    0    0 -0.93945109403E+02 -0.32061423541E+02  0.87452698733E+02  0.18206894594E+03  0.12509000000E+03 0.  0.
<mgrwt>
<rscale>  2 0.44613257E+03</rscale>
<asrwt>0</asrwt>
<pdfrwt beam="1">  1       21 0.68019602E-01 0.44613257E+03</pdfrwt>
<pdfrwt beam="2">  1       21 0.15820345E-01 0.44613257E+03</pdfrwt>
<totfact> 0.64995789E+04</totfact>
</mgrwt>
</event>
<event>
 7    0  0.4748297E-002  0.4523866E+03  0.7546771E-02  0.1027013E+00
         21   -1    0    0  502  501  0.00000000000E+00  0.00000000000E+00  0.67139636713E+03  0.67139636713E+03  0.00000000000E+00 0.  1.
         21   -1    0    0  501  502 -0.00000000000E+00 -0.00000000000E+00 -0.76204477766E+02  0.76204477766E+02  0.00000000000E+00 0.  1.
      99926    2    1    2    0    0  0.71054273576E-14  0.14210854715E-13  0.59519188936E+03  0.74760084489E+03  0.45238660250E+03 0.  0.
      99925    2    3    3    0    0  0.47024533496E+02 -0.88727460909E+02  0.45230959212E+03  0.53278294984E+03  0.26303960813E+03 0.  0.
         25    1    3    3    0    0 -0.47024533496E+02  0.88727460909E+02  0.14288229724E+03  0.21481789505E+03  0.12509000000E+03 0.  0.
         25    1    4    4    0    0 -0.69178340115E+01 -0.19451136977E+02  0.23650539209E+03  0.26834401753E+03  0.12509000000E+03 0.  0.
         25    1    4    4    0    0  0.53942367508E+02 -0.69276323933E+02  0.21580420003E+03  0.26443893231E+03  0.12509000000E+03 0.  0.
<mgrwt>
<rscale>  2 0.45238660E+03</rscale>
<asrwt>0</asrwt>
<pdfrwt beam="1">  1       21 0.98734757E-01 0.45238660E+03</pdfrwt>
<pdfrwt beam="2">  1       21 0.11206541E-01 0.45238660E+03</pdfrwt>
<totfact> 0.51442123E+04</totfact>
</mgrwt>
</event>
<event>
 7    0  0.4748297E-002  0.4501676E+03  0.7546771E-02  0.1027672E+00
         21   -1    0    0  502  501  0.00000000000E+00  0.00000000000E+00  0.10174614445E+03  0.10174614445E+03  0.00000000000E+00 0. -1.
         21   -1    0    0  501  502 -0.00000000000E+00 -0.00000000000E+00 -0.49793246438E+03  0.49793246438E+03  0.00000000000E+00 0. -1.
      99926    2    1    2    0    0  0.00000000000E+00 -0.35527136788E-14 -0.39618631993E+03  0.59967860883E+03  0.45016756191E+03 0.  0.
      99925    2    3    3    0    0 -0.10275395002E+03 -0.25252936131E+02 -0.21671357544E+03  0.35666819930E+03  0.26277622720E+03 0.  0.
         25    1    3    3    0    0  0.10275395002E+03  0.25252936131E+02 -0.17947274448E+03  0.24301040953E+03  0.12509000000E+03 0.  0.
         25    1    4    4    0    0 -0.25269112761E+02 -0.43744210989E+02 -0.99206768859E+02  0.16745618872E+03  0.12509000000E+03 0.  0.
         25    1    4    4    0    0 -0.77484837264E+02  0.18491274858E+02 -0.11750680658E+03  0.18921201057E+03  0.12509000000E+03 0.  0.
<mgrwt>
<rscale>  2 0.45016756E+03</rscale>
<asrwt>0</asrwt>
<pdfrwt beam="1">  1       21 0.14962668E-01 0.45016756E+03</pdfrwt>
<pdfrwt beam="2">  1       21 0.73225362E-01 0.45016756E+03</pdfrwt>
<totfact> 0.60993758E+04</totfact>
</mgrwt>
</event>
<event>
 7    0  0.4748297E-002  0.4454445E+03  0.7546771E-02  0.1029089E+00
         21   -1    0    0  502  501  0.00000000000E+00  0.00000000000E+00  0.10499211498E+03  0.10499211498E+03  0.00000000000E+00 0. -1.
         21   -1    0    0  501  502 -0.00000000000E+00 -0.00000000000E+00 -0.47246587722E+03  0.47246587722E+03  0.00000000000E+00 0. -1.
      99926    2    1    2    0    0  0.00000000000E+00  0.00000000000E+00 -0.36747376224E+03  0.57745799220E+03  0.44544445985E+03 0.  0.
      99925    2    3    3    0    0 -0.26321269124E+01  0.85247478564E+02 -0.31016334025E+03  0.41557515412E+03  0.26311090893E+03 0.  0.
         25    1    3    3    0    0  0.26321269124E+01 -0.85247478564E+02 -0.57310421994E+02  0.16188283807E+03  0.12509000000E+03 0.  0.
         25    1    4    4    0    0 -0.54742749840E+00  0.82780984851E+02 -0.19015558469E+03  0.24219753430E+03  0.12509000000E+03 0.  0.
         25    1    4    4    0    0 -0.20846994140E+01  0.24664937131E+01 -0.12000775556E+03  0.17337761983E+03  0.12509000000E+03 0.  0.
<mgrwt>
<rscale>  2 0.44544446E+03</rscale>
<asrwt>0</asrwt>
<pdfrwt beam="1">  1       21 0.15440017E-01 0.44544446E+03</pdfrwt>
<pdfrwt beam="2">  1       21 0.69480277E-01 0.44544446E+03</pdfrwt>
<totfact> 0.64849745E+04</totfact>
</mgrwt>
</event>
<event>
 7    0  0.4748297E-002  0.4541262E+03  0.7546771E-02  0.1026499E+00
         21   -1    0    0  502  501  0.00000000000E+00  0.00000000000E+00  0.84008277761E+02  0.84008277761E+02  0.00000000000E+00 0.  1.
         21   -1    0    0  501  502 -0.00000000000E+00 -0.00000000000E+00 -0.61372102532E+03  0.61372102532E+03  0.00000000000E+00 0.  1.
      99926    2    1    2    0    0 -0.14210854715E-13  0.00000000000E+00 -0.52971274755E+03  0.69772930308E+03  0.45412617790E+03 0.  0.
      99925    2    3    3    0    0  0.72161425382E+02  0.17448294954E+02 -0.46320630165E+03  0.53778453212E+03  0.26294564227E+03 0.  0.
         25    1    4    4    0    0  0.17143585135E+01  0.73574936450E+00 -0.25868137979E+03  0.28734481847E+03  0.12509000000E+03 0.  0.
         25    1    3    3    0    0 -0.72161425382E+02 -0.17448294954E+02 -0.66506445906E+02  0.15994477096E+03  0.12509000000E+03 0.  0.
         25    1    4    4    0    0  0.70447066868E+02  0.16712545589E+02 -0.20452492186E+03  0.25043971365E+03  0.12509000000E+03 0.  0.
<mgrwt>
<rscale>  2 0.45412618E+03</rscale>
<asrwt>0</asrwt>
<pdfrwt beam="1">  1       21 0.12354159E-01 0.45412618E+03</pdfrwt>
<pdfrwt beam="2">  1       21 0.90253089E-01 0.45412618E+03</pdfrwt>
<totfact> 0.53392671E+04</totfact>
</mgrwt>
</event>
<event>
 7    0  0.4748297E-002  0.4552479E+03  0.7546771E-02  0.1026169E+00
         21   -1    0    0  502  501  0.00000000000E+00  0.00000000000E+00  0.40695037519E+03  0.40695037519E+03  0.00000000000E+00 0.  1.
         21   -1    0    0  501  502 -0.00000000000E+00 -0.00000000000E+00 -0.12731937704E+03  0.12731937704E+03  0.00000000000E+00 0.  1.
      99926    2    1    2    0    0 -0.71054273576E-14 -0.14210854715E-13  0.27963099815E+03  0.53426975223E+03  0.45524792479E+03 0.  0.
      99925    2    3    3    0    0  0.33521782768E+02  0.10825980541E+03  0.16729100106E+03  0.33150960222E+03  0.26280875545E+03 0.  0.
         25    1    4    4    0    0  0.36204200838E+02  0.20944549036E+02  0.59476615389E+02  0.14468722878E+03  0.12509000000E+03 0.  0.
         25    1    3    3    0    0 -0.33521782768E+02 -0.10825980541E+03  0.11233999709E+03  0.20276015001E+03  0.12509000000E+03 0.  0.
         25    1    4    4    0    0 -0.26824180705E+01  0.87315256373E+02  0.10781438567E+03  0.18682237345E+03  0.12509000000E+03 0.  0.
<mgrwt>
<rscale>  2 0.45524792E+03</rscale>
<asrwt>0</asrwt>
<pdfrwt beam="1">  1       21 0.59845643E-01 0.45524792E+03</pdfrwt>
<pdfrwt beam="2">  1       21 0.18723438E-01 0.45524792E+03</pdfrwt>
<totfact> 0.62794782E+04</totfact>
</mgrwt>
</event>
<event>
 7    0  0.4748297E-002  0.4601277E+03  0.7546771E-02  0.1024744E+00
         21   -1    0    0  502  501  0.00000000000E+00  0.00000000000E+00  0.52973915846E+03  0.52973915846E+03  0.00000000000E+00 0.  1.
         21   -1    0    0  501  502 -0.00000000000E+00 -0.00000000000E+00 -0.99915907043E+02  0.99915907043E+02  0.00000000000E+00 0.  1.
      99926    2    1    2    0    0  0.00000000000E+00  0.00000000000E+00  0.42982325142E+03  0.62965506550E+03  0.46012767147E+03 0.  0.
      99925    2    3    3    0    0 -0.10743040572E+03  0.39046243051E+02  0.22905066614E+03  0.36693270203E+03  0.26288685587E+03 0.  0.
         25    1    3    3    0    0  0.10743040572E+03 -0.39046243051E+02  0.20077258528E+03  0.26272236347E+03  0.12509000000E+03 0.  0.
         25    1    4    4    0    0 -0.35514009425E+02  0.55021653369E+02  0.12127157492E+03  0.18612611366E+03  0.12509000000E+03 0.  0.
         25    1    4    4    0    0 -0.71916396297E+02 -0.15975410317E+02  0.10777909122E+03  0.18080658836E+03  0.12509000000E+03 0.  0.
<mgrwt>
<rscale>  2 0.46012767E+03</rscale>
<asrwt>0</asrwt>
<pdfrwt beam="1">  1       21 0.77902816E-01 0.46012767E+03</pdfrwt>
<pdfrwt beam="2">  1       21 0.14693516E-01 0.46012767E+03</pdfrwt>
<totfact> 0.54643273E+04</totfact>
</mgrwt>
</event>
<event>
 7    0  0.4748297E-002  0.4569685E+03  0.7546771E-02  0.1025664E+00
         21   -1    0    0  502  501  0.00000000000E+00  0.00000000000E+00  0.17584828804E+03  0.17584828804E+03  0.00000000000E+00 0. -1.
         21   -1    0    0  501  502 -0.00000000000E+00 -0.00000000000E+00 -0.29687558726E+03  0.29687558726E+03  0.00000000000E+00 0. -1.
      99926    2    1    2    0    0  0.00000000000E+00  0.00000000000E+00 -0.12102729922E+03  0.47272387530E+03  0.45696854938E+03 0.  0.
      99925    2    3    3    0    0  0.22524460591E+02 -0.74291476302E+02 -0.16383308684E+03  0.31940584528E+03  0.26296813282E+03 0.  0.
         25    1    4    4    0    0  0.34648249854E+02 -0.39080988553E+02 -0.12194132800E+03  0.18233217066E+03  0.12509000000E+03 0.  0.
         25    1    4    4    0    0 -0.12123789263E+02 -0.35210487749E+02 -0.41891758838E+02  0.13707367461E+03  0.12509000000E+03 0.  0.
         25    1    3    3    0    0 -0.22524460591E+02  0.74291476302E+02  0.42805787621E+02  0.15331803002E+03  0.12509000000E+03 0.  0.
<mgrwt>
<rscale>  2 0.45696855E+03</rscale>
<asrwt>0</asrwt>
<pdfrwt beam="1">  1       21 0.25860042E-01 0.45696855E+03</pdfrwt>
<pdfrwt beam="2">  1       21 0.43658174E-01 0.45696855E+03</pdfrwt>
<totfact> 0.66193838E+04</totfact>
</mgrwt>
</event>
<event>
 7    0  0.4748297E-002  0.4529997E+03  0.7546771E-02  0.1026831E+00
         21   -1    0    0  502  501  0.00000000000E+00  0.00000000000E+00  0.54829282434E+03  0.54829282434E+03  0.00000000000E+00 0.  1.
         21   -1    0    0  501  502 -0.00000000000E+00 -0.00000000000E+00 -0.93567140800E+02  0.93567140800E+02  0.00000000000E+00 0.  1.
      99926    2    1    2    0    0  0.00000000000E+00  0.00000000000E+00  0.45472568354E+03  0.64185996514E+03  0.45299974347E+03 0.  0.
      99925    2    3    3    0    0 -0.78537601501E+02 -0.78717146141E+02  0.29263069843E+03  0.40886460844E+03  0.26300760146E+03 0.  0.
         25    1    4    4    0    0 -0.62389270448E+02 -0.14587320919E+02  0.17778066014E+03  0.22662454020E+03  0.12509000000E+03 0.  0.
         25    1    3    3    0    0  0.78537601501E+02  0.78717146141E+02  0.16209498511E+03  0.23299535670E+03  0.12509000000E+03 0.  0.
         25    1    4    4    0    0 -0.16148331053E+02 -0.64129825222E+02  0.11485003829E+03  0.18224006824E+03  0.12509000000E+03 0.  0.
<mgrwt>
<rscale>  2 0.45299974E+03</rscale>
<asrwt>0</asrwt>
<pdfrwt beam="1">  1       21 0.80631296E-01 0.45299974E+03</pdfrwt>
<pdfrwt beam="2">  1       21 0.13759874E-01 0.45299974E+03</pdfrwt>
<totfact> 0.57068328E+04</totfact>
</mgrwt>
</event>
<event>
 7    0  0.4748297E-002  0.4474690E+03  0.7546771E-02  0.1028480E+00
         21   -1    0    0  502  501  0.00000000000E+00  0.00000000000E+00  0.48835044712E+03  0.48835044712E+03  0.00000000000E+00 0. -1.
         21   -1    0    0  501  502 -0.00000000000E+00 -0.00000000000E+00 -0.10250245589E+03  0.10250245589E+03  0.00000000000E+00 0. -1.
      99926    2    1    2    0    0  0.00000000000E+00  0.35527136788E-14  0.38584799122E+03  0.59085290301E+03  0.44746897173E+03 0.  0.
      99925    2    3    3    0    0 -0.98956836047E+02 -0.31853600666E+02  0.27252267622E+03  0.39261758225E+03  0.26281714092E+03 0.  0.
         25    1    3    3    0    0  0.98956836047E+02  0.31853600666E+02  0.11332531500E+03  0.19823532076E+03  0.12509000000E+03 0.  0.
         25    1    4    4    0    0 -0.52035844021E+02 -0.23149245917E+02  0.82955893658E+02  0.16053910752E+03  0.12509000000E+03 0.  0.
         25    1    4    4    0    0 -0.46920992026E+02 -0.87043547494E+01  0.18956678256E+03  0.23207847474E+03  0.12509000000E+03 0.  0.
<mgrwt>
<rscale>  2 0.44746897E+03</rscale>
<asrwt>0</asrwt>
<pdfrwt beam="1">  1       21 0.71816241E-01 0.44746897E+03</pdfrwt>
<pdfrwt beam="2">  1       21 0.15073891E-01 0.44746897E+03</pdfrwt>
<totfact> 0.62906153E+04</totfact>
</mgrwt>
</event>
<event>
 7    0  0.4748297E-002  0.4436087E+03  0.7546771E-02  0.1029645E+00
         21   -1    0    0  502  501  0.00000000000E+00  0.00000000000E+00  0.89193209013E+03  0.89193209013E+03  0.00000000000E+00 0. -1.
         21   -1    0    0  501  502 -0.00000000000E+00 -0.00000000000E+00 -0.55157987008E+02  0.55157987008E+02  0.00000000000E+00 0. -1.
      99926    2    1    2    0    0 -0.44408920985E-15 -0.14210854715E-13  0.83677410312E+03  0.94709007714E+03  0.44360874040E+03 0.  0.
      99925    2    3    3    0    0 -0.34544662823E+01  0.73588968876E+02  0.68345421450E+03  0.73594613092E+03  0.26283031526E+03 0.  0.
         25    1    4    4    0    0 -0.22477432592E+02  0.70383866456E+02  0.39812891060E+03  0.42380804758E+03  0.12509000000E+03 0.  0.
         25    1    3    3    0    0  0.34544662823E+01 -0.73588968876E+02  0.15331988862E+03  0.21114394621E+03  0.12509000000E+03 0.  0.
         25    1    4    4    0    0  0.19022966309E+02  0.32051024202E+01  0.28532530390E+03  0.31213808335E+03  0.12509000000E+03 0.  0.
<mgrwt>
<rscale>  2 0.44360874E+03</rscale>
<asrwt>0</asrwt>
<pdfrwt beam="1">  1       21 0.13116648E+00 0.44360874E+03</pdfrwt>
<pdfrwt beam="2">  1       21 0.81114692E-02 0.44360874E+03</pdfrwt>
<totfact> 0.45148443E+04</totfact>
</mgrwt>
</event>
<event>
 7    0  0.4748297E-002  0.4525801E+03  0.7546771E-02  0.1026955E+00
         21   -1    0    0  502  501  0.00000000000E+00  0.00000000000E+00  0.25435543393E+03  0.25435543393E+03  0.00000000000E+00 0.  1.
         21   -1    0    0  501  502 -0.00000000000E+00 -0.00000000000E+00 -0.20132136719E+03  0.20132136719E+03  0.00000000000E+00 0.  1.
      99926    2    1    2    0    0  0.00000000000E+00  0.00000000000E+00  0.53034066737E+02  0.45567680112E+03  0.45258008666E+03 0.  0.
      99925    2    3    3    0    0  0.87460500215E+02  0.58984471566E+02 -0.78703702913E+00  0.28341906894E+03  0.26305368697E+03 0.  0.
         25    1    4    4    0    0  0.78397040961E+02  0.16761745228E+02  0.18365261395E+02  0.14970585513E+03  0.12509000000E+03 0.  0.
         25    1    3    3    0    0 -0.87460500215E+02 -0.58984471566E+02  0.53821103766E+02  0.17225773218E+03  0.12509000000E+03 0.  0.
         25    1    4    4    0    0  0.90634592541E+01  0.42222726338E+02 -0.19152298424E+02  0.13371321381E+03  0.12509000000E+03 0.  0.
<mgrwt>
<rscale>  2 0.45258009E+03</rscale>
<asrwt>0</asrwt>
<pdfrwt beam="1">  1       21 0.37405211E-01 0.45258009E+03</pdfrwt>
<pdfrwt beam="2">  1       21 0.29606083E-01 0.45258009E+03</pdfrwt>
<totfact> 0.69834737E+04</totfact>
</mgrwt>
</event>
<event>
 7    0  0.4748297E-002  0.4523461E+03  0.7546771E-02  0.1027025E+00
         21   -1    0    0  502  501  0.00000000000E+00  0.00000000000E+00  0.12291606374E+03  0.12291606374E+03  0.00000000000E+00 0. -1.
         21   -1    0    0  501  502 -0.00000000000E+00 -0.00000000000E+00 -0.41617227143E+03  0.41617227143E+03  0.00000000000E+00 0. -1.
      99926    2    1    2    0    0  0.00000000000E+00  0.00000000000E+00 -0.29325620769E+03  0.53908833516E+03  0.45234613932E+03 0.  0.
      99925    2    3    3    0    0  0.10830859635E+03 -0.43379585763E+01 -0.15809330483E+03  0.32539208265E+03  0.26293905090E+03 0.  0.
         25    1    3    3    0    0 -0.10830859635E+03  0.43379585763E+01 -0.13516290286E+03  0.21369625251E+03  0.12509000000E+03 0.  0.
         25    1    4    4    0    0  0.45125306580E+02 -0.41544348377E+02 -0.73369585738E+02  0.15745739229E+03  0.12509000000E+03 0.  0.
         25    1    4    4    0    0  0.63183289774E+02  0.37206389800E+02 -0.84723719090E+02  0.16793469036E+03  0.12509000000E+03 0.  0.
<mgrwt>
<rscale>  2 0.45234614E+03</rscale>
<asrwt>0</asrwt>
<pdfrwt beam="1">  1       21 0.18075892E-01 0.45234614E+03</pdfrwt>
<pdfrwt beam="2">  1       21 0.61201804E-01 0.45234614E+03</pdfrwt>
<totfact> 0.63925446E+04</totfact>
</mgrwt>
</event>
<event>
 7    0  0.4748297E-002  0.4653074E+03  0.7546771E-02  0.1023253E+00
         21   -1    0    0  502  501  0.00000000000E+00  0.00000000000E+00  0.34819627531E+03  0.34819627531E+03  0.00000000000E+00 0.  1.
         21   -1    0    0  501  502 -0.00000000000E+00 -0.00000000000E+00 -0.15545180793E+03  0.15545180793E+03  0.00000000000E+00 0.  1.
      99926    2    1    2    0    0  0.00000000000E+00 -0.14210854715E-13  0.19274446738E+03  0.50364808325E+03  0.46530738448E+03 0.  0.
      99925    2    3    3    0    0  0.73764616214E+02  0.84941576499E+02  0.17119420927E+03  0.33403613866E+03  0.26384918916E+03 0.  0.
         25    1    3    3    0    0 -0.73764616214E+02 -0.84941576499E+02  0.21550258108E+02  0.16961194459E+03  0.12509000000E+03 0.  0.
         25    1    4    4    0    0  0.63854574989E+02  0.25789805799E+02  0.54793412052E+02  0.15294556853E+03  0.12509000000E+03 0.  0.
         25    1    4    4    0    0  0.99100412252E+01  0.59151770700E+02  0.11640079722E+03  0.18109057012E+03  0.12509000000E+03 0.  0.
<mgrwt>
<rscale>  2 0.46530738E+03</rscale>
<asrwt>0</asrwt>
<pdfrwt beam="1">  1       21 0.51205335E-01 0.46530738E+03</pdfrwt>
<pdfrwt beam="2">  1       21 0.22860560E-01 0.46530738E+03</pdfrwt>
<totfact> 0.59957045E+04</totfact>
</mgrwt>
</event>
<event>
 7    0  0.4748297E-002  0.4550683E+03  0.7546771E-02  0.1026221E+00
         21   -1    0    0  502  501  0.00000000000E+00  0.00000000000E+00  0.27023139787E+03  0.27023139787E+03  0.00000000000E+00 0.  1.
         21   -1    0    0  501  502 -0.00000000000E+00 -0.00000000000E+00 -0.19158318052E+03  0.19158318052E+03  0.00000000000E+00 0.  1.
      99926    2    1    2    0    0  0.00000000000E+00  0.71054273576E-14  0.78648217347E+02  0.46181457840E+03  0.45506830556E+03 0.  0.
      99925    2    3    3    0    0  0.81310009380E+02  0.45382769763E+02 -0.15798789383E+02  0.27949985437E+03  0.26305827003E+03 0.  0.
         25    1    4    4    0    0  0.53758348046E+02 -0.15836218303E+02 -0.92873928193E+01  0.13738453174E+03  0.12509000000E+03 0.  0.
         25    1    3    3    0    0 -0.81310009380E+02 -0.45382769763E+02  0.94447006730E+02  0.18231472403E+03  0.12509000000E+03 0.  0.
         25    1    4    4    0    0  0.27551661334E+02  0.61218988066E+02 -0.65113965636E+01  0.14211532263E+03  0.12509000000E+03 0.  0.
<mgrwt>
<rscale>  2 0.45506831E+03</rscale>
<asrwt>0</asrwt>
<pdfrwt beam="1">  1       21 0.39739912E-01 0.45506831E+03</pdfrwt>
<pdfrwt beam="2">  1       21 0.28173997E-01 0.45506831E+03</pdfrwt>
<totfact> 0.68010272E+04</totfact>
</mgrwt>
</event>
<event>
 7    0  0.4748297E-002  0.4630572E+03  0.7546771E-02  0.1023898E+00
         21   -1    0    0  502  501  0.00000000000E+00  0.00000000000E+00  0.82741390341E+03  0.82741390341E+03  0.00000000000E+00 0. -1.
         21   -1    0    0  501  502 -0.00000000000E+00 -0.00000000000E+00 -0.64786783860E+02  0.64786783860E+02  0.00000000000E+00 0. -1.
      99926    2    1    2    0    0  0.00000000000E+00  0.00000000000E+00  0.76262711955E+03  0.89220068728E+03  0.46305717022E+03 0.  0.
      99925    2    3    3    0    0 -0.76170662943E+02  0.70283815733E+02  0.35987943433E+03  0.45792543965E+03  0.26351606474E+03 0.  0.
         25    1    3    3    0    0  0.76170662943E+02 -0.70283815733E+02  0.40274768523E+03  0.43427524763E+03  0.12509000000E+03 0.  0.
         25    1    4    4    0    0 -0.43140906600E+01  0.62714337785E+01  0.16196421920E+03  0.20478734986E+03  0.12509000000E+03 0.  0.
         25    1    4    4    0    0 -0.71856572283E+02  0.64012381955E+02  0.19791521512E+03  0.25313808979E+03  0.12509000000E+03 0.  0.
<mgrwt>
<rscale>  2 0.46305717E+03</rscale>
<asrwt>0</asrwt>
<pdfrwt beam="1">  1       21 0.12167851E+00 0.46305717E+03</pdfrwt>
<pdfrwt beam="2">  1       21 0.95274687E-02 0.46305717E+03</pdfrwt>
<totfact> 0.40928630E+04</totfact>
</mgrwt>
</event>
<event>
 7    0  0.4748297E-002  0.4532129E+03  0.7546771E-02  0.1026768E+00
         21   -1    0    0  502  501  0.00000000000E+00  0.00000000000E+00  0.27995923874E+03  0.27995923874E+03  0.00000000000E+00 0.  1.
         21   -1    0    0  501  502 -0.00000000000E+00 -0.00000000000E+00 -0.18342131175E+03  0.18342131175E+03  0.00000000000E+00 0.  1.
      99926    2    1    2    0    0  0.00000000000E+00  0.00000000000E+00  0.96537926990E+02  0.46338055049E+03  0.45321293365E+03 0.  0.
      99925    2    3    3    0    0  0.22243878467E+02  0.46706563113E+01 -0.50961087836E+02  0.26864978088E+03  0.26279091904E+03 0.  0.
         25    1    4    4    0    0  0.37734909958E+02  0.49548926499E+01  0.47569162859E+01  0.13083810891E+03  0.12509000000E+03 0.  0.
         25    1    3    3    0    0 -0.22243878467E+02 -0.46706563113E+01  0.14749901483E+03  0.19473076961E+03  0.12509000000E+03 0.  0.
         25    1    4    4    0    0 -0.15491031491E+02 -0.28423633861E+00 -0.55718004121E+02  0.13781167197E+03  0.12509000000E+03 0.  0.
<mgrwt>
<rscale>  2 0.45321293E+03</rscale>
<asrwt>0</asrwt>
<pdfrwt beam="1">  1       21 0.41170476E-01 0.45321293E+03</pdfrwt>
<pdfrwt beam="2">  1       21 0.26973722E-01 0.45321293E+03</pdfrwt>
<totfact> 0.68903404E+04</totfact>
</mgrwt>
</event>
<event>
 7    0  0.4748297E-002  0.4337418E+03  0.7546771E-02  0.1032684E+00
         21   -1    0    0  502  501  0.00000000000E+00  0.00000000000E+00  0.44535590979E+03  0.44535590979E+03  0.00000000000E+00 0. -1.
         21   -1    0    0  501  502 -0.00000000000E+00 -0.00000000000E+00 -0.10560766472E+03  0.10560766472E+03  0.00000000000E+00 0. -1.
      99926    2    1    2    0    0  0.00000000000E+00  0.88817841970E-15  0.33974824507E+03  0.55096357451E+03  0.43374184766E+03 0.  0.
      99925    2    3    3    0    0 -0.72289310274E+02  0.63121235332E+01  0.28920092418E+03  0.39777047077E+03  0.26328422966E+03 0.  0.
         25    1    4    4    0    0 -0.76685339437E+00  0.91252361770E+01  0.10291831487E+03  0.16224532546E+03  0.12509000000E+03 0.  0.
         25    1    3    3    0    0  0.72289310274E+02 -0.63121235332E+01  0.50547320887E+02  0.15319310374E+03  0.12509000000E+03 0.  0.
         25    1    4    4    0    0 -0.71522456880E+02 -0.28131126438E+01  0.18628260931E+03  0.23552514531E+03  0.12509000000E+03 0.  0.
<mgrwt>
<rscale>  2 0.43374185E+03</rscale>
<asrwt>0</asrwt>
<pdfrwt beam="1">  1       21 0.65493515E-01 0.43374185E+03</pdfrwt>
<pdfrwt beam="2">  1       21 0.15530539E-01 0.43374185E+03</pdfrwt>
<totfact> 0.73388623E+04</totfact>
</mgrwt>
</event>
<event>
 7    0  0.4748297E-002  0.4781732E+03  0.7546771E-02  0.1019638E+00
         21   -1    0    0  502  501  0.00000000000E+00  0.00000000000E+00  0.10876244811E+03  0.10876244811E+03  0.00000000000E+00 0.  1.
         21   -1    0    0  501  502 -0.00000000000E+00 -0.00000000000E+00 -0.52557102286E+03  0.52557102286E+03  0.00000000000E+00 0.  1.
      99926    2    1    2    0    0  0.00000000000E+00  0.22204460493E-15 -0.41680857475E+03  0.63433347098E+03  0.47817315317E+03 0.  0.
      99925    2    3    3    0    0 -0.12484205665E+03 -0.12703627739E+01 -0.19357869599E+03  0.34961213386E+03  0.26299958113E+03 0.  0.
         25    1    4    4    0    0 -0.10256855716E+03 -0.69895463205E+01 -0.12869968447E+03  0.20683394199E+03  0.12509000000E+03 0.  0.
         25    1    3    3    0    0  0.12484205665E+03  0.12703627739E+01 -0.22322987877E+03  0.28472133711E+03  0.12509000000E+03 0.  0.
         25    1    4    4    0    0 -0.22273499491E+02  0.57191835466E+01 -0.64879011518E+02  0.14277819188E+03  0.12509000000E+03 0.  0.
<mgrwt>
<rscale>  2 0.47817315E+03</rscale>
<asrwt>0</asrwt>
<pdfrwt beam="1">  1       21 0.15994478E-01 0.47817315E+03</pdfrwt>
<pdfrwt beam="2">  1       21 0.77289854E-01 0.47817315E+03</pdfrwt>
<totfact> 0.47340101E+04</totfact>
</mgrwt>
</event>
<event>
 7    0  0.4748297E-002  0.4560794E+03  0.7546771E-02  0.1025924E+00
         21   -1    0    0  502  501  0.00000000000E+00  0.00000000000E+00  0.47545787556E+03  0.47545787556E+03  0.00000000000E+00 0.  1.
         21   -1    0    0  501  502 -0.00000000000E+00 -0.00000000000E+00 -0.10937267411E+03  0.10937267411E+03  0.00000000000E+00 0.  1.
      99926    2    1    2    0    0  0.14210854715E-13  0.00000000000E+00  0.36608520144E+03  0.58483054967E+03  0.45607937588E+03 0.  0.
      99925    2    3    3    0    0  0.67141490760E+02 -0.87065550511E+02  0.26924390016E+03  0.39218025613E+03  0.26310584496E+03 0.  0.
         25    1    4    4    0    0  0.32473997766E+02 -0.58415209842E+01  0.96869102786E+02  0.16161625869E+03  0.12509000000E+03 0.  0.
         25    1    4    4    0    0  0.34667492994E+02 -0.81224029527E+02  0.17237479738E+03  0.23056399744E+03  0.12509000000E+03 0.  0.
         25    1    3    3    0    0 -0.67141490760E+02  0.87065550511E+02  0.96841301283E+02  0.19265029354E+03  0.12509000000E+03 0.  0.
<mgrwt>
<rscale>  2 0.45607938E+03</rscale>
<asrwt>0</asrwt>
<pdfrwt beam="1">  1       21 0.69920275E-01 0.45607938E+03</pdfrwt>
<pdfrwt beam="2">  1       21 0.16084217E-01 0.45607938E+03</pdfrwt>
<totfact> 0.59115836E+04</totfact>
</mgrwt>
</event>
<event>
 7    0  0.4748297E-002  0.4505964E+03  0.7546771E-02  0.1027544E+00
         21   -1    0    0  502  501  0.00000000000E+00  0.00000000000E+00  0.38499063991E+04  0.38499063991E+04  0.00000000000E+00 0.  1.
         21   -1    0    0  501  502 -0.00000000000E+00 -0.00000000000E+00 -0.13184550242E+02  0.13184550242E+02  0.00000000000E+00 0.  1.
      99926    2    1    2    0    0  0.00000000000E+00  0.00000000000E+00  0.38367218489E+04  0.38630909494E+04  0.45059642407E+03 0.  0.
      99925    2    3    3    0    0 -0.61330981195E+02  0.76593226412E+02  0.28327073562E+04  0.28465671566E+04  0.26284139654E+03 0.  0.
         25    1    4    4    0    0 -0.12133113736E+02  0.64441192900E+02  0.16973689767E+04  0.17032348138E+04  0.12509000000E+03 0.  0.
         25    1    4    4    0    0 -0.49197867459E+02  0.12152033512E+02  0.11353383795E+04  0.11433323428E+04  0.12509000000E+03 0.  0.
         25    1    3    3    0    0  0.61330981195E+02 -0.76593226412E+02  0.10040144927E+04  0.10165237928E+04  0.12509000000E+03 0.  0.
<mgrwt>
<rscale>  2 0.45059642E+03</rscale>
<asrwt>0</asrwt>
<pdfrwt beam="1">  1       21 0.56616192E+00 0.45059642E+03</pdfrwt>
<pdfrwt beam="2">  1       21 0.19389071E-02 0.45059642E+03</pdfrwt>
<totfact> 0.62935385E+02</totfact>
</mgrwt>
</event>
<event>
 7    0  0.4748297E-002  0.4622030E+03  0.7546771E-02  0.1024144E+00
         21   -1    0    0  502  501  0.00000000000E+00  0.00000000000E+00  0.20284870370E+02  0.20284870370E+02  0.00000000000E+00 0.  1.
         21   -1    0    0  501  502 -0.00000000000E+00 -0.00000000000E+00 -0.26328936113E+04  0.26328936113E+04  0.00000000000E+00 0.  1.
      99926    2    1    2    0    0  0.00000000000E+00 -0.35527136788E-14 -0.26126087409E+04  0.26531784817E+04  0.46220300996E+03 0.  0.
      99925    2    3    3    0    0 -0.77317020790E+02  0.16252215492E+02 -0.11167718225E+04  0.11500425428E+04  0.26301423995E+03 0.  0.
         25    1    3    3    0    0  0.77317020790E+02 -0.16252215492E+02 -0.14958369184E+04  0.15031359389E+04  0.12509000000E+03 0.  0.
         25    1    4    4    0    0 -0.57552431201E+02  0.31867649750E+02 -0.70202438818E+03  0.71611003284E+03  0.12509000000E+03 0.  0.
         25    1    4    4    0    0 -0.19764589589E+02 -0.15615434258E+02 -0.41474743437E+03  0.43393250997E+03  0.12509000000E+03 0.  0.
<mgrwt>
<rscale>  2 0.46220301E+03</rscale>
<asrwt>0</asrwt>
<pdfrwt beam="1">  1       21 0.29830690E-02 0.46220301E+03</pdfrwt>
<pdfrwt beam="2">  1       21 0.38719026E+00 0.46220301E+03</pdfrwt>
<totfact> 0.53804064E+03</totfact>
</mgrwt>
</event>
<event>
 7    0  0.4748297E-002  0.4465722E+03  0.7546771E-02  0.1028749E+00
         21   -1    0    0  502  501  0.00000000000E+00  0.00000000000E+00  0.43787823672E+02  0.43787823672E+02  0.00000000000E+00 0. -1.
         21   -1    0    0  501  502 -0.00000000000E+00 -0.00000000000E+00 -0.11385970905E+04  0.11385970905E+04  0.00000000000E+00 0. -1.
      99926    2    1    2    0    0  0.00000000000E+00  0.00000000000E+00 -0.10948092669E+04  0.11823849142E+04  0.44657222768E+03 0.  0.
      99925    2    3    3    0    0 -0.60043959075E+02 -0.63319737383E+02 -0.84921630631E+03  0.89328618273E+03  0.26301559498E+03 0.  0.
         25    1    4    4    0    0 -0.60423713218E+02 -0.58765485007E+02 -0.42414226130E+03  0.45016505114E+03  0.12509000000E+03 0.  0.
         25    1    4    4    0    0  0.37975414226E+00 -0.45542523759E+01 -0.42507404501E+03  0.44312113160E+03  0.12509000000E+03 0.  0.
         25    1    3    3    0    0  0.60043959075E+02  0.63319737383E+02 -0.24559296055E+03  0.28909873147E+03  0.12509000000E+03 0.  0.
<mgrwt>
<rscale>  2 0.44657223E+03</rscale>
<asrwt>0</asrwt>
<pdfrwt beam="1">  1       21 0.64393860E-02 0.44657223E+03</pdfrwt>
<pdfrwt beam="2">  1       21 0.16744075E+00 0.44657223E+03</pdfrwt>
<totfact> 0.34958996E+04</totfact>
</mgrwt>
</event>
<event>
 7    0  0.4748297E-002  0.4379810E+03  0.7546771E-02  0.1031368E+00
         21   -1    0    0  502  501  0.00000000000E+00  0.00000000000E+00  0.81638940487E+02  0.81638940487E+02  0.00000000000E+00 0.  1.
         21   -1    0    0  501  502 -0.00000000000E+00 -0.00000000000E+00 -0.58742607768E+03  0.58742607768E+03  0.00000000000E+00 0.  1.
      99926    2    1    2    0    0  0.00000000000E+00  0.00000000000E+00 -0.50578713719E+03  0.66906501817E+03  0.43798101601E+03 0.  0.
      99925    2    3    3    0    0 -0.43773078912E+02 -0.66461213198E+02 -0.40645558246E+03  0.49060650433E+03  0.26297419317E+03 0.  0.
         25    1    4    4    0    0 -0.49225695792E+02 -0.11020946398E+02 -0.16593583199E+03  0.21383834741E+03  0.12509000000E+03 0.  0.
         25    1    4    4    0    0  0.54526168798E+01 -0.55440266800E+02 -0.24051975048E+03  0.27676815692E+03  0.12509000000E+03 0.  0.
         25    1    3    3    0    0  0.43773078912E+02  0.66461213198E+02 -0.99331554727E+02  0.17845851384E+03  0.12509000000E+03 0.  0.
<mgrwt>
<rscale>  2 0.43798102E+03</rscale>
<asrwt>0</asrwt>
<pdfrwt beam="1">  1       21 0.12005727E-01 0.43798102E+03</pdfrwt>
<pdfrwt beam="2">  1       21 0.86386186E-01 0.43798102E+03</pdfrwt>
<totfact> 0.62593940E+04</totfact>
</mgrwt>
</event>
<event>
 7    0  0.4748297E-002  0.4482469E+03  0.7546771E-02  0.1028246E+00
         21   -1    0    0  502  501  0.00000000000E+00  0.00000000000E+00  0.74878853826E+03  0.74878853826E+03  0.00000000000E+00 0.  1.
         21   -1    0    0  501  502 -0.00000000000E+00 -0.00000000000E+00 -0.67083458040E+02  0.67083458040E+02  0.00000000000E+00 0.  1.
      99926    2    1    2    0    0  0.00000000000E+00 -0.71054273576E-14  0.68170508022E+03  0.81587199630E+03  0.44824691627E+03 0.  0.
      99925    2    3    3    0    0 -0.59253765051E+02  0.54828698312E+02  0.55880464818E+03  0.62281962225E+03  0.26291529472E+03 0.  0.
         25    1    3    3    0    0  0.59253765051E+02 -0.54828698312E+02  0.12290043204E+03  0.19305237405E+03  0.12509000000E+03 0.  0.
         25    1    4    4    0    0 -0.25998762463E+02  0.68281171504E+02  0.29922039009E+03  0.33244338462E+03  0.12509000000E+03 0.  0.
         25    1    4    4    0    0 -0.33255002587E+02 -0.13452473193E+02  0.25958425809E+03  0.29037623763E+03  0.12509000000E+03 0.  0.
<mgrwt>
<rscale>  2 0.44824692E+03</rscale>
<asrwt>0</asrwt>
<pdfrwt beam="1">  1       21 0.11011596E+00 0.44824692E+03</pdfrwt>
<pdfrwt beam="2">  1       21 0.98652148E-02 0.44824692E+03</pdfrwt>
<totfact> 0.49582325E+04</totfact>
</mgrwt>
</event>
<event>
 7    0  0.4748297E-002  0.4522682E+03  0.7546771E-02  0.1027048E+00
         21   -1    0    0  502  501  0.00000000000E+00  0.00000000000E+00  0.18230858879E+02  0.18230858879E+02  0.00000000000E+00 0. -1.
         21   -1    0    0  501  502 -0.00000000000E+00 -0.00000000000E+00 -0.28049489269E+04  0.28049489269E+04  0.00000000000E+00 0. -1.
      99926    2    1    2    0    0  0.00000000000E+00  0.00000000000E+00 -0.27867180680E+04  0.28231797858E+04  0.45226818614E+03 0.  0.
      99925    2    3    3    0    0  0.40332982376E+02  0.26670133870E+02 -0.23787782296E+04  0.23937610328E+04  0.26299804412E+03 0.  0.
         25    1    4    4    0    0 -0.15307330205E+02 -0.50388093459E+01 -0.12150483204E+04  0.12215766996E+04  0.12509000000E+03 0.  0.
         25    1    4    4    0    0  0.55640312582E+02  0.31708943216E+02 -0.11637299091E+04  0.11721843332E+04  0.12509000000E+03 0.  0.
         25    1    3    3    0    0 -0.40332982376E+02 -0.26670133870E+02 -0.40793983849E+03  0.42941875301E+03  0.12509000000E+03 0.  0.
<mgrwt>
<rscale>  2 0.45226819E+03</rscale>
<asrwt>0</asrwt>
<pdfrwt beam="1">  1       21 0.26810087E-02 0.45226819E+03</pdfrwt>
<pdfrwt beam="2">  1       21 0.41249249E+00 0.45226819E+03</pdfrwt>
<totfact> 0.44521778E+03</totfact>
</mgrwt>
</event>
<event>
 7    0  0.4748297E-002  0.4554813E+03  0.7546771E-02  0.1026100E+00
         21   -1    0    0  502  501  0.00000000000E+00  0.00000000000E+00  0.10794950611E+04  0.10794950611E+04  0.00000000000E+00 0. -1.
         21   -1    0    0  501  502 -0.00000000000E+00 -0.00000000000E+00 -0.48046360877E+02  0.48046360877E+02  0.00000000000E+00 0. -1.
      99926    2    1    2    0    0  0.00000000000E+00  0.35527136788E-14  0.10314487002E+04  0.11275414220E+04  0.45548132462E+03 0.  0.
      99925    2    3    3    0    0 -0.12315496157E+02 -0.16158630626E+02  0.92550557257E+03  0.96236204315E+03  0.26299689059E+03 0.  0.
         25    1    4    4    0    0 -0.82064933135E+01  0.24233298708E+02  0.54547790280E+03  0.56022160780E+03  0.12509000000E+03 0.  0.
         25    1    3    3    0    0  0.12315496157E+02  0.16158630626E+02  0.10594312764E+03  0.16517937881E+03  0.12509000000E+03 0.  0.
         25    1    4    4    0    0 -0.41090028438E+01 -0.40391929335E+02  0.38002766977E+03  0.40214043535E+03  0.12509000000E+03 0.  0.
<mgrwt>
<rscale>  2 0.45548132E+03</rscale>
<asrwt>0</asrwt>
<pdfrwt beam="1">  1       21 0.15874926E+00 0.45548132E+03</pdfrwt>
<pdfrwt beam="2">  1       21 0.70656420E-02 0.45548132E+03</pdfrwt>
<totfact> 0.34411822E+04</totfact>
</mgrwt>
</event>
<event>
 7    0  0.4748297E-002  0.4577194E+03  0.7546771E-02  0.1025445E+00
         21   -1    0    0  502  501  0.00000000000E+00  0.00000000000E+00  0.18813893753E+03  0.18813893753E+03  0.00000000000E+00 0. -1.
         21   -1    0    0  501  502 -0.00000000000E+00 -0.00000000000E+00 -0.27839405520E+03  0.27839405520E+03  0.00000000000E+00 0. -1.
      99926    2    1    2    0    0  0.00000000000E+00  0.71054273576E-14 -0.90255117667E+02  0.46653299273E+03  0.45771939771E+03 0.  0.
      99925    2    3    3    0    0  0.65307755664E+02  0.63212142745E+02 -0.12972598156E+03  0.30695124209E+03  0.26292462188E+03 0.  0.
         25    1    3    3    0    0 -0.65307755664E+02 -0.63212142745E+02  0.39470863892E+02  0.15958175064E+03  0.12509000000E+03 0.  0.
         25    1    4    4    0    0  0.47514909688E+02  0.64154773556E+02 -0.45940747390E+02  0.15534336801E+03  0.12509000000E+03 0.  0.
         25    1    4    4    0    0  0.17792845976E+02 -0.94263081119E+00 -0.83785234170E+02  0.15160787409E+03  0.12509000000E+03 0.  0.
<mgrwt>
<rscale>  2 0.45771940E+03</rscale>
<asrwt>0</asrwt>
<pdfrwt beam="1">  1       21 0.27667491E-01 0.45771940E+03</pdfrwt>
<pdfrwt beam="2">  1       21 0.40940302E-01 0.45771940E+03</pdfrwt>
<totfact> 0.66252758E+04</totfact>
</mgrwt>
</event>
<event>
 7    0  0.4748297E-002  0.4568564E+03  0.7546771E-02  0.1025697E+00
         21   -1    0    0  502  501  0.00000000000E+00  0.00000000000E+00  0.88368263870E+03  0.88368263870E+03  0.00000000000E+00 0. -1.
         21   -1    0    0  501  502 -0.00000000000E+00 -0.00000000000E+00 -0.59047709466E+02  0.59047709466E+02  0.00000000000E+00 0. -1.
      99926    2    1    2    0    0  0.14210854715E-13  0.71054273576E-14  0.82463492923E+03  0.94273034816E+03  0.45685637003E+03 0.  0.
      99925    2    3    3    0    0  0.75038373406E+02  0.34155251217E+02  0.35283220236E+03  0.44771251025E+03  0.26298020865E+03 0.  0.
         25    1    4    4    0    0  0.24964176207E+02  0.36866249540E+02  0.12145174733E+03  0.17994545140E+03  0.12509000000E+03 0.  0.
         25    1    3    3    0    0 -0.75038373406E+02 -0.34155251217E+02  0.47180272687E+03  0.49501783791E+03  0.12509000000E+03 0.  0.
         25    1    4    4    0    0  0.50074197199E+02 -0.27109983233E+01  0.23138045503E+03  0.26776705885E+03  0.12509000000E+03 0.  0.
<mgrwt>
<rscale>  2 0.45685637E+03</rscale>
<asrwt>0</asrwt>
<pdfrwt beam="1">  1       21 0.12995332E+00 0.45685637E+03</pdfrwt>
<pdfrwt beam="2">  1       21 0.86834872E-02 0.45685637E+03</pdfrwt>
<totfact> 0.40840441E+04</totfact>
</mgrwt>
</event>
<event>
 7    0  0.4748297E-002  0.4540766E+03  0.7546771E-02  0.1026513E+00
         21   -1    0    0  502  501  0.00000000000E+00  0.00000000000E+00  0.10797499780E+03  0.10797499780E+03  0.00000000000E+00 0. -1.
         21   -1    0    0  501  502 -0.00000000000E+00 -0.00000000000E+00 -0.47739180750E+03  0.47739180750E+03  0.00000000000E+00 0. -1.
      99926    2    1    2    0    0  0.00000000000E+00  0.71054273576E-14 -0.36941680970E+03  0.58536680530E+03  0.45407655462E+03 0.  0.
      99925    2    3    3    0    0  0.24648288956E+02  0.61001396094E+02 -0.35001189127E+03  0.44270367960E+03  0.26296295447E+03 0.  0.
         25    1    4    4    0    0  0.18391027618E+02  0.51218466704E+02 -0.23833751686E+03  0.27461580667E+03  0.12509000000E+03 0.  0.
         25    1    4    4    0    0  0.62572613379E+01  0.97829293906E+01 -0.11167437441E+03  0.16808787293E+03  0.12509000000E+03 0.  0.
         25    1    3    3    0    0 -0.24648288956E+02 -0.61001396094E+02 -0.19404918425E+02  0.14266312569E+03  0.12509000000E+03 0.  0.
<mgrwt>
<rscale>  2 0.45407655E+03</rscale>
<asrwt>0</asrwt>
<pdfrwt beam="1">  1       21 0.15878676E-01 0.45407655E+03</pdfrwt>
<pdfrwt beam="2">  1       21 0.70204678E-01 0.45407655E+03</pdfrwt>
<totfact> 0.60025088E+04</totfact>
</mgrwt>
</event>
<event>
 7    0  0.4748297E-002  0.4535625E+03  0.7546771E-02  0.1026665E+00
         21   -1    0    0  502  501  0.00000000000E+00  0.00000000000E+00  0.10720610360E+03  0.10720610360E+03  0.00000000000E+00 0. -1.
         21   -1    0    0  501  502 -0.00000000000E+00 -0.00000000000E+00 -0.47972763432E+03  0.47972763432E+03  0.00000000000E+00 0. -1.
      99926    2    1    2    0    0  0.00000000000E+00  0.00000000000E+00 -0.37252153072E+03  0.58693373792E+03  0.45356247845E+03 0.  0.
      99925    2    3    3    0    0 -0.30748637911E+01  0.97212619236E+02 -0.16325661573E+03  0.32444743186E+03  0.26297084503E+03 0.  0.
         25    1    4    4    0    0  0.14032191418E+01  0.76692676936E+02 -0.12271274572E+03  0.19128424343E+03  0.12509000000E+03 0.  0.
         25    1    4    4    0    0 -0.44780829330E+01  0.20519942301E+02 -0.40543870010E+02  0.13316318843E+03  0.12509000000E+03 0.  0.
         25    1    3    3    0    0  0.30748637911E+01 -0.97212619236E+02 -0.20926491499E+03  0.26248630606E+03  0.12509000000E+03 0.  0.
<mgrwt>
<rscale>  2 0.45356248E+03</rscale>
<asrwt>0</asrwt>
<pdfrwt beam="1">  1       21 0.15765603E-01 0.45356248E+03</pdfrwt>
<pdfrwt beam="2">  1       21 0.70548182E-01 0.45356248E+03</pdfrwt>
<totfact> 0.60170596E+04</totfact>
</mgrwt>
</event>
<event>
 7    0  0.4748297E-002  0.4532177E+03  0.7546771E-02  0.1026767E+00
         21   -1    0    0  502  501  0.00000000000E+00  0.00000000000E+00  0.98721892470E+02  0.98721892470E+02  0.00000000000E+00 0. -1.
         21   -1    0    0  501  502 -0.00000000000E+00 -0.00000000000E+00 -0.52016398729E+03  0.52016398729E+03  0.00000000000E+00 0. -1.
      99926    2    1    2    0    0  0.00000000000E+00  0.00000000000E+00 -0.42144209482E+03  0.61888587976E+03  0.45321771025E+03 0.  0.
      99925    2    3    3    0    0 -0.87615014050E+02  0.29066306959E+02 -0.35094192374E+03  0.44818431823E+03  0.26303556486E+03 0.  0.
         25    1    4    4    0    0 -0.20923839441E+02  0.30522430239E+02 -0.21676482301E+03  0.25298996502E+03  0.12509000000E+03 0.  0.
         25    1    4    4    0    0 -0.66691174608E+02 -0.14561232804E+01 -0.13417710073E+03  0.19519435321E+03  0.12509000000E+03 0.  0.
         25    1    3    3    0    0  0.87615014050E+02 -0.29066306959E+02 -0.70500171082E+02  0.17070156153E+03  0.12509000000E+03 0.  0.
<mgrwt>
<rscale>  2 0.45321771E+03</rscale>
<asrwt>0</asrwt>
<pdfrwt beam="1">  1       21 0.14517926E-01 0.45321771E+03</pdfrwt>
<pdfrwt beam="2">  1       21 0.76494703E-01 0.45321771E+03</pdfrwt>
<totfact> 0.58347466E+04</totfact>
</mgrwt>
</event>
<event>
 7    0  0.4748297E-002  0.4528712E+03  0.7546771E-02  0.1026869E+00
         21   -1    0    0  502  501  0.00000000000E+00  0.00000000000E+00  0.31056484242E+03  0.31056484242E+03  0.00000000000E+00 0. -1.
         21   -1    0    0  501  502 -0.00000000000E+00 -0.00000000000E+00 -0.16509624080E+03  0.16509624080E+03  0.00000000000E+00 0. -1.
      99926    2    1    2    0    0  0.00000000000E+00  0.00000000000E+00  0.14546860162E+03  0.47566108323E+03  0.45287123119E+03 0.  0.
      99925    2    3    3    0    0  0.81414064667E+02  0.75494289380E+02  0.86001956969E+02  0.29814649909E+03  0.26299688337E+03 0.  0.
         25    1    4    4    0    0  0.72925379962E+02  0.31977829938E+02  0.19059159138E+02  0.14950402101E+03  0.12509000000E+03 0.  0.
         25    1    3    3    0    0 -0.81414064667E+02 -0.75494289380E+02  0.59466644649E+02  0.17751458413E+03  0.12509000000E+03 0.  0.
         25    1    4    4    0    0  0.84886847045E+01  0.43516459441E+02  0.66942797831E+02  0.14864247809E+03  0.12509000000E+03 0.  0.
<mgrwt>
<rscale>  2 0.45287123E+03</rscale>
<asrwt>0</asrwt>
<pdfrwt beam="1">  1       21 0.45671300E-01 0.45287123E+03</pdfrwt>
<pdfrwt beam="2">  1       21 0.24278859E-01 0.45287123E+03</pdfrwt>
<totfact> 0.68161653E+04</totfact>
</mgrwt>
</event>
<event>
 7    0  0.4748297E-002  0.4482623E+03  0.7546771E-02  0.1028241E+00
         21   -1    0    0  502  501  0.00000000000E+00  0.00000000000E+00  0.62012181328E+03  0.62012181328E+03  0.00000000000E+00 0.  1.
         21   -1    0    0  501  502 -0.00000000000E+00 -0.00000000000E+00 -0.81007921940E+02  0.81007921940E+02  0.00000000000E+00 0.  1.
      99926    2    1    2    0    0  0.00000000000E+00  0.35527136788E-14  0.53911389134E+03  0.70112973522E+03  0.44826233142E+03 0.  0.
      99925    2    3    3    0    0  0.37167913250E+02 -0.18307345284E+02  0.49519105250E+03  0.56222927972E+03  0.26300374870E+03 0.  0.
         25    1    4    4    0    0  0.38196760248E+02 -0.45020775376E+02  0.25495455904E+03  0.29006067983E+03  0.12509000000E+03 0.  0.
         25    1    3    3    0    0 -0.37167913250E+02  0.18307345284E+02  0.43922838835E+02  0.13890045550E+03  0.12509000000E+03 0.  0.
         25    1    4    4    0    0 -0.10288469981E+01  0.26713430093E+02  0.24023649346E+03  0.27216859989E+03  0.12509000000E+03 0.  0.
<mgrwt>
<rscale>  2 0.44826233E+03</rscale>
<asrwt>0</asrwt>
<pdfrwt beam="1">  1       21 0.91194382E-01 0.44826233E+03</pdfrwt>
<pdfrwt beam="2">  1       21 0.11912930E-01 0.44826233E+03</pdfrwt>
<totfact> 0.55738748E+04</totfact>
</mgrwt>
</event>
<event>
 7    0  0.4748297E-002  0.4559639E+03  0.7546771E-02  0.1025958E+00
         21   -1    0    0  502  501  0.00000000000E+00  0.00000000000E+00  0.86685430298E+03  0.86685430298E+03  0.00000000000E+00 0.  1.
         21   -1    0    0  501  502 -0.00000000000E+00 -0.00000000000E+00 -0.59959063804E+02  0.59959063804E+02  0.00000000000E+00 0.  1.
      99926    2    1    2    0    0  0.14210854715E-13  0.13322676296E-14  0.80689523918E+03  0.92681336678E+03  0.45596391287E+03 0.  0.
      99925    2    3    3    0    0 -0.10503000901E+03 -0.16552017040E+01  0.60018291750E+03  0.66335267803E+03  0.26226551147E+03 0.  0.
         25    1    4    4    0    0 -0.44734521638E+02 -0.38906389873E+02  0.31015163124E+03  0.33964161562E+03  0.12509000000E+03 0.  0.
         25    1    3    3    0    0  0.10503000901E+03  0.16552017040E+01  0.20671232168E+03  0.26346068876E+03  0.12509000000E+03 0.  0.
         25    1    4    4    0    0 -0.60295487376E+02  0.37251188169E+02  0.29003128625E+03  0.32371106241E+03  0.12509000000E+03 0.  0.
<mgrwt>
<rscale>  2 0.45596391E+03</rscale>
<asrwt>0</asrwt>
<pdfrwt beam="1">  1       21 0.12747857E+00 0.45596391E+03</pdfrwt>
<pdfrwt beam="2">  1       21 0.88175099E-02 0.45596391E+03</pdfrwt>
<totfact> 0.41778407E+04</totfact>
</mgrwt>
</event>
<event>
 7    0  0.4748297E-002  0.4556861E+03  0.7546771E-02  0.1026040E+00
         21   -1    0    0  502  501  0.00000000000E+00  0.00000000000E+00  0.22129759870E+03  0.22129759870E+03  0.00000000000E+00 0. -1.
         21   -1    0    0  501  502 -0.00000000000E+00 -0.00000000000E+00 -0.23458205171E+03  0.23458205171E+03  0.00000000000E+00 0. -1.
      99926    2    1    2    0    0  0.00000000000E+00  0.14210854715E-13 -0.13284453010E+02  0.45587965040E+03  0.45568605307E+03 0.  0.
      99925    2    3    3    0    0  0.12917861655E+02  0.94467141077E+02  0.53760684952E+02  0.28490166785E+03  0.26303580974E+03 0.  0.
         25    1    4    4    0    0 -0.26153513895E+02  0.47428497688E+02  0.51294184244E+02  0.14564364085E+03  0.12509000000E+03 0.  0.
         25    1    3    3    0    0 -0.12917861655E+02 -0.94467141077E+02 -0.67045137962E+02  0.17097798255E+03  0.12509000000E+03 0.  0.
         25    1    4    4    0    0  0.39071375550E+02  0.47038643389E+02  0.24665007085E+01  0.13925802700E+03  0.12509000000E+03 0.  0.
<mgrwt>
<rscale>  2 0.45568605E+03</rscale>
<asrwt>0</asrwt>
<pdfrwt beam="1">  1       21 0.32543765E-01 0.45568605E+03</pdfrwt>
<pdfrwt beam="2">  1       21 0.34497360E-01 0.45568605E+03</pdfrwt>
<totfact> 0.68107823E+04</totfact>
</mgrwt>
</event>
<event>
 7    0  0.4748297E-002  0.4528841E+03  0.7546771E-02  0.1026865E+00
         21   -1    0    0  502  501  0.00000000000E+00  0.00000000000E+00  0.11154904011E+03  0.11154904011E+03  0.00000000000E+00 0. -1.
         21   -1    0    0  501  502 -0.00000000000E+00 -0.00000000000E+00 -0.45967221780E+03  0.45967221780E+03  0.00000000000E+00 0. -1.
      99926    2    1    2    0    0  0.00000000000E+00 -0.35527136788E-14 -0.34812317769E+03  0.57122125791E+03  0.45288406755E+03 0.  0.
      99925    2    3    3    0    0  0.46092320369E+02  0.23525471524E+02 -0.34364870632E+03  0.43577577514E+03  0.26292231370E+03 0.  0.
         25    1    4    4    0    0 -0.15748955046E+02  0.12761402357E+02 -0.18469675055E+03  0.22398946569E+03  0.12509000000E+03 0.  0.
         25    1    3    3    0    0 -0.46092320369E+02 -0.23525471524E+02 -0.44744713701E+01  0.13544548277E+03  0.12509000000E+03 0.  0.
         25    1    4    4    0    0  0.61841275415E+02  0.10764069167E+02 -0.15895195577E+03  0.21178630946E+03  0.12509000000E+03 0.  0.
<mgrwt>
<rscale>  2 0.45288407E+03</rscale>
<asrwt>0</asrwt>
<pdfrwt beam="1">  1       21 0.16404271E-01 0.45288407E+03</pdfrwt>
<pdfrwt beam="2">  1       21 0.67598856E-01 0.45288407E+03</pdfrwt>
<totfact> 0.61508292E+04</totfact>
</mgrwt>
</event>
<event>
 7    0  0.4748297E-002  0.4743245E+03  0.7546771E-02  0.1020707E+00
         21   -1    0    0  502  501  0.00000000000E+00  0.00000000000E+00  0.36049437909E+03  0.36049437909E+03  0.00000000000E+00 0. -1.
         21   -1    0    0  501  502 -0.00000000000E+00 -0.00000000000E+00 -0.15602443302E+03  0.15602443302E+03  0.00000000000E+00 0. -1.
      99926    2    1    2    0    0  0.14210854715E-13 -0.14210854715E-13  0.20446994607E+03  0.51651881211E+03  0.47432449275E+03 0.  0.
      99925    2    3    3    0    0  0.65035128205E+02 -0.76331676463E+02  0.36202559627E+02  0.28410212990E+03  0.26333875931E+03 0.  0.
         25    1    4    4    0    0  0.64848166636E+02 -0.65900249542E+02  0.99888750363E+01  0.15586986024E+03  0.12509000000E+03 0.  0.
         25    1    3    3    0    0 -0.65035128205E+02  0.76331676463E+02  0.16826738644E+03  0.23241668222E+03  0.12509000000E+03 0.  0.
         25    1    4    4    0    0  0.18696156931E+00 -0.10431426921E+02  0.26213684591E+02  0.12823226966E+03  0.12509000000E+03 0.  0.
<mgrwt>
<rscale>  2 0.47432449E+03</rscale>
<asrwt>0</asrwt>
<pdfrwt beam="1">  1       21 0.53013879E-01 0.47432449E+03</pdfrwt>
<pdfrwt beam="2">  1       21 0.22944770E-01 0.47432449E+03</pdfrwt>
<totfact> 0.55165655E+04</totfact>
</mgrwt>
</event>
<event>
 7    0  0.4748297E-002  0.4554501E+03  0.7546771E-02  0.1026109E+00
         21   -1    0    0  502  501  0.00000000000E+00  0.00000000000E+00  0.41200123470E+03  0.41200123470E+03  0.00000000000E+00 0. -1.
         21   -1    0    0  501  502 -0.00000000000E+00 -0.00000000000E+00 -0.12587023925E+03  0.12587023925E+03  0.00000000000E+00 0. -1.
      99926    2    1    2    0    0  0.00000000000E+00 -0.44408920985E-15  0.28613099545E+03  0.53787147395E+03  0.45545008062E+03 0.  0.
      99925    2    3    3    0    0 -0.10536561841E+03 -0.21229781897E+01  0.13032318573E+03  0.31197326181E+03  0.26312879502E+03 0.  0.
         25    1    3    3    0    0  0.10536561841E+03  0.21229781897E+01  0.15580780971E+03  0.22589821214E+03  0.12509000000E+03 0.  0.
         25    1    4    4    0    0 -0.77084022543E+02 -0.46200707116E+01  0.32242001698E+02  0.15050032013E+03  0.12509000000E+03 0.  0.
         25    1    4    4    0    0 -0.28281595870E+02  0.24970925219E+01  0.98081184034E+02  0.16147294169E+03  0.12509000000E+03 0.  0.
<mgrwt>
<rscale>  2 0.45545008E+03</rscale>
<asrwt>0</asrwt>
<pdfrwt beam="1">  1       21 0.60588417E-01 0.45545008E+03</pdfrwt>
<pdfrwt beam="2">  1       21 0.18510329E-01 0.45545008E+03</pdfrwt>
<totfact> 0.62452401E+04</totfact>
</mgrwt>
</event>
<event>
 7    0  0.4748297E-002  0.4639643E+03  0.7546771E-02  0.1023638E+00
         21   -1    0    0  502  501  0.00000000000E+00  0.00000000000E+00  0.96111005343E+02  0.96111005343E+02  0.00000000000E+00 0. -1.
         21   -1    0    0  501  502 -0.00000000000E+00 -0.00000000000E+00 -0.55993284203E+03  0.55993284203E+03  0.00000000000E+00 0. -1.
      99926    2    1    2    0    0 -0.14210854715E-13  0.00000000000E+00 -0.46382183669E+03  0.65604384738E+03  0.46396425885E+03 0.  0.
      99925    2    3    3    0    0  0.65303839528E+02  0.91087302999E+02 -0.22403947981E+03  0.36329041017E+03  0.26310595847E+03 0.  0.
         25    1    4    4    0    0  0.31192455963E+02  0.76910822070E+02 -0.15474168222E+03  0.21559392426E+03  0.12509000000E+03 0.  0.
         25    1    3    3    0    0 -0.65303839528E+02 -0.91087302999E+02 -0.23978235688E+03  0.29275343720E+03  0.12509000000E+03 0.  0.
         25    1    4    4    0    0  0.34111383565E+02  0.14176480929E+02 -0.69297797591E+02  0.14769648591E+03  0.12509000000E+03 0.  0.
<mgrwt>
<rscale>  2 0.46396426E+03</rscale>
<asrwt>0</asrwt>
<pdfrwt beam="1">  1       21 0.14133971E-01 0.46396426E+03</pdfrwt>
<pdfrwt beam="2">  1       21 0.82343065E-01 0.46396426E+03</pdfrwt>
<totfact> 0.51607507E+04</totfact>
</mgrwt>
</event>
<event>
 7    0  0.4748297E-002  0.4175385E+03  0.7546771E-02  0.1037870E+00
         21   -1    0    0  502  501  0.00000000000E+00  0.00000000000E+00  0.44904507341E+03  0.44904507341E+03  0.00000000000E+00 0.  1.
         21   -1    0    0  501  502 -0.00000000000E+00 -0.00000000000E+00 -0.97060657168E+02  0.97060657168E+02  0.00000000000E+00 0.  1.
      99926    2    1    2    0    0 -0.71054273576E-14 -0.17763568394E-14  0.35198441624E+03  0.54610573057E+03  0.41753854875E+03 0.  0.
      99925    2    3    3    0    0 -0.45538952346E+02 -0.15169375228E+02  0.30133598149E+03  0.40286928909E+03  0.26305205612E+03 0.  0.
         25    1    3    3    0    0  0.45538952346E+02  0.15169375228E+02  0.50648434748E+02  0.14323644148E+03  0.12509000000E+03 0.  0.
         25    1    4    4    0    0 -0.44617818796E+02  0.25855484534E+02  0.14111932386E+03  0.19550301149E+03  0.12509000000E+03 0.  0.
         25    1    4    4    0    0 -0.92113355025E+00 -0.41024859762E+02  0.16021665763E+03  0.20736627760E+03  0.12509000000E+03 0.  0.
<mgrwt>
<rscale>  2 0.41753855E+03</rscale>
<asrwt>0</asrwt>
<pdfrwt beam="1">  1       21 0.66036039E-01 0.41753855E+03</pdfrwt>
<pdfrwt beam="2">  1       21 0.14273626E-01 0.41753855E+03</pdfrwt>
<totfact> 0.84530004E+04</totfact>
</mgrwt>
</event>
<event>
 7    0  0.4748297E-002  0.4533926E+03  0.7546771E-02  0.1026715E+00
         21   -1    0    0  502  501  0.00000000000E+00  0.00000000000E+00  0.17903925812E+03  0.17903925812E+03  0.00000000000E+00 0. -1.
         21   -1    0    0  501  502 -0.00000000000E+00 -0.00000000000E+00 -0.28703883918E+03  0.28703883918E+03  0.00000000000E+00 0. -1.
      99926    2    1    2    0    0  0.00000000000E+00  0.00000000000E+00 -0.10799958105E+03  0.46607809730E+03  0.45339263699E+03 0.  0.
      99925    2    3    3    0    0  0.10027626696E+03 -0.47380389731E+02 -0.54558303911E+02  0.29056824217E+03  0.26296970127E+03 0.  0.
         25    1    4    4    0    0  0.51008646272E+02 -0.52600755731E+02  0.10806053561E+01  0.14497378144E+03  0.12509000000E+03 0.  0.
         25    1    3    3    0    0 -0.10027626696E+03  0.47380389731E+02 -0.53441277140E+02  0.17550985513E+03  0.12509000000E+03 0.  0.
         25    1    4    4    0    0  0.49267620686E+02  0.52203660008E+01 -0.55638909268E+02  0.14559446072E+03  0.12509000000E+03 0.  0.
<mgrwt>
<rscale>  2 0.45339264E+03</rscale>
<asrwt>0</asrwt>
<pdfrwt beam="1">  1       21 0.26329303E-01 0.45339264E+03</pdfrwt>
<pdfrwt beam="2">  1       21 0.42211594E-01 0.45339264E+03</pdfrwt>
<totfact> 0.68599180E+04</totfact>
</mgrwt>
</event>
<event>
 7    0  0.4748297E-002  0.4563985E+03  0.7546771E-02  0.1025831E+00
         21   -1    0    0  502  501  0.00000000000E+00  0.00000000000E+00  0.10001814881E+04  0.10001814881E+04  0.00000000000E+00 0.  1.
         21   -1    0    0  501  502 -0.00000000000E+00 -0.00000000000E+00 -0.52065451521E+02  0.52065451521E+02  0.00000000000E+00 0.  1.
      99926    2    1    2    0    0  0.88817841970E-15  0.00000000000E+00  0.94811603660E+03  0.10522469396E+04  0.45639851350E+03 0.  0.
      99925    2    3    3    0    0  0.47362814252E+01  0.69424882887E+02  0.38626925349E+03  0.47245252563E+03  0.26299278709E+03 0.  0.
         25    1    4    4    0    0 -0.96936619595E+01  0.18709196215E+02  0.12537586833E+03  0.17835531269E+03  0.12509000000E+03 0.  0.
         25    1    3    3    0    0 -0.47362814252E+01 -0.69424882887E+02  0.56184678311E+03  0.57979441401E+03  0.12509000000E+03 0.  0.
         25    1    4    4    0    0  0.14429943385E+02  0.50715686673E+02  0.26089338516E+03  0.29409721294E+03  0.12509000000E+03 0.  0.
<mgrwt>
<rscale>  2 0.45639851E+03</rscale>
<asrwt>0</asrwt>
<pdfrwt beam="1">  1       21 0.14708550E+00 0.45639851E+03</pdfrwt>
<pdfrwt beam="2">  1       21 0.76566847E-02 0.45639851E+03</pdfrwt>
<totfact> 0.36791804E+04</totfact>
</mgrwt>
</event>
<event>
 7    0  0.4748297E-002  0.4527935E+03  0.7546771E-02  0.1026892E+00
         21   -1    0    0  502  501  0.00000000000E+00  0.00000000000E+00  0.93841990282E+02  0.93841990282E+02  0.00000000000E+00 0. -1.
         21   -1    0    0  501  502 -0.00000000000E+00 -0.00000000000E+00 -0.54618920869E+03  0.54618920869E+03  0.00000000000E+00 0. -1.
      99926    2    1    2    0    0 -0.71054273576E-14  0.00000000000E+00 -0.45234721841E+03  0.64003119897E+03  0.45279347351E+03 0.  0.
      99925    2    3    3    0    0  0.39732720483E+02 -0.66752492113E+02 -0.39747549132E+03  0.48289113783E+03  0.26298764328E+03 0.  0.
         25    1    4    4    0    0  0.56072929044E+02 -0.23598077205E+02 -0.17533949333E+03  0.22381351309E+03  0.12509000000E+03 0.  0.
         25    1    3    3    0    0 -0.39732720483E+02  0.66752492113E+02 -0.54871727089E+02  0.15714006114E+03  0.12509000000E+03 0.  0.
         25    1    4    4    0    0 -0.16340208561E+02 -0.43154414908E+02 -0.22213599799E+03  0.25907762474E+03  0.12509000000E+03 0.  0.
<mgrwt>
<rscale>  2 0.45279347E+03</rscale>
<asrwt>0</asrwt>
<pdfrwt beam="1">  1       21 0.13800293E-01 0.45279347E+03</pdfrwt>
<pdfrwt beam="2">  1       21 0.80321943E-01 0.45279347E+03</pdfrwt>
<totfact> 0.57270199E+04</totfact>
</mgrwt>
</event>
<event>
 7    0  0.4748297E-002  0.4565736E+03  0.7546771E-02  0.1025780E+00
         21   -1    0    0  502  501  0.00000000000E+00  0.00000000000E+00  0.99323090126E+03  0.99323090126E+03  0.00000000000E+00 0. -1.
         21   -1    0    0  501  502 -0.00000000000E+00 -0.00000000000E+00 -0.52470043325E+02  0.52470043325E+02  0.00000000000E+00 0. -1.
      99926    2    1    2    0    0  0.00000000000E+00  0.71054273576E-14  0.94076085793E+03  0.10457009446E+04  0.45657362351E+03 0.  0.
      99925    2    3    3    0    0 -0.85766420165E+02  0.39625082297E+02  0.73997917012E+03  0.79097202939E+03  0.26294781438E+03 0.  0.
         25    1    4    4    0    0 -0.25222280958E+02 -0.15782424613E+02  0.37901832964E+03  0.40023449462E+03  0.12509000000E+03 0.  0.
         25    1    3    3    0    0  0.85766420165E+02 -0.39625082297E+02  0.20078168781E+03  0.25472891520E+03  0.12509000000E+03 0.  0.
         25    1    4    4    0    0 -0.60544139207E+02  0.55407506911E+02  0.36096084048E+03  0.39073753476E+03  0.12509000000E+03 0.  0.
<mgrwt>
<rscale>  2 0.45657362E+03</rscale>
<asrwt>0</asrwt>
<pdfrwt beam="1">  1       21 0.14606336E+00 0.45657362E+03</pdfrwt>
<pdfrwt beam="2">  1       21 0.77161835E-02 0.45657362E+03</pdfrwt>
<totfact> 0.36979220E+04</totfact>
</mgrwt>
</event>
<event>
 7    0  0.4748297E-002  0.4026186E+03  0.7546771E-02  0.1042877E+00
         21   -1    0    0  502  501  0.00000000000E+00  0.00000000000E+00  0.33392274752E+03  0.33392274752E+03  0.00000000000E+00 0.  1.
         21   -1    0    0  501  502 -0.00000000000E+00 -0.00000000000E+00 -0.12136170824E+03  0.12136170824E+03  0.00000000000E+00 0.  1.
      99926    2    1    2    0    0 -0.35527136788E-14  0.00000000000E+00  0.21256103928E+03  0.45528445576E+03  0.40261860394E+03 0.  0.
      99925    2    3    3    0    0  0.23852970285E+02  0.36766092854E+02  0.16855902619E+03  0.31562631948E+03  0.26322446402E+03 0.  0.
         25    1    3    3    0    0 -0.23852970285E+02 -0.36766092854E+02  0.44002013090E+02  0.13965813629E+03  0.12509000000E+03 0.  0.
         25    1    4    4    0    0 -0.49346075886E+01 -0.18516388235E+02  0.90141990370E+02  0.15537146943E+03  0.12509000000E+03 0.  0.
         25    1    4    4    0    0  0.28787577873E+02  0.55282481089E+02  0.78417035825E+02  0.16025485004E+03  0.12509000000E+03 0.  0.
<mgrwt>
<rscale>  2 0.40261860E+03</rscale>
<asrwt>0</asrwt>
<pdfrwt beam="1">  1       21 0.49106286E-01 0.40261860E+03</pdfrwt>
<pdfrwt beam="2">  1       21 0.17847310E-01 0.40261860E+03</pdfrwt>
<totfact> 0.10633923E+05</totfact>
</mgrwt>
</event>
<event>
 7    0  0.4748297E-002  0.4454181E+03  0.7546771E-02  0.1029097E+00
         21   -1    0    0  502  501  0.00000000000E+00  0.00000000000E+00  0.18074715429E+02  0.18074715429E+02  0.00000000000E+00 0. -1.
         21   -1    0    0  501  502 -0.00000000000E+00 -0.00000000000E+00 -0.27441274223E+04  0.27441274223E+04  0.00000000000E+00 0. -1.
      99926    2    1    2    0    0  0.00000000000E+00  0.00000000000E+00 -0.27260527069E+04  0.27622021377E+04  0.44541810587E+03 0.  0.
      99925    2    3    3    0    0  0.44988690253E+02 -0.83812802292E+02 -0.19921702050E+04  0.20116825825E+04  0.26282336103E+03 0.  0.
         25    1    4    4    0    0  0.30328041741E+02 -0.10511947856E+02 -0.75575386381E+03  0.76670835519E+03  0.12509000000E+03 0.  0.
         25    1    3    3    0    0 -0.44988690253E+02  0.83812802292E+02 -0.73388250192E+03  0.75051955524E+03  0.12509000000E+03 0.  0.
         25    1    4    4    0    0  0.14660648512E+02 -0.73300854435E+02 -0.12364163412E+04  0.12449742273E+04  0.12509000000E+03 0.  0.
<mgrwt>
<rscale>  2 0.44541811E+03</rscale>
<asrwt>0</asrwt>
<pdfrwt beam="1">  1       21 0.26580475E-02 0.44541811E+03</pdfrwt>
<pdfrwt beam="2">  1       21 0.40354798E+00 0.44541811E+03</pdfrwt>
<totfact> 0.51793379E+03</totfact>
</mgrwt>
</event>
<event>
 7    0  0.4748297E-002  0.4616999E+03  0.7546771E-02  0.1024289E+00
         21   -1    0    0  502  501  0.00000000000E+00  0.00000000000E+00  0.18373543374E+03  0.18373543374E+03  0.00000000000E+00 0.  1.
         21   -1    0    0  501  502 -0.00000000000E+00 -0.00000000000E+00 -0.29004582808E+03  0.29004582808E+03  0.00000000000E+00 0.  1.
      99926    2    1    2    0    0  0.00000000000E+00  0.00000000000E+00 -0.10631039434E+03  0.47378126182E+03  0.46169988533E+03 0.  0.
      99925    2    3    3    0    0  0.10957222634E+02 -0.81310341563E+02  0.22585346171E+02  0.27631467631E+03  0.26288451858E+03 0.  0.
         25    1    3    3    0    0 -0.10957222634E+02  0.81310341563E+02 -0.12889574051E+03  0.19746658551E+03  0.12509000000E+03 0.  0.
         25    1    4    4    0    0  0.19967735483E+02 -0.64727973491E+02  0.42009709636E+02  0.14832648050E+03  0.12509000000E+03 0.  0.
         25    1    4    4    0    0 -0.90105128489E+01 -0.16582368072E+02 -0.19424363465E+02  0.12798819582E+03  0.12509000000E+03 0.  0.
<mgrwt>
<rscale>  2 0.46169989E+03</rscale>
<asrwt>0</asrwt>
<pdfrwt beam="1">  1       21 0.27019917E-01 0.46169989E+03</pdfrwt>
<pdfrwt beam="2">  1       21 0.42653797E-01 0.46169989E+03</pdfrwt>
<totfact> 0.63702078E+04</totfact>
</mgrwt>
</event>
<event>
 7    0  0.4748297E-002  0.4604392E+03  0.7546771E-02  0.1024654E+00
         21   -1    0    0  502  501  0.00000000000E+00  0.00000000000E+00  0.44629014373E+02  0.44629014373E+02  0.00000000000E+00 0. -1.
         21   -1    0    0  501  502 -0.00000000000E+00 -0.00000000000E+00 -0.11875922891E+04  0.11875922891E+04  0.00000000000E+00 0. -1.
      99926    2    1    2    0    0  0.00000000000E+00 -0.14210854715E-13 -0.11429632747E+04  0.12322213035E+04  0.46043923959E+03 0.  0.
      99925    2    3    3    0    0 -0.45926073643E+02  0.96310957090E+02 -0.57981214227E+03  0.64555980756E+03  0.26302155828E+03 0.  0.
         25    1    3    3    0    0  0.45926073643E+02 -0.96310957090E+02 -0.56315113246E+03  0.58666149591E+03  0.12509000000E+03 0.  0.
         25    1    4    4    0    0 -0.63195546869E+02  0.41344591793E+02 -0.29940086963E+03  0.33315378018E+03  0.12509000000E+03 0.  0.
         25    1    4    4    0    0  0.17269473226E+02  0.54966365296E+02 -0.28041127264E+03  0.31240602738E+03  0.12509000000E+03 0.  0.
<mgrwt>
<rscale>  2 0.46043924E+03</rscale>
<asrwt>0</asrwt>
<pdfrwt beam="1">  1       21 0.65630898E-02 0.46043924E+03</pdfrwt>
<pdfrwt beam="2">  1       21 0.17464594E+00 0.46043924E+03</pdfrwt>
<totfact> 0.29863544E+04</totfact>
</mgrwt>
</event>
<event>
 7    0  0.4748297E-002  0.4472955E+03  0.7546771E-02  0.1028532E+00
         21   -1    0    0  502  501  0.00000000000E+00  0.00000000000E+00  0.10894578798E+04  0.10894578798E+04  0.00000000000E+00 0.  1.
         21   -1    0    0  501  502 -0.00000000000E+00 -0.00000000000E+00 -0.45911194934E+02  0.45911194934E+02  0.00000000000E+00 0.  1.
      99926    2    1    2    0    0  0.00000000000E+00  0.00000000000E+00  0.10435466848E+04  0.11353690747E+04  0.44729548663E+03 0.  0.
      99925    2    3    3    0    0  0.83259133381E+01 -0.94856138663E+02  0.54365115058E+03  0.61133657462E+03  0.26288557599E+03 0.  0.
         25    1    3    3    0    0 -0.83259133381E+01  0.94856138663E+02  0.49989553425E+03  0.52403250008E+03  0.12509000000E+03 0.  0.
         25    1    4    4    0    0 -0.19506796766E+02 -0.17218694388E+02  0.21414942231E+03  0.24936816503E+03  0.12509000000E+03 0.  0.
         25    1    4    4    0    0  0.27832710105E+02 -0.77637444275E+02  0.32950172827E+03  0.36196840958E+03  0.12509000000E+03 0.  0.
<mgrwt>
<rscale>  2 0.44729549E+03</rscale>
<asrwt>0</asrwt>
<pdfrwt beam="1">  1       21 0.16021438E+00 0.44729549E+03</pdfrwt>
<pdfrwt beam="2">  1       21 0.67516470E-02 0.44729549E+03</pdfrwt>
<totfact> 0.36412766E+04</totfact>
</mgrwt>
</event>
<event>
 7    0  0.4748297E-002  0.4559219E+03  0.7546771E-02  0.1025971E+00
         21   -1    0    0  502  501  0.00000000000E+00  0.00000000000E+00  0.26324607628E+02  0.26324607628E+02  0.00000000000E+00 0. -1.
         21   -1    0    0  501  502 -0.00000000000E+00 -0.00000000000E+00 -0.19740536664E+04  0.19740536664E+04  0.00000000000E+00 0. -1.
      99926    2    1    2    0    0  0.00000000000E+00 -0.71054273576E-14 -0.19477290588E+04  0.20003782740E+04  0.45592187140E+03 0.  0.
      99925    2    3    3    0    0  0.21970751942E+02 -0.62351002187E+02 -0.81752815021E+03  0.86135590233E+03  0.26308050608E+03 0.  0.
         25    1    4    4    0    0  0.38248174680E+02 -0.54887487758E+02 -0.36766920279E+03  0.39408591697E+03  0.12509000000E+03 0.  0.
         25    1    3    3    0    0 -0.21970751942E+02  0.62351002187E+02 -0.11302009086E+04  0.11390223717E+04  0.12509000000E+03 0.  0.
         25    1    4    4    0    0 -0.16277422737E+02 -0.74635144293E+01 -0.44985894742E+03  0.46726998535E+03  0.12509000000E+03 0.  0.
<mgrwt>
<rscale>  2 0.45592187E+03</rscale>
<asrwt>0</asrwt>
<pdfrwt beam="1">  1       21 0.38712657E-02 0.45592187E+03</pdfrwt>
<pdfrwt beam="2">  1       21 0.29030202E+00 0.45592187E+03</pdfrwt>
<totfact> 0.13605864E+04</totfact>
</mgrwt>
</event>
<event>
 7    0  0.4748297E-002  0.4585952E+03  0.7546771E-02  0.1025189E+00
         21   -1    0    0  502  501  0.00000000000E+00  0.00000000000E+00  0.31391590302E+03  0.31391590302E+03  0.00000000000E+00 0.  1.
         21   -1    0    0  501  502 -0.00000000000E+00 -0.00000000000E+00 -0.16748879456E+03  0.16748879456E+03  0.00000000000E+00 0.  1.
      99926    2    1    2    0    0  0.00000000000E+00 -0.17763568394E-14  0.14642710846E+03  0.48140469757E+03  0.45859522975E+03 0.  0.
      99925    2    3    3    0    0 -0.99605447124E+02  0.11188161471E+02  0.29267732200E+02  0.28285936875E+03  0.26288096600E+03 0.  0.
         25    1    3    3    0    0  0.99605447124E+02 -0.11188161471E+02  0.11715937626E+03  0.19854532883E+03  0.12509000000E+03 0.  0.
         25    1    4    4    0    0 -0.91535914146E+02 -0.82904318709E+00  0.85538573420E+01  0.15524235075E+03  0.12509000000E+03 0.  0.
         25    1    4    4    0    0 -0.80695329780E+01  0.12017204658E+02  0.20713874858E+02  0.12761701799E+03  0.12509000000E+03 0.  0.
<mgrwt>
<rscale>  2 0.45859523E+03</rscale>
<asrwt>0</asrwt>
<pdfrwt beam="1">  1       21 0.46164104E-01 0.45859523E+03</pdfrwt>
<pdfrwt beam="2">  1       21 0.24630705E-01 0.45859523E+03</pdfrwt>
<totfact> 0.64730991E+04</totfact>
</mgrwt>
</event>
<event>
 7    0  0.4748297E-002  0.4446381E+03  0.7546771E-02  0.1029333E+00
         21   -1    0    0  502  501  0.00000000000E+00  0.00000000000E+00  0.27172612988E+02  0.27172612988E+02  0.00000000000E+00 0.  1.
         21   -1    0    0  501  502 -0.00000000000E+00 -0.00000000000E+00 -0.18189546980E+04  0.18189546980E+04  0.00000000000E+00 0.  1.
      99926    2    1    2    0    0  0.35527136788E-14  0.14210854715E-13 -0.17917820850E+04  0.18461273110E+04  0.44463806428E+03 0.  0.
      99925    2    3    3    0    0  0.26837972647E+02  0.99030154389E+02 -0.11787066289E+04  0.12120640087E+04  0.26310187390E+03 0.  0.
         25    1    4    4    0    0  0.15557106601E+02  0.68146968176E+02 -0.77527642356E+03  0.78840793621E+03  0.12509000000E+03 0.  0.
         25    1    4    4    0    0  0.11280866046E+02  0.30883186213E+02 -0.40343020530E+03  0.42365607251E+03  0.12509000000E+03 0.  0.
         25    1    3    3    0    0 -0.26837972647E+02 -0.99030154389E+02 -0.61307545618E+03  0.63406330230E+03  0.12509000000E+03 0.  0.
<mgrwt>
<rscale>  2 0.44463806E+03</rscale>
<asrwt>0</asrwt>
<pdfrwt beam="1">  1       21 0.39959725E-02 0.44463806E+03</pdfrwt>
<pdfrwt beam="2">  1       21 0.26749334E+00 0.44463806E+03</pdfrwt>
<totfact> 0.17776106E+04</totfact>
</mgrwt>
</event>
<event>
 7    0  0.4748297E-002  0.4675242E+03  0.7546771E-02  0.1022621E+00
         21   -1    0    0  502  501  0.00000000000E+00  0.00000000000E+00  0.70222172041E+02  0.70222172041E+02  0.00000000000E+00 0. -1.
         21   -1    0    0  501  502 -0.00000000000E+00 -0.00000000000E+00 -0.77816889948E+03  0.77816889948E+03  0.00000000000E+00 0. -1.
      99926    2    1    2    0    0  0.17763568394E-14 -0.35527136788E-14 -0.70794672744E+03  0.84839107152E+03  0.46752416124E+03 0.  0.
      99925    2    3    3    0    0  0.13582693907E+02 -0.26015733517E+02 -0.22098937540E+03  0.34476791998E+03  0.26299678067E+03 0.  0.
         25    1    4    4    0    0  0.19520601836E+02 -0.51697856229E+02 -0.11123605662E+03  0.17628014814E+03  0.12509000000E+03 0.  0.
         25    1    3    3    0    0 -0.13582693907E+02  0.26015733517E+02 -0.48695735204E+03  0.50362315154E+03  0.12509000000E+03 0.  0.
         25    1    4    4    0    0 -0.59379079292E+01  0.25682122712E+02 -0.10975331878E+03  0.16848777184E+03  0.12509000000E+03 0.  0.
<mgrwt>
<rscale>  2 0.46752416E+03</rscale>
<asrwt>0</asrwt>
<pdfrwt beam="1">  1       21 0.10326790E-01 0.46752416E+03</pdfrwt>
<pdfrwt beam="2">  1       21 0.11443660E+00 0.46752416E+03</pdfrwt>
<totfact> 0.41301492E+04</totfact>
</mgrwt>
</event>
<event>
 7    0  0.4748297E-002  0.4554066E+03  0.7546771E-02  0.1026122E+00
         21   -1    0    0  502  501  0.00000000000E+00  0.00000000000E+00  0.27450955133E+03  0.27450955133E+03  0.00000000000E+00 0. -1.
         21   -1    0    0  501  502 -0.00000000000E+00 -0.00000000000E+00 -0.18887790632E+03  0.18887790632E+03  0.00000000000E+00 0. -1.
      99926    2    1    2    0    0  0.14210854715E-13  0.88817841970E-15  0.85631645011E+02  0.46338745764E+03  0.45540658457E+03 0.  0.
      99925    2    3    3    0    0  0.93378360004E+02  0.57340573756E+01  0.11931906522E+03  0.30359150052E+03  0.26301779851E+03 0.  0.
         25    1    4    4    0    0  0.24115506805E+02 -0.18731472017E+02  0.26760497417E+02  0.13151447842E+03  0.12509000000E+03 0.  0.
         25    1    4    4    0    0  0.69262853198E+02  0.24465529393E+02  0.92558567806E+02  0.17207702210E+03  0.12509000000E+03 0.  0.
         25    1    3    3    0    0 -0.93378360004E+02 -0.57340573756E+01 -0.33687420212E+02  0.15979595712E+03  0.12509000000E+03 0.  0.
<mgrwt>
<rscale>  2 0.45540658E+03</rscale>
<asrwt>0</asrwt>
<pdfrwt beam="1">  1       21 0.40369052E-01 0.45540658E+03</pdfrwt>
<pdfrwt beam="2">  1       21 0.27776163E-01 0.45540658E+03</pdfrwt>
<totfact> 0.67710921E+04</totfact>
</mgrwt>
</event>
<event>
 7    0  0.4748297E-002  0.4533695E+03  0.7546771E-02  0.1026722E+00
         21   -1    0    0  502  501  0.00000000000E+00  0.00000000000E+00  0.14692474680E+04  0.14692474680E+04  0.00000000000E+00 0. -1.
         21   -1    0    0  501  502 -0.00000000000E+00 -0.00000000000E+00 -0.34974348562E+02  0.34974348562E+02  0.00000000000E+00 0. -1.
      99926    2    1    2    0    0  0.00000000000E+00  0.00000000000E+00  0.14342731194E+04  0.15042218165E+04  0.45336948759E+03 0.  0.
      99925    2    3    3    0    0  0.17156162898E+02  0.49576094359E+02  0.12314307212E+04  0.12602040515E+04  0.26256524360E+03 0.  0.
         25    1    4    4    0    0 -0.12498750715E+02  0.58894363909E+02  0.62824561750E+03  0.64340098607E+03  0.12509000000E+03 0.  0.
         25    1    4    4    0    0  0.29654913612E+02 -0.93182695508E+01  0.60318510375E+03  0.61680306543E+03  0.12509000000E+03 0.  0.
         25    1    3    3    0    0 -0.17156162898E+02 -0.49576094359E+02  0.20284239817E+03  0.24401776504E+03  0.12509000000E+03 0.  0.
<mgrwt>
<rscale>  2 0.45336949E+03</rscale>
<asrwt>0</asrwt>
<pdfrwt beam="1">  1       21 0.21606576E+00 0.45336949E+03</pdfrwt>
<pdfrwt beam="2">  1       21 0.51432875E-02 0.45336949E+03</pdfrwt>
<totfact> 0.23978082E+04</totfact>
</mgrwt>
</event>
<event>
 7    0  0.4748297E-002  0.4556920E+03  0.7546771E-02  0.1026038E+00
         21   -1    0    0  502  501  0.00000000000E+00  0.00000000000E+00  0.50768356887E+03  0.50768356887E+03  0.00000000000E+00 0.  1.
         21   -1    0    0  501  502 -0.00000000000E+00 -0.00000000000E+00 -0.10225621340E+03  0.10225621340E+03  0.00000000000E+00 0.  1.
      99926    2    1    2    0    0 -0.71054273576E-14  0.00000000000E+00  0.40542735547E+03  0.60993978228E+03  0.45569199844E+03 0.  0.
      99925    2    3    3    0    0 -0.54421295105E+02  0.89754209078E+02  0.31391176491E+03  0.42274975363E+03  0.26298148726E+03 0.  0.
         25    1    4    4    0    0  0.39449102432E+01  0.61839643538E+02  0.12701078470E+03  0.18872983696E+03  0.12509000000E+03 0.  0.
         25    1    4    4    0    0 -0.58366205348E+02  0.27914565540E+02  0.18690098021E+03  0.23401991667E+03  0.12509000000E+03 0.  0.
         25    1    3    3    0    0  0.54421295105E+02 -0.89754209078E+02  0.91515590563E+02  0.18719002865E+03  0.12509000000E+03 0.  0.
<mgrwt>
<rscale>  2 0.45569200E+03</rscale>
<asrwt>0</asrwt>
<pdfrwt beam="1">  1       21 0.74659347E-01 0.45569200E+03</pdfrwt>
<pdfrwt beam="2">  1       21 0.15037679E-01 0.45569200E+03</pdfrwt>
<totfact> 0.57754247E+04</totfact>
</mgrwt>
</event>
<event>
 6    0  0.4748297E-002  0.4558017E+03  0.7546771E-02  0.1026006E+00
         21   -1    0    0  502  501  0.00000000000E+00  0.00000000000E+00  0.61276088426E+03  0.61276088426E+03  0.00000000000E+00 0. -1.
         21   -1    0    0  501  502 -0.00000000000E+00 -0.00000000000E+00 -0.84761922504E+02  0.84761922504E+02  0.00000000000E+00 0. -1.
      99926    2    1    2    0    0  0.00000000000E+00  0.14210854715E-13  0.52799896176E+03  0.69752280677E+03  0.45580166996E+03 0.  0.
         25    1    3    3    0    0 -0.78337409575E+01 -0.68797237521E+02  0.12986471993E+03  0.19314963363E+03  0.12509000000E+03 0.  0.
         25    1    3    3    0    0 -0.18749360305E+02  0.83391075954E+02  0.31934266621E+03  0.35345842276E+03  0.12509000000E+03 0.  0.
         25    1    3    3    0    0  0.26583101263E+02 -0.14593838433E+02  0.78791575621E+02  0.15091475038E+03  0.12509000000E+03 0.  0.
<mgrwt>
<rscale>  2 0.45580167E+03</rscale>
<asrwt>0</asrwt>
<pdfrwt beam="1">  1       21 0.90111893E-01 0.45580167E+03</pdfrwt>
<pdfrwt beam="2">  1       21 0.12464989E-01 0.45580167E+03</pdfrwt>
<totfact> 0.52704348E+04</totfact>
</mgrwt>
</event>
<event>
 7    0  0.4748297E-002  0.4550648E+03  0.7546771E-02  0.1026222E+00
         21   -1    0    0  502  501  0.00000000000E+00  0.00000000000E+00  0.27189475347E+03  0.27189475347E+03  0.00000000000E+00 0.  1.
         21   -1    0    0  501  502 -0.00000000000E+00 -0.00000000000E+00 -0.19040817890E+03  0.19040817890E+03  0.00000000000E+00 0.  1.
      99926    2    1    2    0    0  0.00000000000E+00  0.17763568394E-14  0.81486574572E+02  0.46230293237E+03  0.45506476400E+03 0.  0.
      99925    2    3    3    0    0 -0.67489759783E+02 -0.15738161828E+02  0.14221455329E+03  0.30693899539E+03  0.26302853517E+03 0.  0.
         25    1    3    3    0    0  0.67489759783E+02  0.15738161828E+02 -0.60727978714E+02  0.15536393697E+03  0.12509000000E+03 0.  0.
         25    1    4    4    0    0 -0.54193370664E+02 -0.94358242512E+01  0.11377635578E+03  0.17781598195E+03  0.12509000000E+03 0.  0.
         25    1    4    4    0    0 -0.13296389119E+02 -0.63023375763E+01  0.28438197511E+02  0.12912301344E+03  0.12509000000E+03 0.  0.
<mgrwt>
<rscale>  2 0.45506476E+03</rscale>
<asrwt>0</asrwt>
<pdfrwt beam="1">  1       21 0.39984523E-01 0.45506476E+03</pdfrwt>
<pdfrwt beam="2">  1       21 0.28001203E-01 0.45506476E+03</pdfrwt>
<totfact> 0.67975792E+04</totfact>
</mgrwt>
</event>
<event>
 7    0  0.4748297E-002  0.4667360E+03  0.7546771E-02  0.1022845E+00
         21   -1    0    0  502  501  0.00000000000E+00  0.00000000000E+00  0.30374793074E+04  0.30374793074E+04  0.00000000000E+00 0.  1.
         21   -1    0    0  501  502 -0.00000000000E+00 -0.00000000000E+00 -0.17929548347E+02  0.17929548347E+02  0.00000000000E+00 0.  1.
      99926    2    1    2    0    0  0.00000000000E+00  0.00000000000E+00  0.30195497591E+04  0.30554088558E+04  0.46673603715E+03 0.  0.
      99925    2    3    3    0    0  0.12836763785E+02  0.43600920660E+02  0.11260205745E+04  0.11572081015E+04  0.26294948766E+03 0.  0.
         25    1    4    4    0    0  0.31126113865E+02  0.44561254395E+02  0.68389767096E+03  0.69736509291E+03  0.12509000000E+03 0.  0.
         25    1    4    4    0    0 -0.18289350080E+02 -0.96033373491E+00  0.44212290357E+03  0.45984300857E+03  0.12509000000E+03 0.  0.
         25    1    3    3    0    0 -0.12836763785E+02 -0.43600920660E+02  0.18935291846E+04  0.18982007543E+04  0.12509000000E+03 0.  0.
<mgrwt>
<rscale>  2 0.46673604E+03</rscale>
<asrwt>0</asrwt>
<pdfrwt beam="1">  1       21 0.44668778E+00 0.46673604E+03</pdfrwt>
<pdfrwt beam="2">  1       21 0.26367004E-02 0.46673604E+03</pdfrwt>
<totfact> 0.26960892E+03</totfact>
</mgrwt>
</event>
<event>
 7    0  0.4748297E-002  0.4571421E+03  0.7546771E-02  0.1025613E+00
         21   -1    0    0  502  501  0.00000000000E+00  0.00000000000E+00  0.88791572638E+03  0.88791572638E+03  0.00000000000E+00 0.  1.
         21   -1    0    0  501  502 -0.00000000000E+00 -0.00000000000E+00 -0.58839727786E+02  0.58839727786E+02  0.00000000000E+00 0.  1.
      99926    2    1    2    0    0 -0.35527136788E-14  0.00000000000E+00  0.82907599859E+03  0.94675545416E+03  0.45714207698E+03 0.  0.
      99925    2    3    3    0    0  0.27952101796E+02 -0.10156632545E+03  0.62144145294E+03  0.68245136583E+03  0.26163590892E+03 0.  0.
         25    1    4    4    0    0  0.14315381281E+02 -0.14455251536E+02  0.23894158899E+03  0.27047084037E+03  0.12509000000E+03 0.  0.
         25    1    3    3    0    0 -0.27952101796E+02  0.10156632545E+03  0.20763454565E+03  0.26430408833E+03  0.12509000000E+03 0.  0.
         25    1    4    4    0    0  0.13636720514E+02 -0.87111073914E+02  0.38249986394E+03  0.41198052547E+03  0.12509000000E+03 0.  0.
<mgrwt>
<rscale>  2 0.45714208E+03</rscale>
<asrwt>0</asrwt>
<pdfrwt beam="1">  1       21 0.13057583E+00 0.45714208E+03</pdfrwt>
<pdfrwt beam="2">  1       21 0.86529017E-02 0.45714208E+03</pdfrwt>
<totfact> 0.40588281E+04</totfact>
</mgrwt>
</event>
<event>
 7    0  0.4748297E-002  0.4554843E+03  0.7546771E-02  0.1026099E+00
         21   -1    0    0  502  501  0.00000000000E+00  0.00000000000E+00  0.35111700449E+03  0.35111700449E+03  0.00000000000E+00 0.  1.
         21   -1    0    0  501  502 -0.00000000000E+00 -0.00000000000E+00 -0.14771850140E+03  0.14771850140E+03  0.00000000000E+00 0.  1.
      99926    2    1    2    0    0  0.00000000000E+00  0.13322676296E-14  0.20339850309E+03  0.49883550588E+03  0.45548425974E+03 0.  0.
      99925    2    3    3    0    0 -0.97786552675E+02  0.29449820081E+01  0.64886306012E+02  0.28811289285E+03  0.26311199805E+03 0.  0.
         25    1    4    4    0    0 -0.74033155788E+02 -0.22607063609E+02  0.57813123519E+02  0.15805648621E+03  0.12509000000E+03 0.  0.
         25    1    3    3    0    0  0.97786552675E+02 -0.29449820081E+01  0.13851219708E+03  0.21072261303E+03  0.12509000000E+03 0.  0.
         25    1    4    4    0    0 -0.23753396887E+02  0.25552045617E+02  0.70731824931E+01  0.13005640665E+03  0.12509000000E+03 0.  0.
<mgrwt>
<rscale>  2 0.45548426E+03</rscale>
<asrwt>0</asrwt>
<pdfrwt beam="1">  1       21 0.51634854E-01 0.45548426E+03</pdfrwt>
<pdfrwt beam="2">  1       21 0.21723309E-01 0.45548426E+03</pdfrwt>
<totfact> 0.65101924E+04</totfact>
</mgrwt>
</event>
<event>
 7    0  0.4748297E-002  0.4445616E+03  0.7546771E-02  0.1029356E+00
         21   -1    0    0  502  501  0.00000000000E+00  0.00000000000E+00  0.15353635771E+04  0.15353635771E+04  0.00000000000E+00 0. -1.
         21   -1    0    0  501  502 -0.00000000000E+00 -0.00000000000E+00 -0.32180494636E+02  0.32180494636E+02  0.00000000000E+00 0. -1.
      99926    2    1    2    0    0  0.00000000000E+00  0.00000000000E+00  0.15031830824E+04  0.15675440717E+04  0.44456162387E+03 0.  0.
      99925    2    3    3    0    0 -0.76196040731E+02 -0.64404522125E+02  0.86918323827E+03  0.91366557412E+03  0.26334673069E+03 0.  0.
         25    1    3    3    0    0  0.76196040731E+02  0.64404522125E+02  0.63399984415E+03  0.65387849757E+03  0.12509000000E+03 0.  0.
         25    1    4    4    0    0 -0.51808011645E+02  0.59064390496E+01  0.44727396491E+03  0.46735475164E+03  0.12509000000E+03 0.  0.
         25    1    4    4    0    0 -0.24388029086E+02 -0.70310961175E+02  0.42190927336E+03  0.44631082249E+03  0.12509000000E+03 0.  0.
<mgrwt>
<rscale>  2 0.44456162E+03</rscale>
<asrwt>0</asrwt>
<pdfrwt beam="1">  1       21 0.22578871E+00 0.44456162E+03</pdfrwt>
<pdfrwt beam="2">  1       21 0.47324267E-02 0.44456162E+03</pdfrwt>
<totfact> 0.24063697E+04</totfact>
</mgrwt>
</event>
<event>
 7    0  0.4748297E-002  0.4416420E+03  0.7546771E-02  0.1030244E+00
         21   -1    0    0  502  501  0.00000000000E+00  0.00000000000E+00  0.10315970157E+03  0.10315970157E+03  0.00000000000E+00 0. -1.
         21   -1    0    0  501  502 -0.00000000000E+00 -0.00000000000E+00 -0.47268370708E+03  0.47268370708E+03  0.00000000000E+00 0. -1.
      99926    2    1    2    0    0  0.00000000000E+00  0.00000000000E+00 -0.36952400551E+03  0.57584340865E+03  0.44164198242E+03 0.  0.
      99925    2    3    3    0    0 -0.63788267554E+02  0.76010590308E+02 -0.25209514368E+03  0.37764250399E+03  0.26308809634E+03 0.  0.
         25    1    3    3    0    0  0.63788267554E+02 -0.76010590308E+02 -0.11742886182E+03  0.19820090465E+03  0.12509000000E+03 0.  0.
         25    1    4    4    0    0 -0.32341137669E+01  0.54462876167E+02 -0.92189819005E+02  0.16469102951E+03  0.12509000000E+03 0.  0.
         25    1    4    4    0    0 -0.60554153787E+02  0.21547714141E+02 -0.15990532468E+03  0.21295147449E+03  0.12509000000E+03 0.  0.
<mgrwt>
<rscale>  2 0.44164198E+03</rscale>
<asrwt>0</asrwt>
<pdfrwt beam="1">  1       21 0.15170544E-01 0.44164198E+03</pdfrwt>
<pdfrwt beam="2">  1       21 0.69512310E-01 0.44164198E+03</pdfrwt>
<totfact> 0.66989930E+04</totfact>
</mgrwt>
</event>
<event>
 7    0  0.4748297E-002  0.4534784E+03  0.7546771E-02  0.1026690E+00
         21   -1    0    0  502  501  0.00000000000E+00  0.00000000000E+00  0.10827025696E+03  0.10827025696E+03  0.00000000000E+00 0.  1.
         21   -1    0    0  501  502 -0.00000000000E+00 -0.00000000000E+00 -0.47483646523E+03  0.47483646523E+03  0.00000000000E+00 0.  1.
      99926    2    1    2    0    0  0.00000000000E+00  0.00000000000E+00 -0.36656620827E+03  0.58310672218E+03  0.45347840567E+03 0.  0.
      99925    2    3    3    0    0  0.70456201378E+02  0.50640917250E+02 -0.32145753584E+03  0.42432738083E+03  0.26304030102E+03 0.  0.
         25    1    4    4    0    0  0.58936021404E+02  0.50967475136E+02 -0.20893786386E+03  0.25568276672E+03  0.12509000000E+03 0.  0.
         25    1    4    4    0    0  0.11520179974E+02 -0.32655788653E+00 -0.11251967198E+03  0.16864461411E+03  0.12509000000E+03 0.  0.
         25    1    3    3    0    0 -0.70456201378E+02 -0.50640917250E+02 -0.45108672431E+02  0.15877934135E+03  0.12509000000E+03 0.  0.
<mgrwt>
<rscale>  2 0.45347841E+03</rscale>
<asrwt>0</asrwt>
<pdfrwt beam="1">  1       21 0.15922097E-01 0.45347841E+03</pdfrwt>
<pdfrwt beam="2">  1       21 0.69828892E-01 0.45347841E+03</pdfrwt>
<totfact> 0.60454209E+04</totfact>
</mgrwt>
</event>
<event>
 6    0  0.4748297E-002  0.4490909E+03  0.7546771E-02  0.1027994E+00
         21   -1    0    0  502  501  0.00000000000E+00  0.00000000000E+00  0.57660641806E+02  0.57660641806E+02  0.00000000000E+00 0.  1.
         21   -1    0    0  501  502 -0.00000000000E+00 -0.00000000000E+00 -0.87443792156E+03  0.87443792156E+03  0.00000000000E+00 0.  1.
      99926    2    1    2    0    0 -0.35527136788E-14  0.00000000000E+00 -0.81677727976E+03  0.93209856337E+03  0.44909086732E+03 0.  0.
         25    1    3    3    0    0  0.44631792157E+02  0.18002653711E+02 -0.18287643388E+03  0.22673197961E+03  0.12509000000E+03 0.  0.
         25    1    3    3    0    0 -0.23381383923E+02 -0.67952783049E+02 -0.47271840955E+03  0.49424131016E+03  0.12509000000E+03 0.  0.
         25    1    3    3    0    0 -0.21250408234E+02  0.49950129338E+02 -0.16118243633E+03  0.21112527360E+03  0.12509000000E+03 0.  0.
<mgrwt>
<rscale>  2 0.44909087E+03</rscale>
<asrwt>0</asrwt>
<pdfrwt beam="1">  1       21 0.84795067E-02 0.44909087E+03</pdfrwt>
<pdfrwt beam="2">  1       21 0.12859380E+00 0.44909087E+03</pdfrwt>
<totfact> 0.43866899E+04</totfact>
</mgrwt>
</event>
<event>
 7    0  0.4748297E-002  0.4564198E+03  0.7546771E-02  0.1025825E+00
         21   -1    0    0  502  501  0.00000000000E+00  0.00000000000E+00  0.28716385227E+03  0.28716385227E+03  0.00000000000E+00 0.  1.
         21   -1    0    0  501  502 -0.00000000000E+00 -0.00000000000E+00 -0.18135900804E+03  0.18135900804E+03  0.00000000000E+00 0.  1.
      99926    2    1    2    0    0  0.00000000000E+00  0.00000000000E+00  0.10580484423E+03  0.46852286031E+03  0.45641976904E+03 0.  0.
      99925    2    3    3    0    0 -0.52637904576E+02  0.78442822239E+02  0.11945866172E+00  0.27947013173E+03  0.26301998955E+03 0.  0.
         25    1    4    4    0    0 -0.63156077447E+02  0.23402145328E+02 -0.67500593368E+01  0.14223017235E+03  0.12509000000E+03 0.  0.
         25    1    3    3    0    0  0.52637904576E+02 -0.78442822239E+02  0.10568538557E+03  0.18905272858E+03  0.12509000000E+03 0.  0.
         25    1    4    4    0    0  0.10518172871E+02  0.55040676912E+02  0.68695179985E+01  0.13723995939E+03  0.12509000000E+03 0.  0.
<mgrwt>
<rscale>  2 0.45641977E+03</rscale>
<asrwt>0</asrwt>
<pdfrwt beam="1">  1       21 0.42229978E-01 0.45641977E+03</pdfrwt>
<pdfrwt beam="2">  1       21 0.26670442E-01 0.45641977E+03</pdfrwt>
<totfact> 0.66790574E+04</totfact>
</mgrwt>
</event>
<event>
 7    0  0.4748297E-002  0.4645349E+03  0.7546771E-02  0.1023474E+00
         21   -1    0    0  502  501  0.00000000000E+00  0.00000000000E+00  0.27248615191E+03  0.27248615191E+03  0.00000000000E+00 0.  1.
         21   -1    0    0  501  502 -0.00000000000E+00 -0.00000000000E+00 -0.19798501057E+03  0.19798501057E+03  0.00000000000E+00 0.  1.
      99926    2    1    2    0    0  0.00000000000E+00  0.44408920985E-15  0.74501141344E+02  0.47047116249E+03  0.46453492298E+03 0.  0.
      99925    2    3    3    0    0 -0.11920123634E+03 -0.33477363789E+01  0.21169963962E+02  0.28960694639E+03  0.26306629190E+03 0.  0.
         25    1    4    4    0    0 -0.25174855108E+02  0.15245322932E+02  0.29318801254E+02  0.13180778963E+03  0.12509000000E+03 0.  0.
         25    1    4    4    0    0 -0.94026381234E+02 -0.18593059311E+02 -0.81488372923E+01  0.15779915675E+03  0.12509000000E+03 0.  0.
         25    1    3    3    0    0  0.11920123634E+03  0.33477363789E+01  0.53331177382E+02  0.18086421610E+03  0.12509000000E+03 0.  0.
<mgrwt>
<rscale>  2 0.46453492E+03</rscale>
<asrwt>0</asrwt>
<pdfrwt beam="1">  1       21 0.40071493E-01 0.46453492E+03</pdfrwt>
<pdfrwt beam="2">  1       21 0.29115443E-01 0.46453492E+03</pdfrwt>
<totfact> 0.62530213E+04</totfact>
</mgrwt>
</event>
<event>
 7    0  0.4748297E-002  0.4538770E+03  0.7546771E-02  0.1026572E+00
         21   -1    0    0  502  501  0.00000000000E+00  0.00000000000E+00  0.19475163578E+03  0.19475163578E+03  0.00000000000E+00 0.  1.
         21   -1    0    0  501  502 -0.00000000000E+00 -0.00000000000E+00 -0.26444497637E+03  0.26444497637E+03  0.00000000000E+00 0.  1.
      99926    2    1    2    0    0  0.00000000000E+00 -0.71054273576E-14 -0.69693340590E+02  0.45919661214E+03  0.45387703938E+03 0.  0.
      99925    2    3    3    0    0  0.85298387584E+02  0.47985086924E+02  0.96621349502E+01  0.28164891971E+03  0.26392115040E+03 0.  0.
         25    1    4    4    0    0  0.14223808303E+02 -0.80533791960E+01  0.15725422628E+02  0.12712973946E+03  0.12509000000E+03 0.  0.
         25    1    3    3    0    0 -0.85298387584E+02 -0.47985086924E+02 -0.79355475540E+02  0.17754769244E+03  0.12509000000E+03 0.  0.
         25    1    4    4    0    0  0.71074579282E+02  0.56038466120E+02 -0.60632876779E+01  0.15451918024E+03  0.12509000000E+03 0.  0.
<mgrwt>
<rscale>  2 0.45387704E+03</rscale>
<asrwt>0</asrwt>
<pdfrwt beam="1">  1       21 0.28639947E-01 0.45387704E+03</pdfrwt>
<pdfrwt beam="2">  1       21 0.38888967E-01 0.45387704E+03</pdfrwt>
<totfact> 0.68853681E+04</totfact>
</mgrwt>
</event>
<event>
 7    0  0.4748297E-002  0.4563661E+03  0.7546771E-02  0.1025840E+00
         21   -1    0    0  502  501  0.00000000000E+00  0.00000000000E+00  0.32216437181E+03  0.32216437181E+03  0.00000000000E+00 0. -1.
         21   -1    0    0  501  502 -0.00000000000E+00 -0.00000000000E+00 -0.16161782275E+03  0.16161782275E+03  0.00000000000E+00 0. -1.
      99926    2    1    2    0    0  0.71054273576E-14  0.00000000000E+00  0.16054654906E+03  0.48378219457E+03  0.45636610015E+03 0.  0.
      99925    2    3    3    0    0  0.42062817000E+02 -0.72532314899E+02  0.18344283752E+03  0.33146028083E+03  0.26302932509E+03 0.  0.
         25    1    4    4    0    0  0.25267077897E+02 -0.21793267873E+02  0.44202599489E+02  0.13680186275E+03  0.12509000000E+03 0.  0.
         25    1    3    3    0    0 -0.42062817000E+02  0.72532314899E+02 -0.22896288456E+02  0.15232191373E+03  0.12509000000E+03 0.  0.
         25    1    4    4    0    0  0.16795739103E+02 -0.50739047026E+02  0.13924023803E+03  0.19465841808E+03  0.12509000000E+03 0.  0.
<mgrwt>
<rscale>  2 0.45636610E+03</rscale>
<asrwt>0</asrwt>
<pdfrwt beam="1">  1       21 0.47377113E-01 0.45636610E+03</pdfrwt>
<pdfrwt beam="2">  1       21 0.23767327E-01 0.45636610E+03</pdfrwt>
<totfact> 0.65710329E+04</totfact>
</mgrwt>
</event>
<event>
 7    0  0.4748297E-002  0.4279915E+03  0.7546771E-02  0.1034496E+00
         21   -1    0    0  502  501  0.00000000000E+00  0.00000000000E+00  0.15345015355E+03  0.15345015355E+03  0.00000000000E+00 0.  1.
         21   -1    0    0  501  502 -0.00000000000E+00 -0.00000000000E+00 -0.29843038625E+03  0.29843038625E+03  0.00000000000E+00 0.  1.
      99926    2    1    2    0    0  0.14210854715E-13  0.17763568394E-14 -0.14498023270E+03  0.45188053981E+03  0.42799153541E+03 0.  0.
      99925    2    3    3    0    0 -0.78498941429E+02 -0.14358433443E+02 -0.12589532909E+03  0.30228110778E+03  0.26297525704E+03 0.  0.
         25    1    3    3    0    0  0.78498941429E+02  0.14358433443E+02 -0.19084903607E+02  0.14959943202E+03  0.12509000000E+03 0.  0.
         25    1    4    4    0    0 -0.14036990013E+02  0.16303289698E+02 -0.33873353002E+02  0.13136874243E+03  0.12509000000E+03 0.  0.
         25    1    4    4    0    0 -0.64461951416E+02 -0.30661723142E+02 -0.92021976092E+02  0.17091236535E+03  0.12509000000E+03 0.  0.
<mgrwt>
<rscale>  2 0.42799154E+03</rscale>
<asrwt>0</asrwt>
<pdfrwt beam="1">  1       21 0.22566199E-01 0.42799154E+03</pdfrwt>
<pdfrwt beam="2">  1       21 0.43886821E-01 0.42799154E+03</pdfrwt>
<totfact> 0.85763751E+04</totfact>
</mgrwt>
</event>
<event>
 7    0  0.4748297E-002  0.4521279E+03  0.7546771E-02  0.1027089E+00
         21   -1    0    0  502  501  0.00000000000E+00  0.00000000000E+00  0.33859555629E+03  0.33859555629E+03  0.00000000000E+00 0.  1.
         21   -1    0    0  501  502 -0.00000000000E+00 -0.00000000000E+00 -0.15093201955E+03  0.15093201955E+03  0.00000000000E+00 0.  1.
      99926    2    1    2    0    0  0.14210854715E-13  0.71054273576E-14  0.18766353674E+03  0.48952757585E+03  0.45212790722E+03 0.  0.
      99925    2    3    3    0    0 -0.10460926481E+03 -0.34666448334E+02  0.12174170917E+03  0.31025667364E+03  0.26323620356E+03 0.  0.
         25    1    4    4    0    0 -0.55365343015E+02 -0.51262300823E+02  0.37779159186E+02  0.15089041607E+03  0.12509000000E+03 0.  0.
         25    1    4    4    0    0 -0.49243921798E+02  0.16595852488E+02  0.83962549981E+02  0.15936625757E+03  0.12509000000E+03 0.  0.
         25    1    3    3    0    0  0.10460926481E+03  0.34666448334E+02  0.65921827578E+02  0.17927090220E+03  0.12509000000E+03 0.  0.
<mgrwt>
<rscale>  2 0.45212791E+03</rscale>
<asrwt>0</asrwt>
<pdfrwt beam="1">  1       21 0.49793464E-01 0.45212791E+03</pdfrwt>
<pdfrwt beam="2">  1       21 0.22195885E-01 0.45212791E+03</pdfrwt>
<totfact> 0.67539689E+04</totfact>
</mgrwt>
</event>
<event>
 7    0  0.4748297E-002  0.4493205E+03  0.7546771E-02  0.1027925E+00
         21   -1    0    0  502  501  0.00000000000E+00  0.00000000000E+00  0.59591375018E+02  0.59591375018E+02  0.00000000000E+00 0.  1.
         21   -1    0    0  501  502 -0.00000000000E+00 -0.00000000000E+00 -0.84697220146E+03  0.84697220146E+03  0.00000000000E+00 0.  1.
      99926    2    1    2    0    0 -0.35527136788E-14  0.00000000000E+00 -0.78738082644E+03  0.90656357648E+03  0.44932054521E+03 0.  0.
      99925    2    3    3    0    0 -0.27268906943E+02  0.36703248690E+02 -0.30139292836E+03  0.40265637576E+03  0.26306603340E+03 0.  0.
         25    1    3    3    0    0  0.27268906943E+02 -0.36703248690E+02 -0.48598789808E+03  0.50390720072E+03  0.12509000000E+03 0.  0.
         25    1    4    4    0    0 -0.54070798921E+02  0.14203313594E+02 -0.16031407407E+03  0.21088740090E+03  0.12509000000E+03 0.  0.
         25    1    4    4    0    0  0.26801891977E+02  0.22499935097E+02 -0.14107885428E+03  0.19176897486E+03  0.12509000000E+03 0.  0.
<mgrwt>
<rscale>  2 0.44932055E+03</rscale>
<asrwt>0</asrwt>
<pdfrwt beam="1">  1       21 0.87634379E-02 0.44932055E+03</pdfrwt>
<pdfrwt beam="2">  1       21 0.12455473E+00 0.44932055E+03</pdfrwt>
<totfact> 0.44914405E+04</totfact>
</mgrwt>
</event>
<event>
 7    0  0.4748297E-002  0.4496140E+03  0.7546771E-02  0.1027837E+00
         21   -1    0    0  502  501  0.00000000000E+00  0.00000000000E+00  0.21575615278E+02  0.21575615278E+02  0.00000000000E+00 0. -1.
         21   -1    0    0  501  502 -0.00000000000E+00 -0.00000000000E+00 -0.23423747994E+04  0.23423747994E+04  0.00000000000E+00 0. -1.
      99926    2    1    2    0    0  0.00000000000E+00  0.00000000000E+00 -0.23207991841E+04  0.23639504147E+04  0.44961395668E+03 0.  0.
      99925    2    3    3    0    0  0.89329699791E+02  0.55593260801E+02 -0.13327685915E+04  0.13624902977E+04  0.26274947542E+03 0.  0.
         25    1    3    3    0    0 -0.89329699791E+02 -0.55593260801E+02 -0.98803059261E+03  0.10014601170E+04  0.12509000000E+03 0.  0.
         25    1    4    4    0    0  0.70244603225E+02  0.51049145461E+02 -0.61031435528E+03  0.62902419659E+03  0.12509000000E+03 0.  0.
         25    1    4    4    0    0  0.19085096566E+02  0.45441153400E+01 -0.72245423623E+03  0.73346610109E+03  0.12509000000E+03 0.  0.
<mgrwt>
<rscale>  2 0.44961396E+03</rscale>
<asrwt>0</asrwt>
<pdfrwt beam="1">  1       21 0.31728836E-02 0.44961396E+03</pdfrwt>
<pdfrwt beam="2">  1       21 0.34446699E+00 0.44961396E+03</pdfrwt>
<totfact> 0.89965696E+03</totfact>
</mgrwt>
</event>
<event>
 7    0  0.4748297E-002  0.4541489E+03  0.7546771E-02  0.1026492E+00
         21   -1    0    0  502  501  0.00000000000E+00  0.00000000000E+00  0.17714736489E+03  0.17714736489E+03  0.00000000000E+00 0.  1.
         21   -1    0    0  501  502 -0.00000000000E+00 -0.00000000000E+00 -0.29107295217E+03  0.29107295217E+03  0.00000000000E+00 0.  1.
      99926    2    1    2    0    0  0.00000000000E+00 -0.35527136788E-14 -0.11392558728E+03  0.46822031706E+03  0.45414890276E+03 0.  0.
      99925    2    3    3    0    0  0.33589966253E+02 -0.24307118914E+02  0.35975731323E+02  0.26862814467E+03  0.26295951209E+03 0.  0.
         25    1    4    4    0    0  0.94607512156E+01 -0.41101991333E+02  0.45865521061E+02  0.13974989670E+03  0.12509000000E+03 0.  0.
         25    1    3    3    0    0 -0.33589966253E+02  0.24307118914E+02 -0.14990131861E+03  0.19959217240E+03  0.12509000000E+03 0.  0.
         25    1    4    4    0    0  0.24129215037E+02  0.16794872419E+02 -0.98897897378E+01  0.12887824797E+03  0.12509000000E+03 0.  0.
<mgrwt>
<rscale>  2 0.45414890E+03</rscale>
<asrwt>0</asrwt>
<pdfrwt beam="1">  1       21 0.26051083E-01 0.45414890E+03</pdfrwt>
<pdfrwt beam="2">  1       21 0.42804845E-01 0.45414890E+03</pdfrwt>
<totfact> 0.68026471E+04</totfact>
</mgrwt>
</event>
<event>
 7    0  0.4748297E-002  0.4525488E+03  0.7546771E-02  0.1026965E+00
         21   -1    0    0  502  501  0.00000000000E+00  0.00000000000E+00  0.35926840142E+03  0.35926840142E+03  0.00000000000E+00 0. -1.
         21   -1    0    0  501  502 -0.00000000000E+00 -0.00000000000E+00 -0.14251210452E+03  0.14251210452E+03  0.00000000000E+00 0. -1.
      99926    2    1    2    0    0  0.00000000000E+00  0.00000000000E+00  0.21675629690E+03  0.50178050594E+03  0.45254876411E+03 0.  0.
      99925    2    3    3    0    0 -0.78989334061E+02  0.65540223113E+02  0.90274869543E+02  0.29640305998E+03  0.26300263526E+03 0.  0.
         25    1    4    4    0    0 -0.50216423416E+02  0.15535487752E+02  0.81699333217E+02  0.15838348938E+03  0.12509000000E+03 0.  0.
         25    1    4    4    0    0 -0.28772910645E+02  0.50004735362E+02  0.85755363260E+01  0.13801957060E+03  0.12509000000E+03 0.  0.
         25    1    3    3    0    0  0.78989334061E+02 -0.65540223113E+02  0.12648142735E+03  0.20537744595E+03  0.12509000000E+03 0.  0.
<mgrwt>
<rscale>  2 0.45254876E+03</rscale>
<asrwt>0</asrwt>
<pdfrwt beam="1">  1       21 0.52833588E-01 0.45254876E+03</pdfrwt>
<pdfrwt beam="2">  1       21 0.20957663E-01 0.45254876E+03</pdfrwt>
<totfact> 0.66428879E+04</totfact>
</mgrwt>
</event>
<event>
 7    0  0.4748297E-002  0.4371518E+03  0.7546771E-02  0.1031624E+00
         21   -1    0    0  502  501  0.00000000000E+00  0.00000000000E+00  0.37086545563E+03  0.37086545563E+03  0.00000000000E+00 0. -1.
         21   -1    0    0  501  502 -0.00000000000E+00 -0.00000000000E+00 -0.12882147092E+03  0.12882147092E+03  0.00000000000E+00 0. -1.
      99926    2    1    2    0    0  0.00000000000E+00 -0.17763568394E-14  0.24204398471E+03  0.49968692656E+03  0.43715184323E+03 0.  0.
      99925    2    3    3    0    0  0.94949352042E+02 -0.89141138070E+01  0.15149168519E+03  0.31818742814E+03  0.26305639674E+03 0.  0.
         25    1    4    4    0    0  0.33002279170E+02 -0.42614417372E+02  0.73043829959E+02  0.15455758860E+03  0.12509000000E+03 0.  0.
         25    1    3    3    0    0 -0.94949352042E+02  0.89141138070E+01  0.90552299515E+02  0.18149949842E+03  0.12509000000E+03 0.  0.
         25    1    4    4    0    0  0.61947072872E+02  0.33700303565E+02  0.78447855236E+02  0.16362983954E+03  0.12509000000E+03 0.  0.
<mgrwt>
<rscale>  2 0.43715184E+03</rscale>
<asrwt>0</asrwt>
<pdfrwt beam="1">  1       21 0.54539037E-01 0.43715184E+03</pdfrwt>
<pdfrwt beam="2">  1       21 0.18944334E-01 0.43715184E+03</pdfrwt>
<totfact> 0.75423102E+04</totfact>
</mgrwt>
</event>
<event>
 7    0  0.4748297E-002  0.4577642E+03  0.7546771E-02  0.1025432E+00
         21   -1    0    0  502  501  0.00000000000E+00  0.00000000000E+00  0.29122013615E+02  0.29122013615E+02  0.00000000000E+00 0. -1.
         21   -1    0    0  501  502 -0.00000000000E+00 -0.00000000000E+00 -0.17988804930E+04  0.17988804930E+04  0.00000000000E+00 0. -1.
      99926    2    1    2    0    0  0.71054273576E-14  0.00000000000E+00 -0.17697584794E+04  0.18280025066E+04  0.45776422844E+03 0.  0.
      99925    2    3    3    0    0  0.57076495429E+02  0.52776930032E+02 -0.76798885809E+03  0.81546459971E+03  0.26293059265E+03 0.  0.
         25    1    4    4    0    0 -0.44422137620E+01  0.44534508538E+02 -0.32944188600E+03  0.35522178996E+03  0.12509000000E+03 0.  0.
         25    1    4    4    0    0  0.61518709191E+02  0.82424214941E+01 -0.43854697210E+03  0.46024280975E+03  0.12509000000E+03 0.  0.
         25    1    3    3    0    0 -0.57076495429E+02 -0.52776930032E+02 -0.10017696213E+04  0.10125379069E+04  0.12509000000E+03 0.  0.
<mgrwt>
<rscale>  2 0.45776423E+03</rscale>
<asrwt>0</asrwt>
<pdfrwt beam="1">  1       21 0.42826490E-02 0.45776423E+03</pdfrwt>
<pdfrwt beam="2">  1       21 0.26454125E+00 0.45776423E+03</pdfrwt>
<totfact> 0.16373389E+04</totfact>
</mgrwt>
</event>
<event>
 7    0  0.4748297E-002  0.4532820E+03  0.7546771E-02  0.1026748E+00
         21   -1    0    0  502  501  0.00000000000E+00  0.00000000000E+00  0.24071376830E+04  0.24071376830E+04  0.00000000000E+00 0. -1.
         21   -1    0    0  501  502 -0.00000000000E+00 -0.00000000000E+00 -0.21339094128E+02  0.21339094128E+02  0.00000000000E+00 0. -1.
      99926    2    1    2    0    0 -0.35527136788E-14 -0.14210854715E-13  0.23857985889E+04  0.24284767771E+04  0.45328197669E+03 0.  0.
      99925    2    3    3    0    0  0.18769644858E+02  0.81550262643E+02  0.18966388323E+04  0.19166882266E+04  0.26353776369E+03 0.  0.
         25    1    4    4    0    0 -0.70500141005E+01  0.49848363453E+02  0.12151761800E+04  0.12226345401E+04  0.12509000000E+03 0.  0.
         25    1    4    4    0    0  0.25819658958E+02  0.31701899190E+02  0.68146265225E+03  0.69405368648E+03  0.12509000000E+03 0.  0.
         25    1    3    3    0    0 -0.18769644858E+02 -0.81550262643E+02  0.48915975662E+03  0.51178855057E+03  0.12509000000E+03 0.  0.
<mgrwt>
<rscale>  2 0.45328198E+03</rscale>
<asrwt>0</asrwt>
<pdfrwt beam="1">  1       21 0.35399065E+00 0.45328198E+03</pdfrwt>
<pdfrwt beam="2">  1       21 0.31381037E-02 0.45328198E+03</pdfrwt>
<totfact> 0.79978146E+03</totfact>
</mgrwt>
</event>
<event>
 7    0  0.4748297E-002  0.4480161E+03  0.7546771E-02  0.1028315E+00
         21   -1    0    0  502  501  0.00000000000E+00  0.00000000000E+00  0.18879531395E+03  0.18879531395E+03  0.00000000000E+00 0.  1.
         21   -1    0    0  501  502 -0.00000000000E+00 -0.00000000000E+00 -0.26578845181E+03  0.26578845181E+03  0.00000000000E+00 0.  1.
      99926    2    1    2    0    0 -0.71054273576E-14  0.00000000000E+00 -0.76993137862E+02  0.45458376576E+03  0.44801613455E+03 0.  0.
      99925    2    3    3    0    0  0.39820914628E+02 -0.74651015703E+02  0.16578561738E+02  0.27692777669E+03  0.26316471155E+03 0.  0.
         25    1    4    4    0    0  0.21464622168E+02 -0.20513071205E+02 -0.29452933034E+02  0.13189579015E+03  0.12509000000E+03 0.  0.
         25    1    3    3    0    0 -0.39820914628E+02  0.74651015703E+02 -0.93571699600E+02  0.17765598907E+03  0.12509000000E+03 0.  0.
         25    1    4    4    0    0  0.18356292460E+02 -0.54137944498E+02  0.46031494772E+02  0.14503198653E+03  0.12509000000E+03 0.  0.
<mgrwt>
<rscale>  2 0.44801613E+03</rscale>
<asrwt>0</asrwt>
<pdfrwt beam="1">  1       21 0.27764017E-01 0.44801613E+03</pdfrwt>
<pdfrwt beam="2">  1       21 0.39086537E-01 0.44801613E+03</pdfrwt>
<totfact> 0.72533099E+04</totfact>
</mgrwt>
</event>
<event>
 7    0  0.4748297E-002  0.4402686E+03  0.7546771E-02  0.1030664E+00
         21   -1    0    0  502  501  0.00000000000E+00  0.00000000000E+00  0.38049921144E+03  0.38049921144E+03  0.00000000000E+00 0. -1.
         21   -1    0    0  501  502 -0.00000000000E+00 -0.00000000000E+00 -0.12735665933E+03  0.12735665933E+03  0.00000000000E+00 0. -1.
      99926    2    1    2    0    0  0.00000000000E+00 -0.14210854715E-13  0.25314255211E+03  0.50785587077E+03  0.44026859278E+03 0.  0.
      99925    2    3    3    0    0 -0.11078424345E+02 -0.94321653769E+02  0.12991758350E+03  0.30822820023E+03  0.26288160655E+03 0.  0.
         25    1    3    3    0    0  0.11078424345E+02  0.94321653769E+02  0.12322496861E+03  0.19962767054E+03  0.12509000000E+03 0.  0.
         25    1    4    4    0    0 -0.15148360014E+02 -0.58685675144E+02  0.25356003025E+02  0.14129372338E+03  0.12509000000E+03 0.  0.
         25    1    4    4    0    0  0.40699356687E+01 -0.35635978625E+02  0.10456158048E+03  0.16693447685E+03  0.12509000000E+03 0.  0.
<mgrwt>
<rscale>  2 0.44026859E+03</rscale>
<asrwt>0</asrwt>
<pdfrwt beam="1">  1       21 0.55955766E-01 0.44026859E+03</pdfrwt>
<pdfrwt beam="2">  1       21 0.18728921E-01 0.44026859E+03</pdfrwt>
<totfact> 0.72875082E+04</totfact>
</mgrwt>
</event>
<event>
 7    0  0.4748297E-002  0.4359315E+03  0.7546771E-02  0.1032002E+00
         21   -1    0    0  502  501  0.00000000000E+00  0.00000000000E+00  0.27803533290E+03  0.27803533290E+03  0.00000000000E+00 0. -1.
         21   -1    0    0  501  502 -0.00000000000E+00 -0.00000000000E+00 -0.17087422598E+03  0.17087422598E+03  0.00000000000E+00 0. -1.
      99926    2    1    2    0    0  0.00000000000E+00 -0.44408920985E-15  0.10716110692E+03  0.44890955888E+03  0.43593151896E+03 0.  0.
      99925    2    3    3    0    0  0.73574260255E+02 -0.20320223643E+01  0.12919111979E+03  0.30210993199E+03  0.26298814553E+03 0.  0.
         25    1    4    4    0    0  0.46693404529E+02  0.37399568852E+02  0.75301427315E+02  0.15778724547E+03  0.12509000000E+03 0.  0.
         25    1    4    4    0    0  0.26880855726E+02 -0.39431591216E+02  0.53889692479E+02  0.14432268653E+03  0.12509000000E+03 0.  0.
         25    1    3    3    0    0 -0.73574260255E+02  0.20320223643E+01 -0.22030012878E+02  0.14679962689E+03  0.12509000000E+03 0.  0.
<mgrwt>
<rscale>  2 0.43593152E+03</rscale>
<asrwt>0</asrwt>
<pdfrwt beam="1">  1       21 0.40887549E-01 0.43593152E+03</pdfrwt>
<pdfrwt beam="2">  1       21 0.25128563E-01 0.43593152E+03</pdfrwt>
<totfact> 0.80547469E+04</totfact>
</mgrwt>
</event>
<event>
 7    0  0.4748297E-002  0.4577199E+03  0.7546771E-02  0.1025445E+00
         21   -1    0    0  502  501  0.00000000000E+00  0.00000000000E+00  0.11306781976E+03  0.11306781976E+03  0.00000000000E+00 0.  1.
         21   -1    0    0  501  502 -0.00000000000E+00 -0.00000000000E+00 -0.46323412224E+03  0.46323412224E+03  0.00000000000E+00 0.  1.
      99926    2    1    2    0    0  0.00000000000E+00  0.00000000000E+00 -0.35016630248E+03  0.57630194200E+03  0.45771988045E+03 0.  0.
      99925    2    3    3    0    0  0.31514459474E+02  0.63413362257E+02 -0.10511927125E+03  0.29220693802E+03  0.26328770911E+03 0.  0.
         25    1    3    3    0    0 -0.31514459474E+02 -0.63413362257E+02 -0.24504703123E+03  0.28409500398E+03  0.12509000000E+03 0.  0.
         25    1    4    4    0    0  0.26052760918E+02  0.19297306676E+02 -0.11441044146E+02  0.12972870919E+03  0.12509000000E+03 0.  0.
         25    1    4    4    0    0  0.54616985556E+01  0.44116055581E+02 -0.93678227105E+02  0.16247822883E+03  0.12509000000E+03 0.  0.
<mgrwt>
<rscale>  2 0.45771988E+03</rscale>
<asrwt>0</asrwt>
<pdfrwt beam="1">  1       21 0.16627621E-01 0.45771988E+03</pdfrwt>
<pdfrwt beam="2">  1       21 0.68122663E-01 0.45771988E+03</pdfrwt>
<totfact> 0.58884620E+04</totfact>
</mgrwt>
</event>
<event>
 7    0  0.4748297E-002  0.4522339E+03  0.7546771E-02  0.1027058E+00
         21   -1    0    0  502  501  0.00000000000E+00  0.00000000000E+00  0.17588532033E+03  0.17588532033E+03  0.00000000000E+00 0. -1.
         21   -1    0    0  501  502 -0.00000000000E+00 -0.00000000000E+00 -0.29069441059E+03  0.29069441059E+03  0.00000000000E+00 0. -1.
      99926    2    1    2    0    0  0.26645352591E-14  0.00000000000E+00 -0.11480909026E+03  0.46657973092E+03  0.45223391967E+03 0.  0.
      99925    2    3    3    0    0 -0.62160039257E+01 -0.10981632922E+03 -0.61411776746E+02  0.29165961756E+03  0.26305068204E+03 0.  0.
         25    1    4    4    0    0  0.35492972903E+02 -0.42116764701E+02 -0.35161198077E+02  0.14112898690E+03  0.12509000000E+03 0.  0.
         25    1    4    4    0    0 -0.41708976829E+02 -0.67699564520E+02 -0.26250578669E+02  0.15053063065E+03  0.12509000000E+03 0.  0.
         25    1    3    3    0    0  0.62160039257E+01  0.10981632922E+03 -0.53397313519E+02  0.17492011336E+03  0.12509000000E+03 0.  0.
<mgrwt>
<rscale>  2 0.45223392E+03</rscale>
<asrwt>0</asrwt>
<pdfrwt beam="1">  1       21 0.25865489E-01 0.45223392E+03</pdfrwt>
<pdfrwt beam="2">  1       21 0.42749177E-01 0.45223392E+03</pdfrwt>
<totfact> 0.69196909E+04</totfact>
</mgrwt>
</event>
<event>
 7    0  0.4748297E-002  0.4565488E+03  0.7546771E-02  0.1025787E+00
         21   -1    0    0  502  501  0.00000000000E+00  0.00000000000E+00  0.51153426832E+03  0.51153426832E+03  0.00000000000E+00 0. -1.
         21   -1    0    0  501  502 -0.00000000000E+00 -0.00000000000E+00 -0.10186845984E+03  0.10186845984E+03  0.00000000000E+00 0. -1.
      99926    2    1    2    0    0  0.00000000000E+00  0.35527136788E-14  0.40966580848E+03  0.61340272817E+03  0.45654882793E+03 0.  0.
      99925    2    3    3    0    0  0.51321128467E+02  0.26666539164E+02  0.39035792123E+03  0.47424359211E+03  0.26302607371E+03 0.  0.
         25    1    4    4    0    0  0.47938562783E+02  0.19223585380E+02  0.26164742482E+03  0.29457517725E+03  0.12509000000E+03 0.  0.
         25    1    3    3    0    0 -0.51321128467E+02 -0.26666539164E+02  0.19307887244E+02  0.13915913606E+03  0.12509000000E+03 0.  0.
         25    1    4    4    0    0  0.33825656838E+01  0.74429537840E+01  0.12871049642E+03  0.17966841486E+03  0.12509000000E+03 0.  0.
<mgrwt>
<rscale>  2 0.45654883E+03</rscale>
<asrwt>0</asrwt>
<pdfrwt beam="1">  1       21 0.75225627E-01 0.45654883E+03</pdfrwt>
<pdfrwt beam="2">  1       21 0.14980656E-01 0.45654883E+03</pdfrwt>
<totfact> 0.57158359E+04</totfact>
</mgrwt>
</event>
<event>
 7    0  0.4748297E-002  0.4453942E+03  0.7546771E-02  0.1029104E+00
         21   -1    0    0  502  501  0.00000000000E+00  0.00000000000E+00  0.49486118623E+02  0.49486118623E+02  0.00000000000E+00 0.  1.
         21   -1    0    0  501  502 -0.00000000000E+00 -0.00000000000E+00 -0.10021800046E+04  0.10021800046E+04  0.00000000000E+00 0.  1.
      99926    2    1    2    0    0  0.00000000000E+00  0.00000000000E+00 -0.95269388602E+03  0.10516661233E+04  0.44539420109E+03 0.  0.
      99925    2    3    3    0    0  0.25721910309E+02 -0.10055319318E+03 -0.59134998644E+03  0.65544713938E+03  0.26295167756E+03 0.  0.
         25    1    4    4    0    0 -0.47004917274E+01 -0.14547975136E+02 -0.30299896695E+03  0.32816096702E+03  0.12509000000E+03 0.  0.
         25    1    4    4    0    0  0.30422402036E+02 -0.86005218041E+02 -0.28835101949E+03  0.32728617236E+03  0.12509000000E+03 0.  0.
         25    1    3    3    0    0 -0.25721910309E+02  0.10055319318E+03 -0.36134389958E+03  0.39621898389E+03  0.12509000000E+03 0.  0.
<mgrwt>
<rscale>  2 0.44539420E+03</rscale>
<asrwt>0</asrwt>
<pdfrwt beam="1">  1       21 0.72773711E-02 0.44539420E+03</pdfrwt>
<pdfrwt beam="2">  1       21 0.14737940E+00 0.44539420E+03</pdfrwt>
<totfact> 0.40142549E+04</totfact>
</mgrwt>
</event>
<event>
 7    0  0.4748297E-002  0.4548034E+03  0.7546771E-02  0.1026299E+00
         21   -1    0    0  502  501  0.00000000000E+00  0.00000000000E+00  0.46115624289E+03  0.46115624289E+03  0.00000000000E+00 0. -1.
         21   -1    0    0  501  502 -0.00000000000E+00 -0.00000000000E+00 -0.11213453341E+03  0.11213453341E+03  0.00000000000E+00 0. -1.
      99926    2    1    2    0    0  0.35527136788E-14  0.00000000000E+00  0.34902170948E+03  0.57329077630E+03  0.45480343062E+03 0.  0.
      99925    2    3    3    0    0  0.31824519444E+02 -0.12604125849E+02  0.35534020757E+03  0.44344819644E+03  0.26307408802E+03 0.  0.
         25    1    4    4    0    0  0.84381878238E+01  0.13499067382E+02  0.23335201195E+03  0.26524346819E+03  0.12509000000E+03 0.  0.
         25    1    3    3    0    0 -0.31824519444E+02  0.12604125849E+02 -0.63184980846E+01  0.12984257986E+03  0.12509000000E+03 0.  0.
         25    1    4    4    0    0  0.23386331620E+02 -0.26103193231E+02  0.12198819561E+03  0.17820472826E+03  0.12509000000E+03 0.  0.
<mgrwt>
<rscale>  2 0.45480343E+03</rscale>
<asrwt>0</asrwt>
<pdfrwt beam="1">  1       21 0.67817094E-01 0.45480343E+03</pdfrwt>
<pdfrwt beam="2">  1       21 0.16490373E-01 0.45480343E+03</pdfrwt>
<totfact> 0.60447064E+04</totfact>
</mgrwt>
</event>
<event>
 7    0  0.4748297E-002  0.4529317E+03  0.7546771E-02  0.1026851E+00
         21   -1    0    0  502  501  0.00000000000E+00  0.00000000000E+00  0.27975737243E+03  0.27975737243E+03  0.00000000000E+00 0. -1.
         21   -1    0    0  501  502 -0.00000000000E+00 -0.00000000000E+00 -0.18332593511E+03  0.18332593511E+03  0.00000000000E+00 0. -1.
      99926    2    1    2    0    0  0.00000000000E+00  0.71054273576E-14  0.96431437323E+02  0.46308330754E+03  0.45293170304E+03 0.  0.
      99925    2    3    3    0    0 -0.43443372284E+02  0.56260434547E+02  0.14828933823E+03  0.31014765742E+03  0.26296250395E+03 0.  0.
         25    1    4    4    0    0 -0.42386878739E+02 -0.64619840708E+01  0.65714865965E+02  0.14766298262E+03  0.12509000000E+03 0.  0.
         25    1    4    4    0    0 -0.10564935449E+01  0.62722418618E+02  0.82574472268E+02  0.16248467480E+03  0.12509000000E+03 0.  0.
         25    1    3    3    0    0  0.43443372284E+02 -0.56260434547E+02 -0.51857900911E+02  0.15293565012E+03  0.12509000000E+03 0.  0.
<mgrwt>
<rscale>  2 0.45293170E+03</rscale>
<asrwt>0</asrwt>
<pdfrwt beam="1">  1       21 0.41140790E-01 0.45293170E+03</pdfrwt>
<pdfrwt beam="2">  1       21 0.26959696E-01 0.45293170E+03</pdfrwt>
<totfact> 0.69080647E+04</totfact>
</mgrwt>
</event>
<event>
 7    0  0.4748297E-002  0.4567162E+03  0.7546771E-02  0.1025738E+00
         21   -1    0    0  502  501  0.00000000000E+00  0.00000000000E+00  0.61115977126E+02  0.61115977126E+02  0.00000000000E+00 0. -1.
         21   -1    0    0  501  502 -0.00000000000E+00 -0.00000000000E+00 -0.85325367239E+03  0.85325367239E+03  0.00000000000E+00 0. -1.
      99926    2    1    2    0    0  0.00000000000E+00  0.00000000000E+00 -0.79213769527E+03  0.91436964952E+03  0.45671624418E+03 0.  0.
      99925    2    3    3    0    0  0.15880175748E+02 -0.10395409154E+03 -0.58982316864E+03  0.65429791150E+03  0.26297481553E+03 0.  0.
         25    1    4    4    0    0 -0.15766499771E+02 -0.26471573608E+02 -0.21880484290E+03  0.25391414710E+03  0.12509000000E+03 0.  0.
         25    1    3    3    0    0 -0.15880175748E+02  0.10395409154E+03 -0.20231452663E+03  0.26007173801E+03  0.12509000000E+03 0.  0.
         25    1    4    4    0    0  0.31646675519E+02 -0.77482517935E+02 -0.37101832575E+03  0.40038376440E+03  0.12509000000E+03 0.  0.
<mgrwt>
<rscale>  2 0.45671624E+03</rscale>
<asrwt>0</asrwt>
<pdfrwt beam="1">  1       21 0.89876446E-02 0.45671624E+03</pdfrwt>
<pdfrwt beam="2">  1       21 0.12547847E+00 0.45671624E+03</pdfrwt>
<totfact> 0.42050534E+04</totfact>
</mgrwt>
</event>
<event>
 7    0  0.4748297E-002  0.4439825E+03  0.7546771E-02  0.1029532E+00
         21   -1    0    0  502  501  0.00000000000E+00  0.00000000000E+00  0.58998594711E+03  0.58998594711E+03  0.00000000000E+00 0. -1.
         21   -1    0    0  501  502 -0.00000000000E+00 -0.00000000000E+00 -0.83527612194E+02  0.83527612194E+02  0.00000000000E+00 0. -1.
      99926    2    1    2    0    0 -0.35527136788E-14  0.71054273576E-14  0.50645833492E+03  0.67351355931E+03  0.44398251042E+03 0.  0.
      99925    2    3    3    0    0  0.14255354387E+02  0.54529425056E+02  0.45185080540E+03  0.52584445724E+03  0.26299537932E+03 0.  0.
         25    1    3    3    0    0 -0.14255354387E+02 -0.54529425056E+02  0.54607529519E+02  0.14766910207E+03  0.12509000000E+03 0.  0.
         25    1    4    4    0    0 -0.30248815557E+02  0.25308938007E+02  0.19108367975E+03  0.23176715460E+03  0.12509000000E+03 0.  0.
         25    1    4    4    0    0  0.44504169945E+02  0.29220487049E+02  0.26076712565E+03  0.29407730264E+03  0.12509000000E+03 0.  0.
<mgrwt>
<rscale>  2 0.44398251E+03</rscale>
<asrwt>0</asrwt>
<pdfrwt beam="1">  1       21 0.86762637E-01 0.44398251E+03</pdfrwt>
<pdfrwt beam="2">  1       21 0.12283473E-01 0.44398251E+03</pdfrwt>
<totfact> 0.59349893E+04</totfact>
</mgrwt>
</event>
<event>
 7    0  0.4748297E-002  0.4458022E+03  0.7546771E-02  0.1028981E+00
         21   -1    0    0  502  501  0.00000000000E+00  0.00000000000E+00  0.63433409153E+03  0.63433409153E+03  0.00000000000E+00 0. -1.
         21   -1    0    0  501  502 -0.00000000000E+00 -0.00000000000E+00 -0.78326081417E+02  0.78326081417E+02  0.00000000000E+00 0. -1.
      99926    2    1    2    0    0 -0.14210854715E-13  0.35527136788E-14  0.55600801012E+03  0.71266017295E+03  0.44580221489E+03 0.  0.
      99925    2    3    3    0    0  0.86730171063E+02 -0.24321125454E+02  0.43663085124E+03  0.51769337096E+03  0.26314689124E+03 0.  0.
         25    1    3    3    0    0 -0.86730171063E+02  0.24321125454E+02  0.11937715888E+03  0.19496680199E+03  0.12509000000E+03 0.  0.
         25    1    4    4    0    0  0.13406711395E+02 -0.20871796482E+02  0.15338912968E+03  0.19947707889E+03  0.12509000000E+03 0.  0.
         25    1    4    4    0    0  0.73323459669E+02 -0.34493289712E+01  0.28324172156E+03  0.31821629207E+03  0.12509000000E+03 0.  0.
<mgrwt>
<rscale>  2 0.44580221E+03</rscale>
<asrwt>0</asrwt>
<pdfrwt beam="1">  1       21 0.93284423E-01 0.44580221E+03</pdfrwt>
<pdfrwt beam="2">  1       21 0.11518542E-01 0.44580221E+03</pdfrwt>
<totfact> 0.56176871E+04</totfact>
</mgrwt>
</event>
<event>
 7    0  0.4748297E-002  0.4546361E+03  0.7546771E-02  0.1026348E+00
         21   -1    0    0  502  501  0.00000000000E+00  0.00000000000E+00  0.36755683482E+03  0.36755683482E+03  0.00000000000E+00 0.  1.
         21   -1    0    0  501  502 -0.00000000000E+00 -0.00000000000E+00 -0.14058641102E+03  0.14058641102E+03  0.00000000000E+00 0.  1.
      99926    2    1    2    0    0  0.00000000000E+00  0.39412917374E-14  0.22697042380E+03  0.50814324584E+03  0.45463610175E+03 0.  0.
      99925    2    3    3    0    0 -0.67677824761E+02 -0.36912423747E+00  0.24376478237E+03  0.36493017801E+03  0.26300635255E+03 0.  0.
         25    1    4    4    0    0 -0.40539529386E+02  0.36618657709E+02  0.10213962272E+03  0.17048281487E+03  0.12509000000E+03 0.  0.
         25    1    4    4    0    0 -0.27138295374E+02 -0.36987781947E+02  0.14162515965E+03  0.19444736315E+03  0.12509000000E+03 0.  0.
         25    1    3    3    0    0  0.67677824761E+02  0.36912423747E+00 -0.16794358576E+02  0.14321306783E+03  0.12509000000E+03 0.  0.
<mgrwt>
<rscale>  2 0.45463610E+03</rscale>
<asrwt>0</asrwt>
<pdfrwt beam="1">  1       21 0.54052475E-01 0.45463610E+03</pdfrwt>
<pdfrwt beam="2">  1       21 0.20674472E-01 0.45463610E+03</pdfrwt>
<totfact> 0.64889484E+04</totfact>
</mgrwt>
</event>
<event>
 7    0  0.4748297E-002  0.4292739E+03  0.7546771E-02  0.1034090E+00
         21   -1    0    0  502  501  0.00000000000E+00  0.00000000000E+00  0.66750238789E+02  0.66750238789E+02  0.00000000000E+00 0. -1.
         21   -1    0    0  501  502 -0.00000000000E+00 -0.00000000000E+00 -0.69017025932E+03  0.69017025932E+03  0.00000000000E+00 0. -1.
      99926    2    1    2    0    0  0.00000000000E+00  0.00000000000E+00 -0.62342002053E+03  0.75692049811E+03  0.42927394337E+03 0.  0.
      99925    2    3    3    0    0  0.38357756126E+02  0.40460609551E+02 -0.28494653621E+03  0.39179012952E+03  0.26305246379E+03 0.  0.
         25    1    4    4    0    0  0.56200455541E+02  0.34707123809E+02 -0.16680491310E+03  0.21871091144E+03  0.12509000000E+03 0.  0.
         25    1    4    4    0    0 -0.17842699415E+02  0.57534857427E+01 -0.11814162311E+03  0.17307921808E+03  0.12509000000E+03 0.  0.
         25    1    3    3    0    0 -0.38357756126E+02 -0.40460609551E+02 -0.33847348432E+03  0.36513036859E+03  0.12509000000E+03 0.  0.
<mgrwt>
<rscale>  2 0.42927394E+03</rscale>
<asrwt>0</asrwt>
<pdfrwt beam="1">  1       21 0.98162119E-02 0.42927394E+03</pdfrwt>
<pdfrwt beam="2">  1       21 0.10149562E+00 0.42927394E+03</pdfrwt>
<totfact> 0.61416510E+04</totfact>
</mgrwt>
</event>
<event>
 7    0  0.4748297E-002  0.4502519E+03  0.7546771E-02  0.1027647E+00
         21   -1    0    0  502  501  0.00000000000E+00  0.00000000000E+00  0.29353730357E+04  0.29353730357E+04  0.00000000000E+00 0.  1.
         21   -1    0    0  501  502 -0.00000000000E+00 -0.00000000000E+00 -0.17265845301E+02  0.17265845301E+02  0.00000000000E+00 0.  1.
      99926    2    1    2    0    0  0.14210854715E-13  0.00000000000E+00  0.29181071904E+04  0.29526388810E+04  0.45025191497E+03 0.  0.
      99925    2    3    3    0    0  0.76662685397E+02 -0.29058248598E+02  0.23109035938E+04  0.23272867683E+04  0.26318573767E+03 0.  0.
         25    1    4    4    0    0  0.39913794614E+00 -0.28233386509E+02  0.11736722144E+04  0.11806571299E+04  0.12509000000E+03 0.  0.
         25    1    3    3    0    0 -0.76662685397E+02  0.29058248598E+02  0.60720359653E+03  0.62535211272E+03  0.12509000000E+03 0.  0.
         25    1    4    4    0    0  0.76263547451E+02 -0.82486208922E+00  0.11372313795E+04  0.11466296384E+04  0.12509000000E+03 0.  0.
<mgrwt>
<rscale>  2 0.45025191E+03</rscale>
<asrwt>0</asrwt>
<pdfrwt beam="1">  1       21 0.43167216E+00 0.45025191E+03</pdfrwt>
<pdfrwt beam="2">  1       21 0.25390969E-02 0.45025191E+03</pdfrwt>
<totfact> 0.36528041E+03</totfact>
</mgrwt>
</event>
<event>
 6    0  0.4748297E-002  0.4550516E+03  0.7546771E-02  0.1026226E+00
         21   -1    0    0  502  501  0.00000000000E+00  0.00000000000E+00  0.65521018247E+02  0.65521018247E+02  0.00000000000E+00 0.  1.
         21   -1    0    0  501  502 -0.00000000000E+00 -0.00000000000E+00 -0.79009752823E+03  0.79009752823E+03  0.00000000000E+00 0.  1.
      99926    2    1    2    0    0  0.00000000000E+00  0.00000000000E+00 -0.72457650998E+03  0.85561854648E+03  0.45505162153E+03 0.  0.
         25    1    3    3    0    0 -0.30940585701E+02 -0.28790823248E+01 -0.16831890917E+03  0.21200087793E+03  0.12509000000E+03 0.  0.
         25    1    3    3    0    0 -0.42964621544E+02 -0.65812758292E+02 -0.16977157549E+03  0.22504926972E+03  0.12509000000E+03 0.  0.
         25    1    3    3    0    0  0.73905207245E+02  0.68691840617E+02 -0.38648602532E+03  0.41856839882E+03  0.12509000000E+03 0.  0.
<mgrwt>
<rscale>  2 0.45505162E+03</rscale>
<asrwt>0</asrwt>
<pdfrwt beam="1">  1       21 0.96354443E-02 0.45505162E+03</pdfrwt>
<pdfrwt beam="2">  1       21 0.11619081E+00 0.45505162E+03</pdfrwt>
<totfact> 0.45170776E+04</totfact>
</mgrwt>
</event>
<event>
 7    0  0.4748297E-002  0.4483355E+03  0.7546771E-02  0.1028220E+00
         21   -1    0    0  502  501  0.00000000000E+00  0.00000000000E+00  0.45109330185E+03  0.45109330185E+03  0.00000000000E+00 0.  1.
         21   -1    0    0  501  502 -0.00000000000E+00 -0.00000000000E+00 -0.11139862252E+03  0.11139862252E+03  0.00000000000E+00 0.  1.
      99926    2    1    2    0    0  0.00000000000E+00  0.00000000000E+00  0.33969467933E+03  0.56249192437E+03  0.44833546572E+03 0.  0.
      99925    2    3    3    0    0 -0.41215302817E+02 -0.82443929843E+02  0.14750509218E+03  0.31534814383E+03  0.26304181577E+03 0.  0.
         25    1    4    4    0    0 -0.21710844042E+02 -0.25226798360E+02  0.28790008826E+02  0.13260514625E+03  0.12509000000E+03 0.  0.
         25    1    4    4    0    0 -0.19504458776E+02 -0.57217131483E+02  0.11871508335E+03  0.18274299758E+03  0.12509000000E+03 0.  0.
         25    1    3    3    0    0  0.41215302817E+02  0.82443929843E+02  0.19218958715E+03  0.24714378054E+03  0.12509000000E+03 0.  0.
<mgrwt>
<rscale>  2 0.44833547E+03</rscale>
<asrwt>0</asrwt>
<pdfrwt beam="1">  1       21 0.66337250E-01 0.44833547E+03</pdfrwt>
<pdfrwt beam="2">  1       21 0.16382150E-01 0.44833547E+03</pdfrwt>
<totfact> 0.64375314E+04</totfact>
</mgrwt>
</event>
<event>
 7    0  0.4748297E-002  0.4552351E+03  0.7546771E-02  0.1026172E+00
         21   -1    0    0  502  501  0.00000000000E+00  0.00000000000E+00  0.67211301764E+03  0.67211301764E+03  0.00000000000E+00 0.  1.
         21   -1    0    0  501  502 -0.00000000000E+00 -0.00000000000E+00 -0.77084867892E+02  0.77084867892E+02  0.00000000000E+00 0.  1.
      99926    2    1    2    0    0  0.00000000000E+00 -0.71054273576E-14  0.59502814975E+03  0.74919788553E+03  0.45523507410E+03 0.  0.
      99925    2    3    3    0    0 -0.25753643766E+02  0.57465311545E+02  0.21833195868E+03  0.34731103496E+03  0.26266061491E+03 0.  0.
         25    1    3    3    0    0  0.25753643766E+02 -0.57465311545E+02  0.37669619106E+03  0.40188685057E+03  0.12509000000E+03 0.  0.
         25    1    4    4    0    0 -0.70124162570E+01  0.66305082262E+02  0.96571380727E+02  0.17151990436E+03  0.12509000000E+03 0.  0.
         25    1    4    4    0    0 -0.18741227509E+02 -0.88397707177E+01  0.12176057796E+03  0.17579113061E+03  0.12509000000E+03 0.  0.
<mgrwt>
<rscale>  2 0.45523507E+03</rscale>
<asrwt>0</asrwt>
<pdfrwt beam="1">  1       21 0.98840147E-01 0.45523507E+03</pdfrwt>
<pdfrwt beam="2">  1       21 0.11336010E-01 0.45523507E+03</pdfrwt>
<totfact> 0.50219040E+04</totfact>
</mgrwt>
</event>
<event>
 7    0  0.4748297E-002  0.4565831E+03  0.7546771E-02  0.1025777E+00
         21   -1    0    0  502  501  0.00000000000E+00  0.00000000000E+00  0.21095994853E+03  0.21095994853E+03  0.00000000000E+00 0.  1.
         21   -1    0    0  501  502 -0.00000000000E+00 -0.00000000000E+00 -0.24704708935E+03  0.24704708935E+03  0.00000000000E+00 0.  1.
      99926    2    1    2    0    0  0.35527136788E-14  0.00000000000E+00 -0.36087140816E+02  0.45800703788E+03  0.45658314141E+03 0.  0.
      99925    2    3    3    0    0  0.16828280574E+02  0.65972178943E+02 -0.11520280021E+03  0.29508891402E+03  0.26300240033E+03 0.  0.
         25    1    4    4    0    0  0.31388506912E+02  0.94065666495E+00 -0.42484324270E+02  0.13578861922E+03  0.12509000000E+03 0.  0.
         25    1    3    3    0    0 -0.16828280574E+02 -0.65972178943E+02  0.79115659391E+02  0.16291812386E+03  0.12509000000E+03 0.  0.
         25    1    4    4    0    0 -0.14560226338E+02  0.65031522278E+02 -0.72718475937E+02  0.15930029480E+03  0.12509000000E+03 0.  0.
<mgrwt>
<rscale>  2 0.45658314E+03</rscale>
<asrwt>0</asrwt>
<pdfrwt beam="1">  1       21 0.31023522E-01 0.45658314E+03</pdfrwt>
<pdfrwt beam="2">  1       21 0.36330454E-01 0.45658314E+03</pdfrwt>
<totfact> 0.67469816E+04</totfact>
</mgrwt>
</event>
<event>
 7    0  0.4748297E-002  0.4562124E+03  0.7546771E-02  0.1025885E+00
         21   -1    0    0  502  501  0.00000000000E+00  0.00000000000E+00  0.79859640238E+03  0.79859640238E+03  0.00000000000E+00 0. -1.
         21   -1    0    0  501  502 -0.00000000000E+00 -0.00000000000E+00 -0.65154868203E+02  0.65154868203E+02  0.00000000000E+00 0. -1.
      99926    2    1    2    0    0  0.00000000000E+00  0.00000000000E+00  0.73344153418E+03  0.86375127058E+03  0.45621242133E+03 0.  0.
      99925    2    3    3    0    0  0.46871136417E+02 -0.36412261248E+02  0.64617607171E+03  0.70008843046E+03  0.26278801079E+03 0.  0.
         25    1    4    4    0    0  0.34558365580E+02 -0.50251694446E+02  0.39654405324E+03  0.42025493178E+03  0.12509000000E+03 0.  0.
         25    1    4    4    0    0  0.12312770837E+02  0.13839433199E+02  0.24963201846E+03  0.27983349867E+03  0.12509000000E+03 0.  0.
         25    1    3    3    0    0 -0.46871136417E+02  0.36412261248E+02  0.87265462471E+02  0.16366284013E+03  0.12509000000E+03 0.  0.
<mgrwt>
<rscale>  2 0.45621242E+03</rscale>
<asrwt>0</asrwt>
<pdfrwt beam="1">  1       21 0.11744064E+00 0.45621242E+03</pdfrwt>
<pdfrwt beam="2">  1       21 0.95815987E-02 0.45621242E+03</pdfrwt>
<totfact> 0.44406519E+04</totfact>
</mgrwt>
</event>
<event>
 7    0  0.4748297E-002  0.4495773E+03  0.7546771E-02  0.1027848E+00
         21   -1    0    0  502  501  0.00000000000E+00  0.00000000000E+00  0.47661268995E+03  0.47661268995E+03  0.00000000000E+00 0.  1.
         21   -1    0    0  501  502 -0.00000000000E+00 -0.00000000000E+00 -0.10601884594E+03  0.10601884594E+03  0.00000000000E+00 0.  1.
      99926    2    1    2    0    0  0.00000000000E+00 -0.71054273576E-14  0.37059384402E+03  0.58263153589E+03  0.44957725631E+03 0.  0.
      99925    2    3    3    0    0  0.53199557875E+02 -0.53791981252E+02  0.13441347603E+03  0.30486824723E+03  0.26297128251E+03 0.  0.
         25    1    4    4    0    0  0.53101374722E+02 -0.33180703232E+02  0.10450193452E+03  0.17461064539E+03  0.12509000000E+03 0.  0.
         25    1    4    4    0    0  0.98183153115E-01 -0.20611278020E+02  0.29911541509E+02  0.13025760184E+03  0.12509000000E+03 0.  0.
         25    1    3    3    0    0 -0.53199557875E+02  0.53791981252E+02  0.23618036799E+03  0.27776328866E+03  0.12509000000E+03 0.  0.
<mgrwt>
<rscale>  2 0.44957726E+03</rscale>
<asrwt>0</asrwt>
<pdfrwt beam="1">  1       21 0.70090101E-01 0.44957726E+03</pdfrwt>
<pdfrwt beam="2">  1       21 0.15591007E-01 0.44957726E+03</pdfrwt>
<totfact> 0.62392123E+04</totfact>
</mgrwt>
</event>
<event>
 7    0  0.4748297E-002  0.4523370E+03  0.7546771E-02  0.1027027E+00
         21   -1    0    0  502  501  0.00000000000E+00  0.00000000000E+00  0.19599490494E+03  0.19599490494E+03  0.00000000000E+00 0. -1.
         21   -1    0    0  501  502 -0.00000000000E+00 -0.00000000000E+00 -0.26098737142E+03  0.26098737142E+03  0.00000000000E+00 0. -1.
      99926    2    1    2    0    0  0.00000000000E+00  0.00000000000E+00 -0.64992466477E+02  0.45698227637E+03  0.45233702061E+03 0.  0.
      99925    2    3    3    0    0  0.29756597366E+02 -0.10019658077E+03 -0.39744454744E+01  0.28292620244E+03  0.26288139897E+03 0.  0.
         25    1    4    4    0    0 -0.19808716098E+02 -0.28225540102E+02  0.69713862224E+01  0.12994296700E+03  0.12509000000E+03 0.  0.
         25    1    3    3    0    0 -0.29756597366E+02  0.10019658077E+03 -0.61018021003E+02  0.17405607393E+03  0.12509000000E+03 0.  0.
         25    1    4    4    0    0  0.49565313463E+02 -0.71971040663E+02 -0.10945831697E+02  0.15298323544E+03  0.12509000000E+03 0.  0.
<mgrwt>
<rscale>  2 0.45233702E+03</rscale>
<asrwt>0</asrwt>
<pdfrwt beam="1">  1       21 0.28822780E-01 0.45233702E+03</pdfrwt>
<pdfrwt beam="2">  1       21 0.38380496E-01 0.45233702E+03</pdfrwt>
<totfact> 0.69873173E+04</totfact>
</mgrwt>
</event>
<event>
 7    0  0.4748297E-002  0.4601514E+03  0.7546771E-02  0.1024737E+00
         21   -1    0    0  502  501  0.00000000000E+00  0.00000000000E+00  0.88544540275E+02  0.88544540275E+02  0.00000000000E+00 0. -1.
         21   -1    0    0  501  502 -0.00000000000E+00 -0.00000000000E+00 -0.59783281598E+03  0.59783281598E+03  0.00000000000E+00 0. -1.
      99926    2    1    2    0    0  0.00000000000E+00  0.00000000000E+00 -0.50928827571E+03  0.68637735626E+03  0.46015141792E+03 0.  0.
      99925    2    3    3    0    0  0.75699317773E+02  0.12049408947E+02 -0.45268278645E+03  0.52912830386E+03  0.26301992667E+03 0.  0.
         25    1    3    3    0    0 -0.75699317773E+02 -0.12049408947E+02 -0.56605489261E+02  0.15724905240E+03  0.12509000000E+03 0.  0.
         25    1    4    4    0    0  0.13577192832E+02  0.14148979282E+02 -0.27791104130E+03  0.30539579033E+03  0.12509000000E+03 0.  0.
         25    1    4    4    0    0  0.62122124941E+02 -0.20995703349E+01 -0.17477174515E+03  0.22373251352E+03  0.12509000000E+03 0.  0.
<mgrwt>
<rscale>  2 0.46015142E+03</rscale>
<asrwt>0</asrwt>
<pdfrwt beam="1">  1       21 0.13021256E-01 0.46015142E+03</pdfrwt>
<pdfrwt beam="2">  1       21 0.87916593E-01 0.46015142E+03</pdfrwt>
<totfact> 0.51526708E+04</totfact>
</mgrwt>
</event>
<event>
 7    0  0.4748297E-002  0.4607315E+03  0.7546771E-02  0.1024569E+00
         21   -1    0    0  502  501  0.00000000000E+00  0.00000000000E+00  0.12704909510E+04  0.12704909510E+04  0.00000000000E+00 0.  1.
         21   -1    0    0  501  502 -0.00000000000E+00 -0.00000000000E+00 -0.41769971249E+02  0.41769971249E+02  0.00000000000E+00 0.  1.
      99926    2    1    2    0    0  0.00000000000E+00  0.00000000000E+00  0.12287209798E+04  0.13122609223E+04  0.46073146407E+03 0.  0.
      99925    2    3    3    0    0 -0.10748983857E+03  0.42708988580E+02  0.69616649124E+03  0.75311879860E+03  0.26298672625E+03 0.  0.
         25    1    3    3    0    0  0.10748983857E+03 -0.42708988580E+02  0.53255448853E+03  0.55914212367E+03  0.12509000000E+03 0.  0.
         25    1    4    4    0    0 -0.14348002285E+02  0.26840017048E+02  0.27250807194E+03  0.30138747330E+03  0.12509000000E+03 0.  0.
         25    1    4    4    0    0 -0.93141836287E+02  0.15868971532E+02  0.42365841929E+03  0.45173132530E+03  0.12509000000E+03 0.  0.
<mgrwt>
<rscale>  2 0.46073146E+03</rscale>
<asrwt>0</asrwt>
<pdfrwt beam="1">  1       21 0.18683688E+00 0.46073146E+03</pdfrwt>
<pdfrwt beam="2">  1       21 0.61426437E-02 0.46073146E+03</pdfrwt>
<totfact> 0.27513760E+04</totfact>
</mgrwt>
</event>
<event>
 7    0  0.4748297E-002  0.4587316E+03  0.7546771E-02  0.1025150E+00
         21   -1    0    0  502  501  0.00000000000E+00  0.00000000000E+00  0.51068362905E+03  0.51068362905E+03  0.00000000000E+00 0.  1.
         21   -1    0    0  501  502 -0.00000000000E+00 -0.00000000000E+00 -0.10301618233E+03  0.10301618233E+03  0.00000000000E+00 0.  1.
      99926    2    1    2    0    0  0.00000000000E+00 -0.14210854715E-13  0.40766744672E+03  0.61369981138E+03  0.45873163328E+03 0.  0.
      99925    2    3    3    0    0  0.10876744415E+02 -0.68143706719E+02  0.13013877603E+03  0.30155955526E+03  0.26313531881E+03 0.  0.
         25    1    4    4    0    0  0.10416428079E+02 -0.72050662472E+02  0.88584005294E+02  0.16968922780E+03  0.12509000000E+03 0.  0.
         25    1    3    3    0    0 -0.10876744415E+02  0.68143706719E+02  0.27752867069E+03  0.31214025612E+03  0.12509000000E+03 0.  0.
         25    1    4    4    0    0  0.46031633559E+00  0.39069557524E+01  0.41554770740E+02  0.13187032746E+03  0.12509000000E+03 0.  0.
<mgrwt>
<rscale>  2 0.45873163E+03</rscale>
<asrwt>0</asrwt>
<pdfrwt beam="1">  1       21 0.75100532E-01 0.45873163E+03</pdfrwt>
<pdfrwt beam="2">  1       21 0.15149439E-01 0.45873163E+03</pdfrwt>
<totfact> 0.56168958E+04</totfact>
</mgrwt>
</event>
<event>
 7    0  0.4748297E-002  0.4491222E+03  0.7546771E-02  0.1027984E+00
         21   -1    0    0  502  501  0.00000000000E+00  0.00000000000E+00  0.16702559215E+03  0.16702559215E+03  0.00000000000E+00 0.  1.
         21   -1    0    0  501  502 -0.00000000000E+00 -0.00000000000E+00 -0.30191598427E+03  0.30191598427E+03  0.00000000000E+00 0.  1.
      99926    2    1    2    0    0  0.00000000000E+00  0.00000000000E+00 -0.13489039213E+03  0.46894157642E+03  0.44912223749E+03 0.  0.
      99925    2    3    3    0    0 -0.69735496672E+02  0.11335384098E+02 -0.23707041037E+01  0.27349207849E+03  0.26419834656E+03 0.  0.
         25    1    4    4    0    0  0.16127708169E+00  0.14938859549E+02  0.22612233794E+02  0.12799225270E+03  0.12509000000E+03 0.  0.
         25    1    4    4    0    0 -0.69896773754E+02 -0.36034754516E+01 -0.24982937898E+02  0.14549982578E+03  0.12509000000E+03 0.  0.
         25    1    3    3    0    0  0.69735496672E+02 -0.11335384098E+02 -0.13251968802E+03  0.19544949793E+03  0.12509000000E+03 0.  0.
<mgrwt>
<rscale>  2 0.44912224E+03</rscale>
<asrwt>0</asrwt>
<pdfrwt beam="1">  1       21 0.24562587E-01 0.44912224E+03</pdfrwt>
<pdfrwt beam="2">  1       21 0.44399409E-01 0.44912224E+03</pdfrwt>
<totfact> 0.70757218E+04</totfact>
</mgrwt>
</event>
<event>
 7    0  0.4748297E-002  0.4583101E+03  0.7546771E-02  0.1025272E+00
         21   -1    0    0  502  501  0.00000000000E+00  0.00000000000E+00  0.85755795774E+03  0.85755795774E+03  0.00000000000E+00 0.  1.
         21   -1    0    0  501  502 -0.00000000000E+00 -0.00000000000E+00 -0.61234391394E+02  0.61234391394E+02  0.00000000000E+00 0.  1.
      99926    2    1    2    0    0  0.00000000000E+00  0.00000000000E+00  0.79632356635E+03  0.91879234914E+03  0.45831011173E+03 0.  0.
      99925    2    3    3    0    0  0.10692585207E+03 -0.29533892050E+02  0.43012885290E+03  0.51623618551E+03  0.26302771813E+03 0.  0.
         25    1    3    3    0    0 -0.10692585207E+03  0.29533892050E+02  0.36619471344E+03  0.40255616363E+03  0.12509000000E+03 0.  0.
         25    1    4    4    0    0  0.16493181796E+02 -0.24197499597E+02  0.16143399849E+03  0.20631526361E+03  0.12509000000E+03 0.  0.
         25    1    4    4    0    0  0.90432670275E+02 -0.53363924535E+01  0.26869485442E+03  0.30992092190E+03  0.12509000000E+03 0.  0.
<mgrwt>
<rscale>  2 0.45831011E+03</rscale>
<asrwt>0</asrwt>
<pdfrwt beam="1">  1       21 0.12611146E+00 0.45831011E+03</pdfrwt>
<pdfrwt beam="2">  1       21 0.90050581E-02 0.45831011E+03</pdfrwt>
<totfact> 0.41349469E+04</totfact>
</mgrwt>
</event>
<event>
 7    0  0.4748297E-002  0.4567042E+03  0.7546771E-02  0.1025741E+00
         21   -1    0    0  502  501  0.00000000000E+00  0.00000000000E+00  0.16438636767E+04  0.16438636767E+04  0.00000000000E+00 0.  1.
         21   -1    0    0  501  502 -0.00000000000E+00 -0.00000000000E+00 -0.31720807656E+02  0.31720807656E+02  0.00000000000E+00 0.  1.
      99926    2    1    2    0    0  0.00000000000E+00  0.00000000000E+00  0.16121428691E+04  0.16755844844E+04  0.45670420844E+03 0.  0.
      99925    2    3    3    0    0 -0.87095857597E+02  0.26955977865E+02  0.12688040462E+04  0.12989661517E+04  0.26293923697E+03 0.  0.
         25    1    4    4    0    0 -0.69163088092E+02 -0.15718802227E+02  0.71618356146E+03  0.73047725174E+03  0.12509000000E+03 0.  0.
         25    1    4    4    0    0 -0.17932769505E+02  0.42674780092E+02  0.55262048476E+03  0.56848889994E+03  0.12509000000E+03 0.  0.
         25    1    3    3    0    0  0.87095857597E+02 -0.26955977865E+02  0.34333882283E+03  0.37661833269E+03  0.12509000000E+03 0.  0.
<mgrwt>
<rscale>  2 0.45670421E+03</rscale>
<asrwt>0</asrwt>
<pdfrwt beam="1">  1       21 0.24174460E+00 0.45670421E+03</pdfrwt>
<pdfrwt beam="2">  1       21 0.46648258E-02 0.45670421E+03</pdfrwt>
<totfact> 0.19514980E+04</totfact>
</mgrwt>
</event>
<event>
 7    0  0.4748297E-002  0.4501685E+03  0.7546771E-02  0.1027672E+00
         21   -1    0    0  502  501  0.00000000000E+00  0.00000000000E+00  0.45152264034E+02  0.45152264034E+02  0.00000000000E+00 0. -1.
         21   -1    0    0  501  502 -0.00000000000E+00 -0.00000000000E+00 -0.11220458397E+04  0.11220458397E+04  0.00000000000E+00 0. -1.
      99926    2    1    2    0    0 -0.71054273576E-14  0.17763568394E-14 -0.10768935757E+04  0.11671981038E+04  0.45016845742E+03 0.  0.
      99925    2    3    3    0    0 -0.37530149451E+02  0.42970744036E+01 -0.94455194498E+03  0.98121748035E+03  0.26302545507E+03 0.  0.
         25    1    3    3    0    0  0.37530149451E+02 -0.42970744036E+01 -0.13234163073E+03  0.18598062343E+03  0.12509000000E+03 0.  0.
         25    1    4    4    0    0  0.49191650042E+01 -0.27248040573E+02 -0.51561261861E+03  0.53129138378E+03  0.12509000000E+03 0.  0.
         25    1    4    4    0    0 -0.42449314455E+02  0.31545114977E+02 -0.42893932636E+03  0.44992609657E+03  0.12509000000E+03 0.  0.
<mgrwt>
<rscale>  2 0.45016846E+03</rscale>
<asrwt>0</asrwt>
<pdfrwt beam="1">  1       21 0.66400389E-02 0.45016846E+03</pdfrwt>
<pdfrwt beam="2">  1       21 0.16500674E+00 0.45016846E+03</pdfrwt>
<totfact> 0.34493795E+04</totfact>
</mgrwt>
</event>
<event>
 7    0  0.4748297E-002  0.4470067E+03  0.7546771E-02  0.1028618E+00
         21   -1    0    0  502  501  0.00000000000E+00  0.00000000000E+00  0.34143643605E+03  0.34143643605E+03  0.00000000000E+00 0. -1.
         21   -1    0    0  501  502 -0.00000000000E+00 -0.00000000000E+00 -0.14630470902E+03  0.14630470902E+03  0.00000000000E+00 0. -1.
      99926    2    1    2    0    0  0.00000000000E+00  0.00000000000E+00  0.19513172704E+03  0.48774114507E+03  0.44700674905E+03 0.  0.
      99925    2    3    3    0    0 -0.33428683239E+02 -0.21115538426E+02  0.23048010349E+03  0.35187224265E+03  0.26292518749E+03 0.  0.
         25    1    4    4    0    0 -0.50833201147E+02 -0.25915534142E+02  0.98459948826E+02  0.16910795035E+03  0.12509000000E+03 0.  0.
         25    1    3    3    0    0  0.33428683239E+02  0.21115538426E+02 -0.35348376456E+02  0.13586890242E+03  0.12509000000E+03 0.  0.
         25    1    4    4    0    0  0.17404517908E+02  0.47999957156E+01  0.13202015467E+03  0.18276429230E+03  0.12509000000E+03 0.  0.
<mgrwt>
<rscale>  2 0.44700675E+03</rscale>
<asrwt>0</asrwt>
<pdfrwt beam="1">  1       21 0.50211241E-01 0.44700675E+03</pdfrwt>
<pdfrwt beam="2">  1       21 0.21515398E-01 0.44700675E+03</pdfrwt>
<totfact> 0.70509916E+04</totfact>
</mgrwt>
</event>
<event>
 7    0  0.4748297E-002  0.4459949E+03  0.7546771E-02  0.1028923E+00
         21   -1    0    0  502  501  0.00000000000E+00  0.00000000000E+00  0.53028221052E+03  0.53028221052E+03  0.00000000000E+00 0. -1.
         21   -1    0    0  501  502 -0.00000000000E+00 -0.00000000000E+00 -0.93776209891E+02  0.93776209891E+02  0.00000000000E+00 0. -1.
      99926    2    1    2    0    0  0.00000000000E+00  0.00000000000E+00  0.43650600063E+03  0.62405842041E+03  0.44599486937E+03 0.  0.
      99925    2    3    3    0    0 -0.77970514016E+02 -0.51400722240E+02  0.21094434089E+03  0.34974654362E+03  0.26287581578E+03 0.  0.
         25    1    3    3    0    0  0.77970514016E+02  0.51400722240E+02  0.22556165974E+03  0.27431187679E+03  0.12509000000E+03 0.  0.
         25    1    4    4    0    0 -0.49515686360E+02 -0.60906837049E+02  0.13661860500E+03  0.20118050931E+03  0.12509000000E+03 0.  0.
         25    1    4    4    0    0 -0.28454827656E+02  0.95061148087E+01  0.74325735896E+02  0.14856603432E+03  0.12509000000E+03 0.  0.
<mgrwt>
<rscale>  2 0.44599487E+03</rscale>
<asrwt>0</asrwt>
<pdfrwt beam="1">  1       21 0.77982677E-01 0.44599487E+03</pdfrwt>
<pdfrwt beam="2">  1       21 0.13790619E-01 0.44599487E+03</pdfrwt>
<totfact> 0.61476873E+04</totfact>
</mgrwt>
</event>
<event>
 7    0  0.4748297E-002  0.4556234E+03  0.7546771E-02  0.1026058E+00
         21   -1    0    0  502  501  0.00000000000E+00  0.00000000000E+00  0.40533801996E+03  0.40533801996E+03  0.00000000000E+00 0.  1.
         21   -1    0    0  501  502 -0.00000000000E+00 -0.00000000000E+00 -0.12803679177E+03  0.12803679177E+03  0.00000000000E+00 0.  1.
      99926    2    1    2    0    0  0.00000000000E+00  0.35527136788E-14  0.27730122819E+03  0.53337481173E+03  0.45562343951E+03 0.  0.
      99925    2    3    3    0    0 -0.10864761881E+03 -0.29898534960E+02  0.15602930787E+03  0.32588357282E+03  0.26297667321E+03 0.  0.
         25    1    3    3    0    0  0.10864761881E+03  0.29898534960E+02  0.12127192032E+03  0.20749123890E+03  0.12509000000E+03 0.  0.
         25    1    4    4    0    0 -0.87216103158E+02 -0.41983322038E+02  0.95444820030E+02  0.18473351009E+03  0.12509000000E+03 0.  0.
         25    1    4    4    0    0 -0.21431515649E+02  0.12084787079E+02  0.60584487845E+02  0.14115006273E+03  0.12509000000E+03 0.  0.
<mgrwt>
<rscale>  2 0.45562344E+03</rscale>
<asrwt>0</asrwt>
<pdfrwt beam="1">  1       21 0.59608532E-01 0.45562344E+03</pdfrwt>
<pdfrwt beam="2">  1       21 0.18828940E-01 0.45562344E+03</pdfrwt>
<totfact> 0.62668384E+04</totfact>
</mgrwt>
</event>
<event>
 7    0  0.4748297E-002  0.4504213E+03  0.7546771E-02  0.1027596E+00
         21   -1    0    0  502  501  0.00000000000E+00  0.00000000000E+00  0.38490289034E+03  0.38490289034E+03  0.00000000000E+00 0.  1.
         21   -1    0    0  501  502 -0.00000000000E+00 -0.00000000000E+00 -0.13177306886E+03  0.13177306886E+03  0.00000000000E+00 0.  1.
      99926    2    1    2    0    0 -0.35527136788E-14  0.00000000000E+00  0.25312982148E+03  0.51667595921E+03  0.45042129202E+03 0.  0.
      99925    2    3    3    0    0 -0.23117997490E+02 -0.90205999115E+02  0.95209631797E+02  0.29473484428E+03  0.26293001039E+03 0.  0.
         25    1    4    4    0    0  0.17055455002E+02 -0.74260926335E+02  0.54290873062E+02  0.15620685236E+03  0.12509000000E+03 0.  0.
         25    1    4    4    0    0 -0.40173452492E+02 -0.15945072780E+02  0.40918758735E+02  0.13852799193E+03  0.12509000000E+03 0.  0.
         25    1    3    3    0    0  0.23117997490E+02  0.90205999115E+02  0.15792018968E+03  0.22194111492E+03  0.12509000000E+03 0.  0.
<mgrwt>
<rscale>  2 0.45042129E+03</rscale>
<asrwt>0</asrwt>
<pdfrwt beam="1">  1       21 0.56603366E-01 0.45042129E+03</pdfrwt>
<pdfrwt beam="2">  1       21 0.19378393E-01 0.45042129E+03</pdfrwt>
<totfact> 0.66497326E+04</totfact>
</mgrwt>
</event>
<event>
 7    0  0.4748297E-002  0.4395201E+03  0.7546771E-02  0.1030894E+00
         21   -1    0    0  502  501  0.00000000000E+00  0.00000000000E+00  0.59134220096E+03  0.59134220096E+03  0.00000000000E+00 0.  1.
         21   -1    0    0  501  502 -0.00000000000E+00 -0.00000000000E+00 -0.81669271290E+02  0.81669271290E+02  0.00000000000E+00 0.  1.
      99926    2    1    2    0    0  0.00000000000E+00  0.00000000000E+00  0.50967292967E+03  0.67301147225E+03  0.43952013212E+03 0.  0.
      99925    2    3    3    0    0 -0.88962889214E+02  0.20079137751E+02  0.27072456451E+03  0.38829864018E+03  0.26299520283E+03 0.  0.
         25    1    4    4    0    0 -0.55411219539E+02  0.45353816529E+02  0.16595738184E+03  0.21981067447E+03  0.12509000000E+03 0.  0.
         25    1    4    4    0    0 -0.33551669674E+02 -0.25274678778E+02  0.10476718266E+03  0.16848796571E+03  0.12509000000E+03 0.  0.
         25    1    3    3    0    0  0.88962889214E+02 -0.20079137751E+02  0.23894836517E+03  0.28471283207E+03  0.12509000000E+03 0.  0.
<mgrwt>
<rscale>  2 0.43952013E+03</rscale>
<asrwt>0</asrwt>
<pdfrwt beam="1">  1       21 0.86962086E-01 0.43952013E+03</pdfrwt>
<pdfrwt beam="2">  1       21 0.12010187E-01 0.43952013E+03</pdfrwt>
<totfact> 0.61562501E+04</totfact>
</mgrwt>
</event>
<event>
 7    0  0.4748297E-002  0.4450420E+03  0.7546771E-02  0.1029211E+00
         21   -1    0    0  502  501  0.00000000000E+00  0.00000000000E+00  0.13991608149E+03  0.13991608149E+03  0.00000000000E+00 0.  1.
         21   -1    0    0  501  502 -0.00000000000E+00 -0.00000000000E+00 -0.35389498955E+03  0.35389498955E+03  0.00000000000E+00 0.  1.
      99926    2    1    2    0    0  0.00000000000E+00  0.71054273576E-14 -0.21397890806E+03  0.49381107104E+03  0.44504202138E+03 0.  0.
      99925    2    3    3    0    0  0.68340025737E+02 -0.38696865020E+02 -0.61029103115E+02  0.28118708977E+03  0.26300916628E+03 0.  0.
         25    1    4    4    0    0  0.38248595437E+02  0.73067976950E+01  0.12741223764E+01  0.13101708222E+03  0.12509000000E+03 0.  0.
         25    1    4    4    0    0  0.30091430300E+02 -0.46003662715E+02 -0.62303225492E+02  0.15017000755E+03  0.12509000000E+03 0.  0.
         25    1    3    3    0    0 -0.68340025737E+02  0.38696865020E+02 -0.15294980495E+03  0.21262398128E+03  0.12509000000E+03 0.  0.
<mgrwt>
<rscale>  2 0.44504202E+03</rscale>
<asrwt>0</asrwt>
<pdfrwt beam="1">  1       21 0.20575895E-01 0.44504202E+03</pdfrwt>
<pdfrwt beam="2">  1       21 0.52043380E-01 0.44504202E+03</pdfrwt>
<totfact> 0.71169202E+04</totfact>
</mgrwt>
</event>
<event>
 7    0  0.4748297E-002  0.4661265E+03  0.7546771E-02  0.1023019E+00
         21   -1    0    0  502  501  0.00000000000E+00  0.00000000000E+00  0.42587859862E+03  0.42587859862E+03  0.00000000000E+00 0.  1.
         21   -1    0    0  501  502 -0.00000000000E+00 -0.00000000000E+00 -0.12754451892E+03  0.12754451892E+03  0.00000000000E+00 0.  1.
      99926    2    1    2    0    0 -0.14210854715E-13  0.00000000000E+00  0.29833407970E+03  0.55342311754E+03  0.46612651064E+03 0.  0.
      99925    2    3    3    0    0  0.90876048604E+02  0.81107136074E+02  0.20849483729E+03  0.35706777306E+03  0.26304082126E+03 0.  0.
         25    1    4    4    0    0  0.69309597198E+01  0.48001882549E+02  0.11498177976E+03  0.17669334087E+03  0.12509000000E+03 0.  0.
         25    1    4    4    0    0  0.83945088884E+02  0.33105253524E+02  0.93513057532E+02  0.18037443219E+03  0.12509000000E+03 0.  0.
         25    1    3    3    0    0 -0.90876048604E+02 -0.81107136074E+02  0.89839242412E+02  0.19635534449E+03  0.12509000000E+03 0.  0.
<mgrwt>
<rscale>  2 0.46612651E+03</rscale>
<asrwt>0</asrwt>
<pdfrwt beam="1">  1       21 0.62629205E-01 0.46612651E+03</pdfrwt>
<pdfrwt beam="2">  1       21 0.18756547E-01 0.46612651E+03</pdfrwt>
<totfact> 0.56500506E+04</totfact>
</mgrwt>
</event>
<event>
 7    0  0.4748297E-002  0.4538866E+03  0.7546771E-02  0.1026569E+00
         21   -1    0    0  502  501  0.00000000000E+00  0.00000000000E+00  0.39041922572E+03  0.39041922572E+03  0.00000000000E+00 0.  1.
         21   -1    0    0  501  502 -0.00000000000E+00 -0.00000000000E+00 -0.13191784201E+03  0.13191784201E+03  0.00000000000E+00 0.  1.
      99926    2    1    2    0    0 -0.17763568394E-14  0.00000000000E+00  0.25850138371E+03  0.52233706773E+03  0.45388660141E+03 0.  0.
      99925    2    3    3    0    0 -0.12380804313E+02  0.91879328095E+02  0.23559835782E+03  0.36496123749E+03  0.26285932248E+03 0.  0.
         25    1    3    3    0    0  0.12380804313E+02 -0.91879328095E+02  0.22903025887E+02  0.15737583023E+03  0.12509000000E+03 0.  0.
         25    1    4    4    0    0  0.21966287064E+02  0.71734673014E+02  0.10447888363E+03  0.17942052921E+03  0.12509000000E+03 0.  0.
         25    1    4    4    0    0 -0.34347091377E+02  0.20144655081E+02  0.13111947420E+03  0.18554070828E+03  0.12509000000E+03 0.  0.
<mgrwt>
<rscale>  2 0.45388660E+03</rscale>
<asrwt>0</asrwt>
<pdfrwt beam="1">  1       21 0.57414592E-01 0.45388660E+03</pdfrwt>
<pdfrwt beam="2">  1       21 0.19399683E-01 0.45388660E+03</pdfrwt>
<totfact> 0.64293827E+04</totfact>
</mgrwt>
</event>
<event>
 7    0  0.4748297E-002  0.4471707E+03  0.7546771E-02  0.1028569E+00
         21   -1    0    0  502  501  0.00000000000E+00  0.00000000000E+00  0.46661302166E+02  0.46661302166E+02  0.00000000000E+00 0. -1.
         21   -1    0    0  501  502 -0.00000000000E+00 -0.00000000000E+00 -0.10713464371E+04  0.10713464371E+04  0.00000000000E+00 0. -1.
      99926    2    1    2    0    0  0.71054273576E-14  0.00000000000E+00 -0.10246851349E+04  0.11180077393E+04  0.44717074960E+03 0.  0.
      99925    2    3    3    0    0  0.41689127095E+02 -0.25262541407E+02 -0.41530209115E+03  0.49401144003E+03  0.26304998887E+03 0.  0.
         25    1    3    3    0    0 -0.41689127095E+02  0.25262541407E+02 -0.60938304377E+03  0.62399629923E+03  0.12509000000E+03 0.  0.
         25    1    4    4    0    0 -0.58217369621E+01 -0.42150024647E+02 -0.22105832456E+03  0.25753603274E+03  0.12509000000E+03 0.  0.
         25    1    4    4    0    0  0.47510864057E+02  0.16887483240E+02 -0.19424376659E+03  0.23647540729E+03  0.12509000000E+03 0.  0.
<mgrwt>
<rscale>  2 0.44717075E+03</rscale>
<asrwt>0</asrwt>
<pdfrwt beam="1">  1       21 0.68619561E-02 0.44717075E+03</pdfrwt>
<pdfrwt beam="2">  1       21 0.15755095E+00 0.44717075E+03</pdfrwt>
<totfact> 0.37080839E+04</totfact>
</mgrwt>
</event>
<event>
 7    0  0.4748297E-002  0.4610437E+03  0.7546771E-02  0.1024479E+00
         21   -1    0    0  502  501  0.00000000000E+00  0.00000000000E+00  0.39212538119E+02  0.39212538119E+02  0.00000000000E+00 0.  1.
         21   -1    0    0  501  502 -0.00000000000E+00 -0.00000000000E+00 -0.13551869865E+04  0.13551869865E+04  0.00000000000E+00 0.  1.
      99926    2    1    2    0    0  0.00000000000E+00  0.00000000000E+00 -0.13159744484E+04  0.13943995246E+04  0.46104369149E+03 0.  0.
      99925    2    3    3    0    0  0.64607364652E+02  0.43686862094E+02 -0.10943287214E+04  0.11282097617E+04  0.26309553863E+03 0.  0.
         25    1    4    4    0    0  0.73124389399E+02  0.25908340843E+02 -0.55137261197E+03  0.57068177102E+03  0.12509000000E+03 0.  0.
         25    1    4    4    0    0 -0.85170247467E+01  0.17778521250E+02 -0.54295610946E+03  0.55752799071E+03  0.12509000000E+03 0.  0.
         25    1    3    3    0    0 -0.64607364652E+02 -0.43686862094E+02 -0.22164572695E+03  0.26618976288E+03  0.12509000000E+03 0.  0.
<mgrwt>
<rscale>  2 0.46104369E+03</rscale>
<asrwt>0</asrwt>
<pdfrwt beam="1">  1       21 0.57665501E-02 0.46104369E+03</pdfrwt>
<pdfrwt beam="2">  1       21 0.19929219E+00 0.46104369E+03</pdfrwt>
<totfact> 0.25273579E+04</totfact>
</mgrwt>
</event>
<event>
 7    0  0.4748297E-002  0.4563262E+03  0.7546771E-02  0.1025852E+00
         21   -1    0    0  502  501  0.00000000000E+00  0.00000000000E+00  0.25730765421E+03  0.25730765421E+03  0.00000000000E+00 0.  1.
         21   -1    0    0  501  502 -0.00000000000E+00 -0.00000000000E+00 -0.20231970471E+03  0.20231970471E+03  0.00000000000E+00 0.  1.
      99926    2    1    2    0    0  0.14210854715E-13  0.00000000000E+00  0.54987949499E+02  0.45962735892E+03  0.45632623689E+03 0.  0.
      99925    2    3    3    0    0 -0.80815437078E+02 -0.18513679447E+02  0.11398877870E+03  0.29837446082E+03  0.26298286257E+03 0.  0.
         25    1    4    4    0    0 -0.80856456496E+02  0.18814130715E+01  0.59004088232E+02  0.16021952690E+03  0.12509000000E+03 0.  0.
         25    1    3    3    0    0  0.80815437078E+02  0.18513679447E+02 -0.59000829202E+02  0.16125289809E+03  0.12509000000E+03 0.  0.
         25    1    4    4    0    0  0.41019417436E-01 -0.20395092518E+02  0.54984690470E+02  0.13815493392E+03  0.12509000000E+03 0.  0.
<mgrwt>
<rscale>  2 0.45632624E+03</rscale>
<asrwt>0</asrwt>
<pdfrwt beam="1">  1       21 0.37839361E-01 0.45632624E+03</pdfrwt>
<pdfrwt beam="2">  1       21 0.29752898E-01 0.45632624E+03</pdfrwt>
<totfact> 0.67491023E+04</totfact>
</mgrwt>
</event>
<event>
 7    0  0.4748297E-002  0.4586199E+03  0.7546771E-02  0.1025182E+00
         21   -1    0    0  502  501  0.00000000000E+00  0.00000000000E+00  0.20456967586E+03  0.20456967586E+03  0.00000000000E+00 0.  1.
         21   -1    0    0  501  502 -0.00000000000E+00 -0.00000000000E+00 -0.25704230117E+03  0.25704230117E+03  0.00000000000E+00 0.  1.
      99926    2    1    2    0    0 -0.88817841970E-15  0.00000000000E+00 -0.52472625313E+02  0.46161197703E+03  0.45861993081E+03 0.  0.
      99925    2    3    3    0    0 -0.42197081005E+01  0.11371910438E+03 -0.73846476627E+01  0.28659690778E+03  0.26293233710E+03 0.  0.
         25    1    4    4    0    0 -0.23779184279E+02  0.64748245167E+02 -0.37198324894E+02  0.14761100343E+03  0.12509000000E+03 0.  0.
         25    1    4    4    0    0  0.19559476178E+02  0.48970859209E+02  0.29813677232E+02  0.13898590436E+03  0.12509000000E+03 0.  0.
         25    1    3    3    0    0  0.42197081005E+01 -0.11371910438E+03 -0.45087977650E+02  0.17501506925E+03  0.12509000000E+03 0.  0.
<mgrwt>
<rscale>  2 0.45861993E+03</rscale>
<asrwt>0</asrwt>
<pdfrwt beam="1">  1       21 0.30083776E-01 0.45861993E+03</pdfrwt>
<pdfrwt beam="2">  1       21 0.37800338E-01 0.45861993E+03</pdfrwt>
<totfact> 0.66133252E+04</totfact>
</mgrwt>
</event>
<event>
 7    0  0.4748297E-002  0.4561184E+03  0.7546771E-02  0.1025913E+00
         21   -1    0    0  502  501  0.00000000000E+00  0.00000000000E+00  0.20835434423E+02  0.20835434423E+02  0.00000000000E+00 0. -1.
         21   -1    0    0  501  502 -0.00000000000E+00 -0.00000000000E+00 -0.24962764109E+04  0.24962764109E+04  0.00000000000E+00 0. -1.
      99926    2    1    2    0    0  0.00000000000E+00  0.71054273576E-14 -0.24754409764E+04  0.25171118453E+04  0.45611842085E+03 0.  0.
      99925    2    3    3    0    0  0.97213826957E+02 -0.48218807695E+02 -0.17547650068E+04  0.17776546505E+04  0.26283121176E+03 0.  0.
         25    1    3    3    0    0 -0.97213826957E+02  0.48218807695E+02 -0.72067596966E+03  0.73945719478E+03  0.12509000000E+03 0.  0.
         25    1    4    4    0    0  0.45110891012E+02 -0.49134237743E+02 -0.69915638148E+03  0.71338371139E+03  0.12509000000E+03 0.  0.
         25    1    4    4    0    0  0.52102935944E+02  0.91543004766E+00 -0.10556086253E+04  0.10642709391E+04  0.12509000000E+03 0.  0.
<mgrwt>
<rscale>  2 0.45611842E+03</rscale>
<asrwt>0</asrwt>
<pdfrwt beam="1">  1       21 0.30640341E-02 0.45611842E+03</pdfrwt>
<pdfrwt beam="2">  1       21 0.36709952E+00 0.45611842E+03</pdfrwt>
<totfact> 0.68980942E+03</totfact>
</mgrwt>
</event>
<event>
 7    0  0.4748297E-002  0.4510913E+03  0.7546771E-02  0.1027397E+00
         21   -1    0    0  502  501  0.00000000000E+00  0.00000000000E+00  0.41608558570E+03  0.41608558570E+03  0.00000000000E+00 0. -1.
         21   -1    0    0  501  502 -0.00000000000E+00 -0.00000000000E+00 -0.12226050474E+03  0.12226050474E+03  0.00000000000E+00 0. -1.
      99926    2    1    2    0    0  0.14210854715E-13  0.71054273576E-14  0.29382508096E+03  0.53834609044E+03  0.45109127113E+03 0.  0.
      99925    2    3    3    0    0  0.96953856579E+02  0.45975773141E+02  0.15818340369E+03  0.32489821686E+03  0.26272236314E+03 0.  0.
         25    1    4    4    0    0  0.50772039870E+02 -0.14968727902E+02  0.91926064856E+02  0.16401150066E+03  0.12509000000E+03 0.  0.
         25    1    4    4    0    0  0.46181816709E+02  0.60944501042E+02  0.66257338837E+02  0.16088671621E+03  0.12509000000E+03 0.  0.
         25    1    3    3    0    0 -0.96953856579E+02 -0.45975773141E+02  0.13564167727E+03  0.21344787358E+03  0.12509000000E+03 0.  0.
<mgrwt>
<rscale>  2 0.45109127E+03</rscale>
<asrwt>0</asrwt>
<pdfrwt beam="1">  1       21 0.61189057E-01 0.45109127E+03</pdfrwt>
<pdfrwt beam="2">  1       21 0.17979486E-01 0.45109127E+03</pdfrwt>
<totfact> 0.64619120E+04</totfact>
</mgrwt>
</event>
<event>
 7    0  0.4748297E-002  0.4567860E+03  0.7546771E-02  0.1025718E+00
         21   -1    0    0  502  501  0.00000000000E+00  0.00000000000E+00  0.81908071430E+02  0.81908071430E+02  0.00000000000E+00 0. -1.
         21   -1    0    0  501  502 -0.00000000000E+00 -0.00000000000E+00 -0.63685254421E+03  0.63685254421E+03  0.00000000000E+00 0. -1.
      99926    2    1    2    0    0 -0.17763568394E-14  0.00000000000E+00 -0.55494447278E+03  0.71876061564E+03  0.45678600540E+03 0.  0.
      99925    2    3    3    0    0 -0.11772656156E+02  0.11404772572E+03 -0.33850687695E+03  0.44373658003E+03  0.26300145919E+03 0.  0.
         25    1    4    4    0    0 -0.29045555979E+02  0.93715309896E+02 -0.19054675123E+03  0.24815675718E+03  0.12509000000E+03 0.  0.
         25    1    3    3    0    0  0.11772656156E+02 -0.11404772572E+03 -0.21643759583E+03  0.27502403561E+03  0.12509000000E+03 0.  0.
         25    1    4    4    0    0  0.17272899823E+02  0.20332415825E+02 -0.14796012572E+03  0.19557982284E+03  0.12509000000E+03 0.  0.
<mgrwt>
<rscale>  2 0.45678601E+03</rscale>
<asrwt>0</asrwt>
<pdfrwt beam="1">  1       21 0.12045304E-01 0.45678601E+03</pdfrwt>
<pdfrwt beam="2">  1       21 0.93654789E-01 0.45678601E+03</pdfrwt>
<totfact> 0.51173515E+04</totfact>
</mgrwt>
</event>
<event>
 6    0  0.4748297E-002  0.4556242E+03  0.7546771E-02  0.1026058E+00
         21   -1    0    0  502  501  0.00000000000E+00  0.00000000000E+00  0.58803298169E+03  0.58803298169E+03  0.00000000000E+00 0. -1.
         21   -1    0    0  501  502 -0.00000000000E+00 -0.00000000000E+00 -0.88257556092E+02  0.88257556092E+02  0.00000000000E+00 0. -1.
      99926    2    1    2    0    0  0.00000000000E+00  0.00000000000E+00  0.49977542560E+03  0.67629053779E+03  0.45562420421E+03 0.  0.
         25    1    3    3    0    0 -0.27221587355E+02  0.90072952825E+02  0.11772703517E+03  0.19586044664E+03  0.12509000000E+03 0.  0.
         25    1    3    3    0    0 -0.16339245360E+02  0.76632902048E+01  0.15525278568E+03  0.20019148962E+03  0.12509000000E+03 0.  0.
         25    1    3    3    0    0  0.43560832715E+02 -0.97736243030E+02  0.22679560475E+03  0.28023860152E+03  0.12509000000E+03 0.  0.
<mgrwt>
<rscale>  2 0.45562420E+03</rscale>
<asrwt>0</asrwt>
<pdfrwt beam="1">  1       21 0.86475437E-01 0.45562420E+03</pdfrwt>
<pdfrwt beam="2">  1       21 0.12979053E-01 0.45562420E+03</pdfrwt>
<totfact> 0.53943856E+04</totfact>
</mgrwt>
</event>
<event>
 7    0  0.4748297E-002  0.4362083E+03  0.7546771E-02  0.1031917E+00
         21   -1    0    0  502  501  0.00000000000E+00  0.00000000000E+00  0.38987685663E+03  0.38987685663E+03  0.00000000000E+00 0. -1.
         21   -1    0    0  501  502 -0.00000000000E+00 -0.00000000000E+00 -0.12201138950E+03  0.12201138950E+03  0.00000000000E+00 0. -1.
      99926    2    1    2    0    0  0.14210854715E-13  0.88817841970E-15  0.26786546713E+03  0.51188824613E+03  0.43620828516E+03 0.  0.
      99925    2    3    3    0    0 -0.89880592457E+02 -0.39887729404E+01  0.20549529459E+03  0.34565955506E+03  0.26297866966E+03 0.  0.
         25    1    4    4    0    0 -0.24706562790E+02 -0.26782221816E+02  0.66311178363E+02  0.14619296196E+03  0.12509000000E+03 0.  0.
         25    1    4    4    0    0 -0.65174029667E+02  0.22793448876E+02  0.13918411623E+03  0.19946659311E+03  0.12509000000E+03 0.  0.
         25    1    3    3    0    0  0.89880592457E+02  0.39887729404E+01  0.62370172534E+02  0.16622869106E+03  0.12509000000E+03 0.  0.
<mgrwt>
<rscale>  2 0.43620829E+03</rscale>
<asrwt>0</asrwt>
<pdfrwt beam="1">  1       21 0.57334831E-01 0.43620829E+03</pdfrwt>
<pdfrwt beam="2">  1       21 0.17942852E-01 0.43620829E+03</pdfrwt>
<totfact> 0.75012937E+04</totfact>
</mgrwt>
</event>
<event>
 7    0  0.4748297E-002  0.4463111E+03  0.7546771E-02  0.1028828E+00
         21   -1    0    0  502  501  0.00000000000E+00  0.00000000000E+00  0.52802773468E+02  0.52802773468E+02  0.00000000000E+00 0.  1.
         21   -1    0    0  501  502 -0.00000000000E+00 -0.00000000000E+00 -0.94310207022E+03  0.94310207022E+03  0.00000000000E+00 0.  1.
      99926    2    1    2    0    0  0.77715611724E-15  0.00000000000E+00 -0.89029929675E+03  0.99590484369E+03  0.44631112454E+03 0.  0.
      99925    2    3    3    0    0 -0.83629624373E+00 -0.74887149456E+02 -0.40138362782E+03  0.48571387555E+03  0.26305962760E+03 0.  0.
         25    1    3    3    0    0  0.83629624373E+00  0.74887149456E+02 -0.48891566893E+03  0.51019096814E+03  0.12509000000E+03 0.  0.
         25    1    4    4    0    0 -0.73975524294E+01 -0.68131453230E+02 -0.16497189270E+03  0.21808221427E+03  0.12509000000E+03 0.  0.
         25    1    4    4    0    0  0.65612561857E+01 -0.67556962263E+01 -0.23641173512E+03  0.26763166127E+03  0.12509000000E+03 0.  0.
<mgrwt>
<rscale>  2 0.44631112E+03</rscale>
<asrwt>0</asrwt>
<pdfrwt beam="1">  1       21 0.77651139E-02 0.44631112E+03</pdfrwt>
<pdfrwt beam="2">  1       21 0.13869148E+00 0.44631112E+03</pdfrwt>
<totfact> 0.42112493E+04</totfact>
</mgrwt>
</event>
<event>
 6    0  0.4748297E-002  0.4489695E+03  0.7546771E-02  0.1028030E+00
         21   -1    0    0  502  501  0.00000000000E+00  0.00000000000E+00  0.83395196230E+03  0.83395196230E+03  0.00000000000E+00 0.  1.
         21   -1    0    0  501  502 -0.00000000000E+00 -0.00000000000E+00 -0.60427234624E+02  0.60427234624E+02  0.00000000000E+00 0.  1.
      99926    2    1    2    0    0  0.00000000000E+00  0.00000000000E+00  0.77352472767E+03  0.89437919692E+03  0.44896953523E+03 0.  0.
         25    1    3    3    0    0 -0.17435097447E+01  0.58008512527E+00  0.97300912590E+02  0.15848770304E+03  0.12509000000E+03 0.  0.
         25    1    3    3    0    0  0.62730875787E+02  0.18243833094E+01  0.43990392834E+03  0.46162914273E+03  0.12509000000E+03 0.  0.
         25    1    3    3    0    0 -0.60987366042E+02 -0.24044684347E+01  0.23631988675E+03  0.27426235115E+03  0.12509000000E+03 0.  0.
<mgrwt>
<rscale>  2 0.44896954E+03</rscale>
<asrwt>0</asrwt>
<pdfrwt beam="1">  1       21 0.12263999E+00 0.44896954E+03</pdfrwt>
<pdfrwt beam="2">  1       21 0.88863585E-02 0.44896954E+03</pdfrwt>
<totfact> 0.45592526E+04</totfact>
</mgrwt>
</event>
<event>
 7    0  0.4748297E-002  0.4559907E+03  0.7546771E-02  0.1025950E+00
         21   -1    0    0  502  501  0.00000000000E+00  0.00000000000E+00  0.76959267346E+03  0.76959267346E+03  0.00000000000E+00 0.  1.
         21   -1    0    0  501  502 -0.00000000000E+00 -0.00000000000E+00 -0.67544653745E+02  0.67544653745E+02  0.00000000000E+00 0.  1.
      99926    2    1    2    0    0  0.00000000000E+00  0.00000000000E+00  0.70204801972E+03  0.83713732721E+03  0.45599066066E+03 0.  0.
      99925    2    3    3    0    0 -0.28314705500E+02 -0.78903917063E+01  0.23879387319E+03  0.35639218350E+03  0.26292374133E+03 0.  0.
         25    1    3    3    0    0  0.28314705500E+02  0.78903917063E+01  0.46325414653E+03  0.48074514371E+03  0.12509000000E+03 0.  0.
         25    1    4    4    0    0  0.25766086086E+02 -0.11241157954E+02  0.11302636806E+03  0.17091729813E+03  0.12509000000E+03 0.  0.
         25    1    4    4    0    0 -0.54080791586E+02  0.33507662478E+01  0.12576750513E+03  0.18547488536E+03  0.12509000000E+03 0.  0.
<mgrwt>
<rscale>  2 0.45599066E+03</rscale>
<asrwt>0</asrwt>
<pdfrwt beam="1">  1       21 0.11317539E+00 0.45599066E+03</pdfrwt>
<pdfrwt beam="2">  1       21 0.99330377E-02 0.45599066E+03</pdfrwt>
<totfact> 0.45664413E+04</totfact>
</mgrwt>
</event>
<event>
 7    0  0.4748297E-002  0.4522005E+03  0.7546771E-02  0.1027068E+00
         21   -1    0    0  502  501  0.00000000000E+00  0.00000000000E+00  0.32370668368E+03  0.32370668368E+03  0.00000000000E+00 0.  1.
         21   -1    0    0  501  502 -0.00000000000E+00 -0.00000000000E+00 -0.15792484034E+03  0.15792484034E+03  0.00000000000E+00 0.  1.
      99926    2    1    2    0    0  0.00000000000E+00 -0.71054273576E-14  0.16578184334E+03  0.48163152402E+03  0.45220051454E+03 0.  0.
      99925    2    3    3    0    0 -0.80216419444E+02 -0.55690710005E+02  0.49387443960E+02  0.28482884762E+03  0.26296810394E+03 0.  0.
         25    1    4    4    0    0 -0.73263774301E+02 -0.21674856866E+02  0.50417788560E+02  0.15500594036E+03  0.12509000000E+03 0.  0.
         25    1    4    4    0    0 -0.69526451434E+01 -0.34015853139E+02 -0.10303445998E+01  0.12982290726E+03  0.12509000000E+03 0.  0.
         25    1    3    3    0    0  0.80216419444E+02  0.55690710005E+02  0.11639439938E+03  0.19680267640E+03  0.12509000000E+03 0.  0.
<mgrwt>
<rscale>  2 0.45220051E+03</rscale>
<asrwt>0</asrwt>
<pdfrwt beam="1">  1       21 0.47603924E-01 0.45220051E+03</pdfrwt>
<pdfrwt beam="2">  1       21 0.23224241E-01 0.45220051E+03</pdfrwt>
<totfact> 0.68081956E+04</totfact>
</mgrwt>
</event>
<event>
 7    0  0.4748297E-002  0.4355242E+03  0.7546771E-02  0.1032129E+00
         21   -1    0    0  502  501  0.00000000000E+00  0.00000000000E+00  0.51453433589E+03  0.51453433589E+03  0.00000000000E+00 0. -1.
         21   -1    0    0  501  502 -0.00000000000E+00 -0.00000000000E+00 -0.92161665614E+02  0.92161665614E+02  0.00000000000E+00 0. -1.
      99926    2    1    2    0    0  0.00000000000E+00  0.00000000000E+00  0.42237267028E+03  0.60669600151E+03  0.43552424232E+03 0.  0.
      99925    2    3    3    0    0 -0.33354342912E+02  0.87124794836E+02  0.25825135194E+03  0.38023064588E+03  0.26301775837E+03 0.  0.
         25    1    4    4    0    0 -0.18850103238E+02  0.79746437266E+02  0.16925090619E+03  0.22584994575E+03  0.12509000000E+03 0.  0.
         25    1    3    3    0    0  0.33354342912E+02 -0.87124794836E+02  0.16412131833E+03  0.22646535562E+03  0.12509000000E+03 0.  0.
         25    1    4    4    0    0 -0.14504239674E+02  0.73783575702E+01  0.89000445752E+02  0.15438070013E+03  0.12509000000E+03 0.  0.
<mgrwt>
<rscale>  2 0.43552424E+03</rscale>
<asrwt>0</asrwt>
<pdfrwt beam="1">  1       21 0.75666813E-01 0.43552424E+03</pdfrwt>
<pdfrwt beam="2">  1       21 0.13553186E-01 0.43552424E+03</pdfrwt>
<totfact> 0.68164387E+04</totfact>
</mgrwt>
</event>
<event>
 7    0  0.4748297E-002  0.4542709E+03  0.7546771E-02  0.1026456E+00
         21   -1    0    0  502  501  0.00000000000E+00  0.00000000000E+00  0.36339575121E+03  0.36339575121E+03  0.00000000000E+00 0.  1.
         21   -1    0    0  501  502 -0.00000000000E+00 -0.00000000000E+00 -0.14196787417E+03  0.14196787417E+03  0.00000000000E+00 0.  1.
      99926    2    1    2    0    0  0.00000000000E+00  0.00000000000E+00  0.22142787705E+03  0.50536362538E+03  0.45427094242E+03 0.  0.
      99925    2    3    3    0    0  0.52838494757E+02 -0.99197547916E+02  0.14004846408E+03  0.31854238195E+03  0.26310381367E+03 0.  0.
         25    1    4    4    0    0  0.23566956213E+02 -0.20165883932E+02  0.98156348436E+02  0.16200074425E+03  0.12509000000E+03 0.  0.
         25    1    4    4    0    0  0.29271538544E+02 -0.79031663984E+02  0.41892115644E+02  0.15654163770E+03  0.12509000000E+03 0.  0.
         25    1    3    3    0    0 -0.52838494757E+02  0.99197547916E+02  0.81379412968E+02  0.18682124343E+03  0.12509000000E+03 0.  0.
<mgrwt>
<rscale>  2 0.45427094E+03</rscale>
<asrwt>0</asrwt>
<pdfrwt beam="1">  1       21 0.53440551E-01 0.45427094E+03</pdfrwt>
<pdfrwt beam="2">  1       21 0.20877629E-01 0.45427094E+03</pdfrwt>
<totfact> 0.65272361E+04</totfact>
</mgrwt>
</event>
<event>
 7    0  0.4748297E-002  0.4551489E+03  0.7546771E-02  0.1026198E+00
         21   -1    0    0  502  501  0.00000000000E+00  0.00000000000E+00  0.25943858799E+03  0.25943858799E+03  0.00000000000E+00 0. -1.
         21   -1    0    0  501  502 -0.00000000000E+00 -0.00000000000E+00 -0.19962382196E+03  0.19962382196E+03  0.00000000000E+00 0. -1.
      99926    2    1    2    0    0  0.00000000000E+00  0.00000000000E+00  0.59814766029E+02  0.45906240994E+03  0.45514886574E+03 0.  0.
      99925    2    3    3    0    0 -0.48002538781E+02 -0.76988778246E+02  0.10610904450E+03  0.29774847990E+03  0.26298956682E+03 0.  0.
         25    1    3    3    0    0  0.48002538781E+02  0.76988778246E+02 -0.46294278473E+02  0.16131393004E+03  0.12509000000E+03 0.  0.
         25    1    4    4    0    0 -0.37682603780E+02 -0.59205800330E+02  0.20761981863E+02  0.14492713138E+03  0.12509000000E+03 0.  0.
         25    1    4    4    0    0 -0.10319935002E+02 -0.17782977915E+02  0.85347062639E+02  0.15282134852E+03  0.12509000000E+03 0.  0.
<mgrwt>
<rscale>  2 0.45514887E+03</rscale>
<asrwt>0</asrwt>
<pdfrwt beam="1">  1       21 0.38152734E-01 0.45514887E+03</pdfrwt>
<pdfrwt beam="2">  1       21 0.29356444E-01 0.45514887E+03</pdfrwt>
<totfact> 0.68167978E+04</totfact>
</mgrwt>
</event>
<event>
 7    0  0.4748297E-002  0.4563131E+03  0.7546771E-02  0.1025856E+00
         21   -1    0    0  502  501  0.00000000000E+00  0.00000000000E+00  0.16433115254E+03  0.16433115254E+03  0.00000000000E+00 0.  1.
         21   -1    0    0  501  502 -0.00000000000E+00 -0.00000000000E+00 -0.31677145220E+03  0.31677145220E+03  0.00000000000E+00 0.  1.
      99926    2    1    2    0    0  0.00000000000E+00  0.71054273576E-14 -0.15244029966E+03  0.48110260474E+03  0.45631312859E+03 0.  0.
      99925    2    3    3    0    0 -0.15468496024E+02 -0.58758717902E+02  0.63050762748E+01  0.27005885624E+03  0.26305925293E+03 0.  0.
         25    1    4    4    0    0 -0.35269775850E+02 -0.15056219653E+01 -0.86829228551E+01  0.13026559498E+03  0.12509000000E+03 0.  0.
         25    1    3    3    0    0  0.15468496024E+02  0.58758717902E+02 -0.15874537593E+03  0.21104374849E+03  0.12509000000E+03 0.  0.
         25    1    4    4    0    0  0.19801279825E+02 -0.57253095937E+02  0.14987999130E+02  0.13979326126E+03  0.12509000000E+03 0.  0.
<mgrwt>
<rscale>  2 0.45631313E+03</rscale>
<asrwt>0</asrwt>
<pdfrwt beam="1">  1       21 0.24166346E-01 0.45631313E+03</pdfrwt>
<pdfrwt beam="2">  1       21 0.46584037E-01 0.45631313E+03</pdfrwt>
<totfact> 0.65930051E+04</totfact>
</mgrwt>
</event>
<event>
 7    0  0.4748297E-002  0.4901090E+03  0.7546771E-02  0.1016393E+00
         21   -1    0    0  502  501  0.00000000000E+00  0.00000000000E+00  0.76039804014E+03  0.76039804014E+03  0.00000000000E+00 0. -1.
         21   -1    0    0  501  502 -0.00000000000E+00 -0.00000000000E+00 -0.78974051778E+02  0.78974051778E+02  0.00000000000E+00 0. -1.
      99926    2    1    2    0    0  0.14210854715E-13  0.00000000000E+00  0.68142398836E+03  0.83937209191E+03  0.49010902539E+03 0.  0.
      99925    2    3    3    0    0 -0.92274942892E+02  0.10887005062E+03  0.44193606366E+03  0.53380814250E+03  0.26320390504E+03 0.  0.
         25    1    4    4    0    0 -0.78956425918E+02  0.87281376580E+02  0.25090413753E+03  0.30406010955E+03  0.12509000000E+03 0.  0.
         25    1    3    3    0    0  0.92274942892E+02 -0.10887005062E+03  0.23948792470E+03  0.30556394942E+03  0.12509000000E+03 0.  0.
         25    1    4    4    0    0 -0.13318516974E+02  0.21588674035E+02  0.19103192613E+03  0.22974803294E+03  0.12509000000E+03 0.  0.
<mgrwt>
<rscale>  2 0.49010903E+03</rscale>
<asrwt>0</asrwt>
<pdfrwt beam="1">  1       21 0.11182324E+00 0.49010903E+03</pdfrwt>
<pdfrwt beam="2">  1       21 0.11613832E-01 0.49010903E+03</pdfrwt>
<totfact> 0.35179497E+04</totfact>
</mgrwt>
</event>
<event>
 7    0  0.4748297E-002  0.4557654E+03  0.7546771E-02  0.1026017E+00
         21   -1    0    0  502  501  0.00000000000E+00  0.00000000000E+00  0.48058624200E+02  0.48058624200E+02  0.00000000000E+00 0.  1.
         21   -1    0    0  501  502 -0.00000000000E+00 -0.00000000000E+00 -0.10805661423E+04  0.10805661423E+04  0.00000000000E+00 0.  1.
      99926    2    1    2    0    0  0.00000000000E+00 -0.71054273576E-14 -0.10325075181E+04  0.11286247665E+04  0.45576538770E+03 0.  0.
      99925    2    3    3    0    0 -0.83665246164E+02 -0.52943870748E+02 -0.51025383710E+03  0.58254845106E+03  0.26306043544E+03 0.  0.
         25    1    4    4    0    0 -0.17828261156E+02 -0.58647423332E+02 -0.23966335097E+03  0.27720641598E+03  0.12509000000E+03 0.  0.
         25    1    4    4    0    0 -0.65836985008E+02  0.57035525837E+01 -0.27059048613E+03  0.30534203508E+03  0.12509000000E+03 0.  0.
         25    1    3    3    0    0  0.83665246164E+02  0.52943870748E+02 -0.52225368102E+03  0.54607631546E+03  0.12509000000E+03 0.  0.
<mgrwt>
<rscale>  2 0.45576539E+03</rscale>
<asrwt>0</asrwt>
<pdfrwt beam="1">  1       21 0.70674452E-02 0.45576539E+03</pdfrwt>
<pdfrwt beam="2">  1       21 0.15890677E+00 0.45576539E+03</pdfrwt>
<totfact> 0.34299008E+04</totfact>
</mgrwt>
</event>
<event>
 7    0  0.4748297E-002  0.4604681E+03  0.7546771E-02  0.1024646E+00
         21   -1    0    0  502  501  0.00000000000E+00  0.00000000000E+00  0.38401122706E+03  0.38401122706E+03  0.00000000000E+00 0. -1.
         21   -1    0    0  501  502 -0.00000000000E+00 -0.00000000000E+00 -0.13803688343E+03  0.13803688343E+03  0.00000000000E+00 0. -1.
      99926    2    1    2    0    0  0.00000000000E+00  0.14210854715E-13  0.24597434363E+03  0.52204811049E+03  0.46046807918E+03 0.  0.
      99925    2    3    3    0    0 -0.33454151634E+02 -0.87611650158E+02  0.23568338962E+03  0.36536884148E+03  0.26296910213E+03 0.  0.
         25    1    4    4    0    0  0.85188542803E+01 -0.47556585504E+02  0.15751337993E+03  0.20686269035E+03  0.12509000000E+03 0.  0.
         25    1    3    3    0    0  0.33454151634E+02  0.87611650158E+02  0.10290954017E+02  0.15667926902E+03  0.12509000000E+03 0.  0.
         25    1    4    4    0    0 -0.41973005914E+02 -0.40055064654E+02  0.78170009690E+02  0.15850615113E+03  0.12509000000E+03 0.  0.
<mgrwt>
<rscale>  2 0.46046808E+03</rscale>
<asrwt>0</asrwt>
<pdfrwt beam="1">  1       21 0.56472239E-01 0.46046808E+03</pdfrwt>
<pdfrwt beam="2">  1       21 0.20299542E-01 0.46046808E+03</pdfrwt>
<totfact> 0.61055763E+04</totfact>
</mgrwt>
</event>
<event>
 7    0  0.4748297E-002  0.4531383E+03  0.7546771E-02  0.1026790E+00
         21   -1    0    0  502  501  0.00000000000E+00  0.00000000000E+00  0.43435766611E+03  0.43435766611E+03  0.00000000000E+00 0. -1.
         21   -1    0    0  501  502 -0.00000000000E+00 -0.00000000000E+00 -0.11818271856E+03  0.11818271856E+03  0.00000000000E+00 0. -1.
      99926    2    1    2    0    0  0.00000000000E+00  0.00000000000E+00  0.31617494755E+03  0.55254038467E+03  0.45313825620E+03 0.  0.
      99925    2    3    3    0    0  0.40354985025E+02 -0.87797473718E+02  0.26930313056E+03  0.38767256933E+03  0.26158922698E+03 0.  0.
         25    1    4    4    0    0  0.24654461038E+02 -0.44068005881E+02  0.82572500638E+02  0.15816307266E+03  0.12509000000E+03 0.  0.
         25    1    3    3    0    0 -0.40354985025E+02  0.87797473718E+02  0.46871816992E+02  0.16486781534E+03  0.12509000000E+03 0.  0.
         25    1    4    4    0    0  0.15700523988E+02 -0.43729467837E+02  0.18673062992E+03  0.22950949667E+03  0.12509000000E+03 0.  0.
<mgrwt>
<rscale>  2 0.45313826E+03</rscale>
<asrwt>0</asrwt>
<pdfrwt beam="1">  1       21 0.63876127E-01 0.45313826E+03</pdfrwt>
<pdfrwt beam="2">  1       21 0.17379812E-01 0.45313826E+03</pdfrwt>
<totfact> 0.62616138E+04</totfact>
</mgrwt>
</event>
<event>
 7    0  0.4748297E-002  0.4534478E+03  0.7546771E-02  0.1026699E+00
         21   -1    0    0  502  501  0.00000000000E+00  0.00000000000E+00  0.32572896868E+03  0.32572896868E+03  0.00000000000E+00 0.  1.
         21   -1    0    0  501  502 -0.00000000000E+00 -0.00000000000E+00 -0.15781137147E+03  0.15781137147E+03  0.00000000000E+00 0.  1.
      99926    2    1    2    0    0 -0.44408920985E-15  0.35527136788E-14  0.16791759722E+03  0.48354034015E+03  0.45344783724E+03 0.  0.
      99925    2    3    3    0    0  0.37762383688E+01  0.30055151921E+02  0.22048077555E+03  0.34451527784E+03  0.26298561205E+03 0.  0.
         25    1    3    3    0    0 -0.37762383688E+01 -0.30055151921E+02 -0.52563178333E+02  0.13902506231E+03  0.12509000000E+03 0.  0.
         25    1    4    4    0    0 -0.51254924725E+01  0.46142022443E+02  0.14595390589E+03  0.19775087270E+03  0.12509000000E+03 0.  0.
         25    1    4    4    0    0  0.89017308413E+01 -0.16086870522E+02  0.74526869659E+02  0.14676440514E+03  0.12509000000E+03 0.  0.
<mgrwt>
<rscale>  2 0.45344784E+03</rscale>
<asrwt>0</asrwt>
<pdfrwt beam="1">  1       21 0.47901319E-01 0.45344784E+03</pdfrwt>
<pdfrwt beam="2">  1       21 0.23207555E-01 0.45344784E+03</pdfrwt>
<totfact> 0.67268317E+04</totfact>
</mgrwt>
</event>
<event>
 7    0  0.4748297E-002  0.4516183E+03  0.7546771E-02  0.1027241E+00
         21   -1    0    0  502  501  0.00000000000E+00  0.00000000000E+00  0.25358011070E+03  0.25358011070E+03  0.00000000000E+00 0.  1.
         21   -1    0    0  501  502 -0.00000000000E+00 -0.00000000000E+00 -0.20107956677E+03  0.20107956677E+03  0.00000000000E+00 0.  1.
      99926    2    1    2    0    0  0.14210854715E-13  0.00000000000E+00  0.52500543938E+02  0.45465967747E+03  0.45161832913E+03 0.  0.
      99925    2    3    3    0    0 -0.98251461147E+02  0.39085169662E+02  0.63688148580E+02  0.29048394631E+03  0.26295197791E+03 0.  0.
         25    1    4    4    0    0 -0.48030342549E+02  0.58181533311E+02  0.19641808850E+02  0.14739509279E+03  0.12509000000E+03 0.  0.
         25    1    3    3    0    0  0.98251461147E+02 -0.39085169662E+02 -0.11187604642E+02  0.16417573116E+03  0.12509000000E+03 0.  0.
         25    1    4    4    0    0 -0.50221118598E+02 -0.19096363649E+02  0.44046339730E+02  0.14308885352E+03  0.12509000000E+03 0.  0.
<mgrwt>
<rscale>  2 0.45161833E+03</rscale>
<asrwt>0</asrwt>
<pdfrwt beam="1">  1       21 0.37291193E-01 0.45161833E+03</pdfrwt>
<pdfrwt beam="2">  1       21 0.29570524E-01 0.45161833E+03</pdfrwt>
<totfact> 0.70452370E+04</totfact>
</mgrwt>
</event>
<event>
 7    0  0.4748297E-002  0.4911143E+03  0.7546771E-02  0.1016125E+00
         21   -1    0    0  502  501  0.00000000000E+00  0.00000000000E+00  0.74798860931E+03  0.74798860931E+03  0.00000000000E+00 0.  1.
         21   -1    0    0  501  502 -0.00000000000E+00 -0.00000000000E+00 -0.80613943737E+02  0.80613943737E+02  0.00000000000E+00 0.  1.
      99926    2    1    2    0    0  0.00000000000E+00  0.00000000000E+00  0.66737466558E+03  0.82860255305E+03  0.49111429084E+03 0.  0.
      99925    2    3    3    0    0  0.60276681035E+02 -0.70947269308E+02  0.59417923115E+03  0.65634729763E+03  0.26282317835E+03 0.  0.
         25    1    3    3    0    0 -0.60276681035E+02  0.70947269308E+02  0.73195434426E+02  0.17225525542E+03  0.12509000000E+03 0.  0.
         25    1    4    4    0    0  0.45429320047E+02 -0.67687638254E+02  0.37329570633E+03  0.40204804683E+03  0.12509000000E+03 0.  0.
         25    1    4    4    0    0  0.14847360987E+02 -0.32596310535E+01  0.22088352482E+03  0.25429925080E+03  0.12509000000E+03 0.  0.
<mgrwt>
<rscale>  2 0.49111429E+03</rscale>
<asrwt>0</asrwt>
<pdfrwt beam="1">  1       21 0.10999832E+00 0.49111429E+03</pdfrwt>
<pdfrwt beam="2">  1       21 0.11854992E-01 0.49111429E+03</pdfrwt>
<totfact> 0.35295870E+04</totfact>
</mgrwt>
</event>
<event>
 7    0  0.4748297E-002  0.4545322E+03  0.7546771E-02  0.1026379E+00
         21   -1    0    0  502  501  0.00000000000E+00  0.00000000000E+00  0.66753596912E+03  0.66753596912E+03  0.00000000000E+00 0. -1.
         21   -1    0    0  501  502 -0.00000000000E+00 -0.00000000000E+00 -0.77373930408E+02  0.77373930408E+02  0.00000000000E+00 0. -1.
      99926    2    1    2    0    0 -0.35527136788E-14  0.00000000000E+00  0.59016203871E+03  0.74490989953E+03  0.45453220621E+03 0.  0.
      99925    2    3    3    0    0  0.88701618035E+01 -0.28643718227E+02  0.19347010858E+03  0.32788335613E+03  0.26301648228E+03 0.  0.
         25    1    3    3    0    0 -0.88701618035E+01  0.28643718227E+02  0.39669193013E+03  0.41702654339E+03  0.12509000000E+03 0.  0.
         25    1    4    4    0    0 -0.34886941360E+02 -0.21696310726E+02  0.10480826916E+03  0.16828579845E+03  0.12509000000E+03 0.  0.
         25    1    4    4    0    0  0.43757103163E+02 -0.69474075014E+01  0.88661839423E+02  0.15959755768E+03  0.12509000000E+03 0.  0.
<mgrwt>
<rscale>  2 0.45453221E+03</rscale>
<asrwt>0</asrwt>
<pdfrwt beam="1">  1       21 0.98167051E-01 0.45453221E+03</pdfrwt>
<pdfrwt beam="2">  1       21 0.11378520E-01 0.45453221E+03</pdfrwt>
<totfact> 0.50717769E+04</totfact>
</mgrwt>
</event>
<event>
 7    0  0.4748297E-002  0.4461508E+03  0.7546771E-02  0.1028876E+00
         21   -1    0    0  502  501  0.00000000000E+00  0.00000000000E+00  0.21860587827E+03  0.21860587827E+03  0.00000000000E+00 0. -1.
         21   -1    0    0  501  502 -0.00000000000E+00 -0.00000000000E+00 -0.22763633752E+03  0.22763633752E+03  0.00000000000E+00 0. -1.
      99926    2    1    2    0    0  0.00000000000E+00 -0.35527136788E-14 -0.90304592501E+01  0.44624221579E+03  0.44615083320E+03 0.  0.
      99925    2    3    3    0    0  0.41462163244E+01 -0.22646750244E+02  0.96357623501E+02  0.28106285119E+03  0.26302370293E+03 0.  0.
         25    1    4    4    0    0  0.20738283101E+02 -0.35253006615E+02  0.20227127880E+02  0.13315215231E+03  0.12509000000E+03 0.  0.
         25    1    3    3    0    0 -0.41462163244E+01  0.22646750244E+02 -0.10538808275E+03  0.16517936461E+03  0.12509000000E+03 0.  0.
         25    1    4    4    0    0 -0.16592066776E+02  0.12606256371E+02  0.76130495621E+02  0.14791069888E+03  0.12509000000E+03 0.  0.
<mgrwt>
<rscale>  2 0.44615083E+03</rscale>
<asrwt>0</asrwt>
<pdfrwt beam="1">  1       21 0.32147924E-01 0.44615083E+03</pdfrwt>
<pdfrwt beam="2">  1       21 0.33475932E-01 0.44615083E+03</pdfrwt>
<totfact> 0.74301449E+04</totfact>
</mgrwt>
</event>
<event>
 7    0  0.4748297E-002  0.4534786E+03  0.7546771E-02  0.1026690E+00
         21   -1    0    0  502  501  0.00000000000E+00  0.00000000000E+00  0.14197600898E+03  0.14197600898E+03  0.00000000000E+00 0.  1.
         21   -1    0    0  501  502 -0.00000000000E+00 -0.00000000000E+00 -0.36210842893E+03  0.36210842893E+03  0.00000000000E+00 0.  1.
      99926    2    1    2    0    0  0.00000000000E+00  0.00000000000E+00 -0.22013241995E+03  0.50408443791E+03  0.45347859733E+03 0.  0.
      99925    2    3    3    0    0 -0.80647733414E+02  0.59434513587E+02 -0.19364309647E+03  0.34164764815E+03  0.26303792192E+03 0.  0.
         25    1    4    4    0    0 -0.80645553984E+02  0.27728316864E+02 -0.11904034417E+03  0.19258939891E+03  0.12509000000E+03 0.  0.
         25    1    4    4    0    0 -0.21794301142E-02  0.31706196723E+02 -0.74602752299E+02  0.14905824924E+03  0.12509000000E+03 0.  0.
         25    1    3    3    0    0  0.80647733414E+02 -0.59434513587E+02 -0.26489323476E+02  0.16243678976E+03  0.12509000000E+03 0.  0.
<mgrwt>
<rscale>  2 0.45347860E+03</rscale>
<asrwt>0</asrwt>
<pdfrwt beam="1">  1       21 0.20878825E-01 0.45347860E+03</pdfrwt>
<pdfrwt beam="2">  1       21 0.53251239E-01 0.45347860E+03</pdfrwt>
<totfact> 0.65775371E+04</totfact>
</mgrwt>
</event>
<event>
 7    0  0.4748297E-002  0.4612494E+03  0.7546771E-02  0.1024419E+00
         21   -1    0    0  502  501  0.00000000000E+00  0.00000000000E+00  0.62434253768E+03  0.62434253768E+03  0.00000000000E+00 0.  1.
         21   -1    0    0  501  502 -0.00000000000E+00 -0.00000000000E+00 -0.85190032080E+02  0.85190032080E+02  0.00000000000E+00 0.  1.
      99926    2    1    2    0    0  0.35527136788E-14  0.00000000000E+00  0.53915250560E+03  0.70953256976E+03  0.46124943713E+03 0.  0.
      99925    2    3    3    0    0 -0.24554089990E+02 -0.10775743995E+03  0.26972617653E+03  0.39258995019E+03  0.26298305932E+03 0.  0.
         25    1    3    3    0    0  0.24554089990E+02  0.10775743995E+03  0.26942632908E+03  0.31694261957E+03  0.12509000000E+03 0.  0.
         25    1    4    4    0    0 -0.46108784432E+02 -0.39078878907E+02  0.15560751013E+03  0.20860101651E+03  0.12509000000E+03 0.  0.
         25    1    4    4    0    0  0.21554694442E+02 -0.68678561042E+02  0.11411866640E+03  0.18398893369E+03  0.12509000000E+03 0.  0.
<mgrwt>
<rscale>  2 0.46124944E+03</rscale>
<asrwt>0</asrwt>
<pdfrwt beam="1">  1       21 0.91815077E-01 0.46124944E+03</pdfrwt>
<pdfrwt beam="2">  1       21 0.12527946E-01 0.46124944E+03</pdfrwt>
<totfact> 0.49889754E+04</totfact>
</mgrwt>
</event>
<event>
 7    0  0.4748297E-002  0.4590907E+03  0.7546771E-02  0.1025045E+00
         21   -1    0    0  502  501  0.00000000000E+00  0.00000000000E+00  0.85713311898E+02  0.85713311898E+02  0.00000000000E+00 0.  1.
         21   -1    0    0  501  502 -0.00000000000E+00 -0.00000000000E+00 -0.61473611995E+03  0.61473611995E+03  0.00000000000E+00 0.  1.
      99926    2    1    2    0    0 -0.71054273576E-14 -0.17763568394E-14 -0.52902280805E+03  0.70044943185E+03  0.45909070469E+03 0.  0.
      99925    2    3    3    0    0 -0.47977351690E+02 -0.13837054376E+02 -0.49296856470E+03  0.56101949635E+03  0.26311894488E+03 0.  0.
         25    1    4    4    0    0  0.11121866456E+02 -0.14075810453E+02 -0.27807903286E+03  0.30544603610E+03  0.12509000000E+03 0.  0.
         25    1    3    3    0    0  0.47977351690E+02  0.13837054376E+02 -0.36054243353E+02  0.13942993550E+03  0.12509000000E+03 0.  0.
         25    1    4    4    0    0 -0.59099218146E+02  0.23875607620E+00 -0.21488953184E+03  0.25557346025E+03  0.12509000000E+03 0.  0.
<mgrwt>
<rscale>  2 0.45909070E+03</rscale>
<asrwt>0</asrwt>
<pdfrwt beam="1">  1       21 0.12604898E-01 0.45909070E+03</pdfrwt>
<pdfrwt beam="2">  1       21 0.90402374E-01 0.45909070E+03</pdfrwt>
<totfact> 0.51209936E+04</totfact>
</mgrwt>
</event>
<event>
 7    0  0.4748297E-002  0.4337759E+03  0.7546771E-02  0.1032674E+00
         21   -1    0    0  502  501  0.00000000000E+00  0.00000000000E+00  0.51925025701E+03  0.51925025701E+03  0.00000000000E+00 0.  1.
         21   -1    0    0  501  502 -0.00000000000E+00 -0.00000000000E+00 -0.90592885115E+02  0.90592885115E+02  0.00000000000E+00 0.  1.
      99926    2    1    2    0    0  0.00000000000E+00  0.00000000000E+00  0.42865737189E+03  0.60984314212E+03  0.43377588167E+03 0.  0.
      99925    2    3    3    0    0  0.48672887463E+02  0.77121918768E+02  0.26065809376E+03  0.38139598000E+03  0.26306541276E+03 0.  0.
         25    1    4    4    0    0  0.10758367137E+02  0.49203930001E+02  0.18131018314E+03  0.22595942070E+03  0.12509000000E+03 0.  0.
         25    1    4    4    0    0  0.37914520326E+02  0.27917988767E+02  0.79347910614E+02  0.15543655930E+03  0.12509000000E+03 0.  0.
         25    1    3    3    0    0 -0.48672887463E+02 -0.77121918768E+02  0.16799927814E+03  0.22844716213E+03  0.12509000000E+03 0.  0.
<mgrwt>
<rscale>  2 0.43377588E+03</rscale>
<asrwt>0</asrwt>
<pdfrwt beam="1">  1       21 0.76360331E-01 0.43377588E+03</pdfrwt>
<pdfrwt beam="2">  1       21 0.13322483E-01 0.43377588E+03</pdfrwt>
<totfact> 0.68923566E+04</totfact>
</mgrwt>
</event>
<event>
 7    0  0.4748297E-002  0.4581686E+03  0.7546771E-02  0.1025314E+00
         21   -1    0    0  502  501  0.00000000000E+00  0.00000000000E+00  0.16334158664E+03  0.16334158664E+03  0.00000000000E+00 0.  1.
         21   -1    0    0  501  502 -0.00000000000E+00 -0.00000000000E+00 -0.32128758408E+03  0.32128758408E+03  0.00000000000E+00 0.  1.
      99926    2    1    2    0    0  0.00000000000E+00  0.00000000000E+00 -0.15794599743E+03  0.48462917072E+03  0.45816863163E+03 0.  0.
      99925    2    3    3    0    0 -0.57907403111E+02  0.92514283449E+02 -0.14133629300E+03  0.31778927633E+03  0.26287243381E+03 0.  0.
         25    1    4    4    0    0 -0.59515137730E+02  0.23966382911E+02 -0.85874301760E+02  0.16473719353E+03  0.12509000000E+03 0.  0.
         25    1    4    4    0    0  0.16077346193E+01  0.68547900538E+02 -0.55461991239E+02  0.15305208281E+03  0.12509000000E+03 0.  0.
         25    1    3    3    0    0  0.57907403111E+02 -0.92514283449E+02 -0.16609704435E+02  0.16683989439E+03  0.12509000000E+03 0.  0.
<mgrwt>
<rscale>  2 0.45816863E+03</rscale>
<asrwt>0</asrwt>
<pdfrwt beam="1">  1       21 0.24020822E-01 0.45816863E+03</pdfrwt>
<pdfrwt beam="2">  1       21 0.47248174E-01 0.45816863E+03</pdfrwt>
<totfact> 0.64721347E+04</totfact>
</mgrwt>
</event>
<event>
 7    0  0.4748297E-002  0.4557983E+03  0.7546771E-02  0.1026007E+00
         21   -1    0    0  502  501  0.00000000000E+00  0.00000000000E+00  0.30208326603E+03  0.30208326603E+03  0.00000000000E+00 0.  1.
         21   -1    0    0  501  502 -0.00000000000E+00 -0.00000000000E+00 -0.17193281882E+03  0.17193281882E+03  0.00000000000E+00 0.  1.
      99926    2    1    2    0    0  0.00000000000E+00  0.00000000000E+00  0.13015044721E+03  0.47401608485E+03  0.45579832140E+03 0.  0.
      99925    2    3    3    0    0  0.33897669801E+02 -0.38781125345E+02 -0.23831119857E+02  0.26905057850E+03  0.26299669925E+03 0.  0.
         25    1    4    4    0    0  0.26701771222E+02 -0.55469252915E+02 -0.29561845162E+02  0.14251748452E+03  0.12509000000E+03 0.  0.
         25    1    3    3    0    0 -0.33897669801E+02  0.38781125345E+02  0.15398156706E+03  0.20496550636E+03  0.12509000000E+03 0.  0.
         25    1    4    4    0    0  0.71958985795E+01  0.16688127570E+02  0.57307253056E+01  0.12653309397E+03  0.12509000000E+03 0.  0.
<mgrwt>
<rscale>  2 0.45579832E+03</rscale>
<asrwt>0</asrwt>
<pdfrwt beam="1">  1       21 0.44424010E-01 0.45579832E+03</pdfrwt>
<pdfrwt beam="2">  1       21 0.25284238E-01 0.45579832E+03</pdfrwt>
<totfact> 0.66714729E+04</totfact>
</mgrwt>
</event>
<event>
 7    0  0.4748297E-002  0.4633612E+03  0.7546771E-02  0.1023811E+00
         21   -1    0    0  502  501  0.00000000000E+00  0.00000000000E+00  0.10878949326E+03  0.10878949326E+03  0.00000000000E+00 0. -1.
         21   -1    0    0  501  502 -0.00000000000E+00 -0.00000000000E+00 -0.49339231606E+03  0.49339231606E+03  0.00000000000E+00 0. -1.
      99926    2    1    2    0    0  0.00000000000E+00  0.00000000000E+00 -0.38460282280E+03  0.60218180932E+03  0.46336119839E+03 0.  0.
      99925    2    3    3    0    0 -0.20754792919E+02 -0.33487801760E+02 -0.91497746292E+02  0.28107390181E+03  0.26282790264E+03 0.  0.
         25    1    4    4    0    0 -0.10651164390E+02 -0.87160531833E+01 -0.36549454673E+01  0.12589790948E+03  0.12509000000E+03 0.  0.
         25    1    4    4    0    0 -0.10103628529E+02 -0.24771748577E+02 -0.87842800824E+02  0.15517599232E+03  0.12509000000E+03 0.  0.
         25    1    3    3    0    0  0.20754792919E+02  0.33487801760E+02 -0.29310507650E+03  0.32110790751E+03  0.12509000000E+03 0.  0.
<mgrwt>
<rscale>  2 0.46336120E+03</rscale>
<asrwt>0</asrwt>
<pdfrwt beam="1">  1       21 0.15998455E-01 0.46336120E+03</pdfrwt>
<pdfrwt beam="2">  1       21 0.72557692E-01 0.46336120E+03</pdfrwt>
<totfact> 0.54831110E+04</totfact>
</mgrwt>
</event>
<event>
 7    0  0.4748297E-002  0.4613458E+03  0.7546771E-02  0.1024392E+00
         21   -1    0    0  502  501  0.00000000000E+00  0.00000000000E+00  0.56903905903E+03  0.56903905903E+03  0.00000000000E+00 0.  1.
         21   -1    0    0  501  502 -0.00000000000E+00 -0.00000000000E+00 -0.93508483066E+02  0.93508483066E+02  0.00000000000E+00 0.  1.
      99926    2    1    2    0    0  0.00000000000E+00  0.00000000000E+00  0.47553057596E+03  0.66254754209E+03  0.46134576714E+03 0.  0.
      99925    2    3    3    0    0 -0.11347891480E+03  0.22964735590E+02  0.33781947537E+03  0.44342041345E+03  0.26285893923E+03 0.  0.
         25    1    4    4    0    0 -0.69107777801E+02 -0.26928765387E+02  0.16942382480E+03  0.22327781768E+03  0.12509000000E+03 0.  0.
         25    1    3    3    0    0  0.11347891480E+03 -0.22964735590E+02  0.13771110059E+03  0.21912712865E+03  0.12509000000E+03 0.  0.
         25    1    4    4    0    0 -0.44371136997E+02  0.49893500977E+02  0.16839565058E+03  0.22014259577E+03  0.12509000000E+03 0.  0.
<mgrwt>
<rscale>  2 0.46134577E+03</rscale>
<asrwt>0</asrwt>
<pdfrwt beam="1">  1       21 0.83682213E-01 0.46134577E+03</pdfrwt>
<pdfrwt beam="2">  1       21 0.13751248E-01 0.46134577E+03</pdfrwt>
<totfact> 0.52316273E+04</totfact>
</mgrwt>
</event>
<event>
 7    0  0.4748297E-002  0.4543762E+03  0.7546771E-02  0.1026425E+00
         21   -1    0    0  502  501  0.00000000000E+00  0.00000000000E+00  0.26316254800E+03  0.26316254800E+03  0.00000000000E+00 0.  1.
         21   -1    0    0  501  502 -0.00000000000E+00 -0.00000000000E+00 -0.19613137984E+03  0.19613137984E+03  0.00000000000E+00 0.  1.
      99926    2    1    2    0    0  0.00000000000E+00  0.00000000000E+00  0.67031168167E+02  0.45929392784E+03  0.45437620387E+03 0.  0.
      99925    2    3    3    0    0 -0.10974673554E+03 -0.23953747480E+02  0.36748253229E+02  0.28846450702E+03  0.26314104529E+03 0.  0.
         25    1    4    4    0    0 -0.37607101806E+02 -0.40664390133E+02  0.41690996560E+02  0.14301585236E+03  0.12509000000E+03 0.  0.
         25    1    4    4    0    0 -0.72139633733E+02  0.16710642654E+02 -0.49427433311E+01  0.14544865467E+03  0.12509000000E+03 0.  0.
         25    1    3    3    0    0  0.10974673554E+03  0.23953747480E+02  0.30282914938E+02  0.17082942082E+03  0.12509000000E+03 0.  0.
<mgrwt>
<rscale>  2 0.45437620E+03</rscale>
<asrwt>0</asrwt>
<pdfrwt beam="1">  1       21 0.38700375E-01 0.45437620E+03</pdfrwt>
<pdfrwt beam="2">  1       21 0.28842850E-01 0.45437620E+03</pdfrwt>
<totfact> 0.68572545E+04</totfact>
</mgrwt>
</event>
<event>
 7    0  0.4748297E-002  0.4514064E+03  0.7546771E-02  0.1027303E+00
         21   -1    0    0  502  501  0.00000000000E+00  0.00000000000E+00  0.74947565390E+03  0.74947565390E+03  0.00000000000E+00 0.  1.
         21   -1    0    0  501  502 -0.00000000000E+00 -0.00000000000E+00 -0.67970102096E+02  0.67970102096E+02  0.00000000000E+00 0.  1.
      99926    2    1    2    0    0  0.35527136788E-14  0.00000000000E+00  0.68150555181E+03  0.81744575600E+03  0.45140640985E+03 0.  0.
      99925    2    3    3    0    0 -0.13069796669E+02 -0.44673775515E+02  0.25045708376E+03  0.36620651157E+03  0.26308153206E+03 0.  0.
         25    1    4    4    0    0  0.24493089715E+02 -0.29652399494E+00  0.99381841021E+02  0.16163000277E+03  0.12509000000E+03 0.  0.
         25    1    3    3    0    0  0.13069796669E+02  0.44673775515E+02  0.43104846805E+03  0.45123924443E+03  0.12509000000E+03 0.  0.
         25    1    4    4    0    0 -0.37562886383E+02 -0.44377251520E+02  0.15107524274E+03  0.20457650880E+03  0.12509000000E+03 0.  0.
<mgrwt>
<rscale>  2 0.45140641E+03</rscale>
<asrwt>0</asrwt>
<pdfrwt beam="1">  1       21 0.11021700E+00 0.45140641E+03</pdfrwt>
<pdfrwt beam="2">  1       21 0.99956037E-02 0.45140641E+03</pdfrwt>
<totfact> 0.48279605E+04</totfact>
</mgrwt>
</event>
<event>
 7    0  0.4748297E-002  0.4634358E+03  0.7546771E-02  0.1023789E+00
         21   -1    0    0  502  501  0.00000000000E+00  0.00000000000E+00  0.20902268242E+02  0.20902268242E+02  0.00000000000E+00 0. -1.
         21   -1    0    0  501  502 -0.00000000000E+00 -0.00000000000E+00 -0.25687732261E+04  0.25687732261E+04  0.00000000000E+00 0. -1.
      99926    2    1    2    0    0  0.00000000000E+00  0.00000000000E+00 -0.25478709579E+04  0.25896754944E+04  0.46343580796E+03 0.  0.
      99925    2    3    3    0    0 -0.11406790241E+03 -0.37599444813E+02 -0.15150915481E+04  0.15424381660E+04  0.26303591411E+03 0.  0.
         25    1    4    4    0    0 -0.82266711081E+02 -0.26531968302E+02 -0.98970706433E+03  0.10013187996E+04  0.12509000000E+03 0.  0.
         25    1    4    4    0    0 -0.31801191332E+02 -0.11067476511E+02 -0.52538448379E+03  0.54111936642E+03  0.12509000000E+03 0.  0.
         25    1    3    3    0    0  0.11406790241E+03  0.37599444813E+02 -0.10327794098E+04  0.10472373284E+04  0.12509000000E+03 0.  0.
<mgrwt>
<rscale>  2 0.46343581E+03</rscale>
<asrwt>0</asrwt>
<pdfrwt beam="1">  1       21 0.30738628E-02 0.46343581E+03</pdfrwt>
<pdfrwt beam="2">  1       21 0.37776080E+00 0.46343581E+03</pdfrwt>
<totfact> 0.58630615E+03</totfact>
</mgrwt>
</event>
<event>
 7    0  0.4748297E-002  0.4556938E+03  0.7546771E-02  0.1026038E+00
         21   -1    0    0  502  501  0.00000000000E+00  0.00000000000E+00  0.14156563535E+04  0.14156563535E+04  0.00000000000E+00 0.  1.
         21   -1    0    0  501  502 -0.00000000000E+00 -0.00000000000E+00 -0.36671469629E+02  0.36671469629E+02  0.00000000000E+00 0.  1.
      99926    2    1    2    0    0 -0.71054273576E-14  0.14210854715E-13  0.13789848839E+04  0.14523278232E+04  0.45569375231E+03 0.  0.
      99925    2    3    3    0    0  0.43292076162E+02 -0.93494199223E+02  0.71255212538E+03  0.76647397657E+03  0.26293812244E+03 0.  0.
         25    1    4    4    0    0 -0.10249827994E+02 -0.58440594502E+02  0.41338993281E+03  0.43595768912E+03  0.12509000000E+03 0.  0.
         25    1    4    4    0    0  0.53541904157E+02 -0.35053604721E+02  0.29916219257E+03  0.33051628745E+03  0.12509000000E+03 0.  0.
         25    1    3    3    0    0 -0.43292076162E+02  0.93494199223E+02  0.66643275853E+03  0.68585384660E+03  0.12509000000E+03 0.  0.
<mgrwt>
<rscale>  2 0.45569375E+03</rscale>
<asrwt>0</asrwt>
<pdfrwt beam="1">  1       21 0.20818472E+00 0.45569375E+03</pdfrwt>
<pdfrwt beam="2">  1       21 0.53928641E-02 0.45569375E+03</pdfrwt>
<totfact> 0.24836139E+04</totfact>
</mgrwt>
</event>
<event>
 7    0  0.4748297E-002  0.4611732E+03  0.7546771E-02  0.1024442E+00
         21   -1    0    0  502  501  0.00000000000E+00  0.00000000000E+00  0.39949680918E+03  0.39949680918E+03  0.00000000000E+00 0.  1.
         21   -1    0    0  501  502 -0.00000000000E+00 -0.00000000000E+00 -0.13309285808E+03  0.13309285808E+03  0.00000000000E+00 0.  1.
      99926    2    1    2    0    0  0.00000000000E+00  0.00000000000E+00  0.26640395110E+03  0.53258966725E+03  0.46117316542E+03 0.  0.
      99925    2    3    3    0    0 -0.83921630499E+02  0.13402367180E+02  0.26271184566E+03  0.38131639382E+03  0.26298710013E+03 0.  0.
         25    1    4    4    0    0 -0.60719365012E+02  0.26746862770E+01  0.86739605086E+02  0.16390626109E+03  0.12509000000E+03 0.  0.
         25    1    3    3    0    0  0.83921630499E+02 -0.13402367180E+02  0.36921054347E+01  0.15127327343E+03  0.12509000000E+03 0.  0.
         25    1    4    4    0    0 -0.23202265487E+02  0.10727680903E+02  0.17597224058E+03  0.21741013273E+03  0.12509000000E+03 0.  0.
<mgrwt>
<rscale>  2 0.46117317E+03</rscale>
<asrwt>0</asrwt>
<pdfrwt beam="1">  1       21 0.58749531E-01 0.46117317E+03</pdfrwt>
<pdfrwt beam="2">  1       21 0.19572479E-01 0.46117317E+03</pdfrwt>
<totfact> 0.60039594E+04</totfact>
</mgrwt>
</event>
<event>
 7    0  0.5243588E-002  0.4277141E+03  0.7546771E-02  0.1034585E+00
         21   -1    0    0  502  501  0.00000000000E+00  0.00000000000E+00  0.23364612109E+03  0.23364612109E+03  0.00000000000E+00 0.  1.
         21   -1    0    0  501  502 -0.00000000000E+00 -0.00000000000E+00 -0.19574403845E+03  0.19574403845E+03  0.00000000000E+00 0.  1.
      99926    2    1    2    0    0  0.00000000000E+00  0.00000000000E+00  0.37902082636E+02  0.42939015953E+03  0.42771408819E+03 0.  0.
      99925    2    3    3    0    0  0.60640009545E+02  0.14633249740E+02  0.82302500515E+02  0.28272643545E+03  0.26319041197E+03 0.  0.
         25    1    3    3    0    0 -0.60640009545E+02 -0.14633249740E+02 -0.44400417879E+02  0.14666372409E+03  0.12509000000E+03 0.  0.
         25    1    4    4    0    0 -0.90563044429E+00  0.10231227768E+02  0.10767978734E+02  0.12597204315E+03  0.12509000000E+03 0.  0.
         25    1    4    4    0    0  0.61545639989E+02  0.44020219724E+01  0.71534521781E+02  0.15675439230E+03  0.12509000000E+03 0.  0.
<mgrwt>
<rscale>  2 0.42771409E+03</rscale>
<asrwt>0</asrwt>
<pdfrwt beam="1">  1       21 0.34359724E-01 0.42771409E+03</pdfrwt>
<pdfrwt beam="2">  1       21 0.28785888E-01 0.42771409E+03</pdfrwt>
<totfact> 0.88147142E+04</totfact>
</mgrwt>
</event>
<event>
 7    0  0.4748297E-002  0.4176153E+03  0.7546771E-02  0.1037845E+00
         21   -1    0    0  502  501  0.00000000000E+00  0.00000000000E+00  0.49835653488E+03  0.49835653488E+03  0.00000000000E+00 0.  1.
         21   -1    0    0  501  502 -0.00000000000E+00 -0.00000000000E+00 -0.87488823852E+02  0.87488823852E+02  0.00000000000E+00 0.  1.
      99926    2    1    2    0    0 -0.17763568394E-14 -0.71054273576E-14  0.41086771103E+03  0.58584535873E+03  0.41761526359E+03 0.  0.
      99925    2    3    3    0    0  0.10722525914E+02  0.32114821071E+02  0.35880011618E+03  0.44618549754E+03  0.26305444408E+03 0.  0.
         25    1    3    3    0    0 -0.10722525914E+02 -0.32114821071E+02  0.52067594848E+02  0.13965986119E+03  0.12509000000E+03 0.  0.
         25    1    4    4    0    0 -0.35200644274E+02  0.17924189049E+02  0.18130432092E+03  0.22378366070E+03  0.12509000000E+03 0.  0.
         25    1    4    4    0    0  0.45923170189E+02  0.14190632023E+02  0.17749579526E+03  0.22240183684E+03  0.12509000000E+03 0.  0.
<mgrwt>
<rscale>  2 0.41761526E+03</rscale>
<asrwt>0</asrwt>
<pdfrwt beam="1">  1       21 0.73287725E-01 0.41761526E+03</pdfrwt>
<pdfrwt beam="2">  1       21 0.12866004E-01 0.41761526E+03</pdfrwt>
<totfact> 0.80954201E+04</totfact>
</mgrwt>
</event>
<event>
 6    0  0.4748297E-002  0.4543834E+03  0.7546771E-02  0.1026423E+00
         21   -1    0    0  502  501  0.00000000000E+00  0.00000000000E+00  0.16536333570E+04  0.16536333570E+04  0.00000000000E+00 0. -1.
         21   -1    0    0  501  502 -0.00000000000E+00 -0.00000000000E+00 -0.31213725639E+02  0.31213725639E+02  0.00000000000E+00 0. -1.
      99926    2    1    2    0    0  0.00000000000E+00 -0.35527136788E-14  0.16224196314E+04  0.16848470826E+04  0.45438335318E+03 0.  0.
         25    1    3    3    0    0  0.84180479606E+02 -0.19676708723E+02  0.60717165506E+03  0.62592208206E+03  0.12509000000E+03 0.  0.
         25    1    3    3    0    0 -0.50348894880E+02  0.75193287035E+02  0.42807960526E+03  0.45506999261E+03  0.12509000000E+03 0.  0.
         25    1    3    3    0    0 -0.33831584726E+02 -0.55516578311E+02  0.58716837104E+03  0.60385500796E+03  0.12509000000E+03 0.  0.
<mgrwt>
<rscale>  2 0.45438335E+03</rscale>
<asrwt>0</asrwt>
<pdfrwt beam="1">  1       21 0.24318132E+00 0.45438335E+03</pdfrwt>
<pdfrwt beam="2">  1       21 0.45902549E-02 0.45438335E+03</pdfrwt>
<totfact> 0.19672728E+04</totfact>
</mgrwt>
</event>
<event>
 7    0  0.4748297E-002  0.4622383E+03  0.7546771E-02  0.1024134E+00
         21   -1    0    0  502  501  0.00000000000E+00  0.00000000000E+00  0.48475296978E+03  0.48475296978E+03  0.00000000000E+00 0. -1.
         21   -1    0    0  501  502 -0.00000000000E+00 -0.00000000000E+00 -0.11019232689E+03  0.11019232689E+03  0.00000000000E+00 0. -1.
      99926    2    1    2    0    0  0.71054273576E-14  0.00000000000E+00  0.37456064289E+03  0.59494529667E+03  0.46223828361E+03 0.  0.
      99925    2    3    3    0    0 -0.49392628748E+02  0.20581733765E+02  0.96150898402E+02  0.28506994518E+03  0.26297649865E+03 0.  0.
         25    1    4    4    0    0 -0.41723809861E+01 -0.56971574286E+01  0.12862659687E+02  0.12594769740E+03  0.12509000000E+03 0.  0.
         25    1    3    3    0    0  0.49392628748E+02 -0.20581733765E+02  0.27840974449E+03  0.30987535150E+03  0.12509000000E+03 0.  0.
         25    1    4    4    0    0 -0.45220247762E+02  0.26278891194E+02  0.83288238715E+02  0.15912224778E+03  0.12509000000E+03 0.  0.
<mgrwt>
<rscale>  2 0.46223828E+03</rscale>
<asrwt>0</asrwt>
<pdfrwt beam="1">  1       21 0.71287201E-01 0.46223828E+03</pdfrwt>
<pdfrwt beam="2">  1       21 0.16204754E-01 0.46223828E+03</pdfrwt>
<totfact> 0.55733358E+04</totfact>
</mgrwt>
</event>
<event>
 7    0  0.4748297E-002  0.4474019E+03  0.7546771E-02  0.1028500E+00
         21   -1    0    0  502  501  0.00000000000E+00  0.00000000000E+00  0.24120874869E+02  0.24120874869E+02  0.00000000000E+00 0. -1.
         21   -1    0    0  501  502 -0.00000000000E+00 -0.00000000000E+00 -0.20746391962E+04  0.20746391962E+04  0.00000000000E+00 0. -1.
      99926    2    1    2    0    0  0.00000000000E+00  0.00000000000E+00 -0.20505183214E+04  0.20987600711E+04  0.44740188847E+03 0.  0.
      99925    2    3    3    0    0 -0.33980951240E+02  0.61037697329E+02 -0.16727877774E+04  0.16947697526E+04  0.26295486379E+03 0.  0.
         25    1    4    4    0    0 -0.27135180228E+02  0.63238031109E+02 -0.10339864571E+04  0.10437963729E+04  0.12509000000E+03 0.  0.
         25    1    4    4    0    0 -0.68457710115E+01 -0.22003337805E+01 -0.63880132036E+03  0.65097337967E+03  0.12509000000E+03 0.  0.
         25    1    3    3    0    0  0.33980951240E+02 -0.61037697329E+02 -0.37773054396E+03  0.40399031855E+03  0.12509000000E+03 0.  0.
<mgrwt>
<rscale>  2 0.44740189E+03</rscale>
<asrwt>0</asrwt>
<pdfrwt beam="1">  1       21 0.35471872E-02 0.44740189E+03</pdfrwt>
<pdfrwt beam="2">  1       21 0.30509402E+00 0.44740189E+03</pdfrwt>
<totfact> 0.12908436E+04</totfact>
</mgrwt>
</event>
<event>
 7    0  0.4748297E-002  0.3969201E+03  0.7546771E-02  0.1044851E+00
         21   -1    0    0  502  501  0.00000000000E+00  0.00000000000E+00  0.43504782772E+03  0.43504782772E+03  0.00000000000E+00 0.  1.
         21   -1    0    0  501  502 -0.00000000000E+00 -0.00000000000E+00 -0.90533478365E+02  0.90533478365E+02  0.00000000000E+00 0.  1.
      99926    2    1    2    0    0 -0.17763568394E-14 -0.44408920985E-15  0.34451434936E+03  0.52558130609E+03  0.39692010833E+03 0.  0.
      99925    2    3    3    0    0 -0.69162999947E+01 -0.33536555599E+01  0.28154743192E+03  0.38532645590E+03  0.26296090770E+03 0.  0.
         25    1    4    4    0    0  0.91830748249E+01 -0.15341840837E+02  0.87934004957E+02  0.15394673842E+03  0.12509000000E+03 0.  0.
         25    1    3    3    0    0  0.69162999947E+01  0.33536555599E+01  0.62966917436E+02  0.14025485019E+03  0.12509000000E+03 0.  0.
         25    1    4    4    0    0 -0.16099374820E+02  0.11988185277E+02  0.19361342697E+03  0.23137971747E+03  0.12509000000E+03 0.  0.
<mgrwt>
<rscale>  2 0.39692011E+03</rscale>
<asrwt>0</asrwt>
<pdfrwt beam="1">  1       21 0.63977621E-01 0.39692011E+03</pdfrwt>
<pdfrwt beam="2">  1       21 0.13313747E-01 0.39692011E+03</pdfrwt>
<totfact> 0.10351157E+05</totfact>
</mgrwt>
</event>
<event>
 7    0  0.4748297E-002  0.4565621E+03  0.7546771E-02  0.1025783E+00
         21   -1    0    0  502  501  0.00000000000E+00  0.00000000000E+00  0.17553932051E+03  0.17553932051E+03  0.00000000000E+00 0.  1.
         21   -1    0    0  501  502 -0.00000000000E+00 -0.00000000000E+00 -0.29686931952E+03  0.29686931952E+03  0.00000000000E+00 0.  1.
      99926    2    1    2    0    0  0.14210854715E-13  0.00000000000E+00 -0.12132999901E+03  0.47240864003E+03  0.45656210368E+03 0.  0.
      99925    2    3    3    0    0  0.10005552435E+03 -0.33550537301E+02 -0.29878484070E+02  0.28493161693E+03  0.26297634116E+03 0.  0.
         25    1    3    3    0    0 -0.10005552435E+03  0.33550537301E+02 -0.91451514940E+02  0.18747702310E+03  0.12509000000E+03 0.  0.
         25    1    4    4    0    0  0.86048093620E+02  0.44011783461E+01 -0.15994612548E+02  0.15273172728E+03  0.12509000000E+03 0.  0.
         25    1    4    4    0    0  0.14007430732E+02 -0.37951715647E+02 -0.13883871523E+02  0.13219988965E+03  0.12509000000E+03 0.  0.
<mgrwt>
<rscale>  2 0.45656210E+03</rscale>
<asrwt>0</asrwt>
<pdfrwt beam="1">  1       21 0.25814606E-01 0.45656210E+03</pdfrwt>
<pdfrwt beam="2">  1       21 0.43657253E-01 0.45656210E+03</pdfrwt>
<totfact> 0.66429915E+04</totfact>
</mgrwt>
</event>
<event>
 7    0  0.4748297E-002  0.4538641E+03  0.7546771E-02  0.1026576E+00
         21   -1    0    0  502  501  0.00000000000E+00  0.00000000000E+00  0.60050761776E+03  0.60050761776E+03  0.00000000000E+00 0. -1.
         21   -1    0    0  501  502 -0.00000000000E+00 -0.00000000000E+00 -0.85757712472E+02  0.85757712472E+02  0.00000000000E+00 0. -1.
      99926    2    1    2    0    0  0.00000000000E+00  0.00000000000E+00  0.51474990529E+03  0.68626533024E+03  0.45386411897E+03 0.  0.
      99925    2    3    3    0    0 -0.70743289457E+02 -0.86719135305E+02  0.31507262025E+03  0.42541413186E+03  0.26302396493E+03 0.  0.
         25    1    4    4    0    0 -0.54328537874E+02 -0.82852210323E+02  0.17980840039E+03  0.24040517410E+03  0.12509000000E+03 0.  0.
         25    1    3    3    0    0  0.70743289457E+02  0.86719135305E+02  0.19967728504E+03  0.26085119837E+03  0.12509000000E+03 0.  0.
         25    1    4    4    0    0 -0.16414751583E+02 -0.38669249820E+01  0.13526421985E+03  0.18500895776E+03  0.12509000000E+03 0.  0.
<mgrwt>
<rscale>  2 0.45386412E+03</rscale>
<asrwt>0</asrwt>
<pdfrwt beam="1">  1       21 0.88309942E-01 0.45386412E+03</pdfrwt>
<pdfrwt beam="2">  1       21 0.12611429E-01 0.45386412E+03</pdfrwt>
<totfact> 0.54137723E+04</totfact>
</mgrwt>
</event>
<event>
 7    0  0.4748297E-002  0.4587269E+03  0.7546771E-02  0.1025151E+00
         21   -1    0    0  502  501  0.00000000000E+00  0.00000000000E+00  0.85713267904E+02  0.85713267904E+02  0.00000000000E+00 0. -1.
         21   -1    0    0  501  502 -0.00000000000E+00 -0.00000000000E+00 -0.61376265514E+03  0.61376265514E+03  0.00000000000E+00 0. -1.
      99926    2    1    2    0    0  0.00000000000E+00  0.14210854715E-13 -0.52804938724E+03  0.69947592305E+03  0.45872694662E+03 0.  0.
      99925    2    3    3    0    0  0.69623170177E+02 -0.90050380084E+02 -0.29257997720E+03  0.40956247399E+03  0.26302456210E+03 0.  0.
         25    1    3    3    0    0 -0.69623170177E+02  0.90050380084E+02 -0.23546941004E+03  0.28991344905E+03  0.12509000000E+03 0.  0.
         25    1    4    4    0    0  0.36020516428E+02 -0.18624329728E+02 -0.18361657985E+03  0.22584707161E+03  0.12509000000E+03 0.  0.
         25    1    4    4    0    0  0.33602653749E+02 -0.71426050356E+02 -0.10896339735E+03  0.18371540238E+03  0.12509000000E+03 0.  0.
<mgrwt>
<rscale>  2 0.45872695E+03</rscale>
<asrwt>0</asrwt>
<pdfrwt beam="1">  1       21 0.12604892E-01 0.45872695E+03</pdfrwt>
<pdfrwt beam="2">  1       21 0.90259213E-01 0.45872695E+03</pdfrwt>
<totfact> 0.51406926E+04</totfact>
</mgrwt>
</event>
<event>
 7    0  0.4748297E-002  0.4576469E+03  0.7546771E-02  0.1025466E+00
         21   -1    0    0  502  501  0.00000000000E+00  0.00000000000E+00  0.23421182249E+03  0.23421182249E+03  0.00000000000E+00 0.  1.
         21   -1    0    0  501  502 -0.00000000000E+00 -0.00000000000E+00 -0.22355909065E+03  0.22355909065E+03  0.00000000000E+00 0.  1.
      99926    2    1    2    0    0  0.00000000000E+00  0.00000000000E+00  0.10652731845E+02  0.45777091314E+03  0.45764694713E+03 0.  0.
      99925    2    3    3    0    0  0.35003873661E+02 -0.98173304317E+02 -0.43697196688E+02  0.28611809002E+03  0.26285137928E+03 0.  0.
         25    1    4    4    0    0  0.22280759740E+02 -0.68354257649E+02 -0.59234114098E+02  0.15596449970E+03  0.12509000000E+03 0.  0.
         25    1    4    4    0    0  0.12723113920E+02 -0.29819046669E+02  0.15536917410E+02  0.13015359033E+03  0.12509000000E+03 0.  0.
         25    1    3    3    0    0 -0.35003873661E+02  0.98173304317E+02  0.54349928533E+02  0.17165282312E+03  0.12509000000E+03 0.  0.
<mgrwt>
<rscale>  2 0.45764695E+03</rscale>
<asrwt>0</asrwt>
<pdfrwt beam="1">  1       21 0.34442915E-01 0.45764695E+03</pdfrwt>
<pdfrwt beam="2">  1       21 0.32876337E-01 0.45764695E+03</pdfrwt>
<totfact> 0.66918758E+04</totfact>
</mgrwt>
</event>
<event>
 7    0  0.4748297E-002  0.4575261E+03  0.7546771E-02  0.1025501E+00
         21   -1    0    0  502  501  0.00000000000E+00  0.00000000000E+00  0.33960679009E+02  0.33960679009E+02  0.00000000000E+00 0. -1.
         21   -1    0    0  501  502 -0.00000000000E+00 -0.00000000000E+00 -0.15409740469E+04  0.15409740469E+04  0.00000000000E+00 0. -1.
      99926    2    1    2    0    0  0.14210854715E-13  0.00000000000E+00 -0.15070133679E+04  0.15749347259E+04  0.45752606469E+03 0.  0.
      99925    2    3    3    0    0 -0.11380695357E+03 -0.10986168587E+02 -0.10037488432E+04  0.10439023272E+04  0.26295933127E+03 0.  0.
         25    1    3    3    0    0  0.11380695357E+03  0.10986168587E+02 -0.50326452470E+03  0.53103239873E+03  0.12509000000E+03 0.  0.
         25    1    4    4    0    0 -0.79094793226E+02 -0.29175611646E+02 -0.63084919318E+03  0.64863349841E+03  0.12509000000E+03 0.  0.
         25    1    4    4    0    0 -0.34712160340E+02  0.18189443059E+02 -0.37289965004E+03  0.39526882879E+03  0.12509000000E+03 0.  0.
<mgrwt>
<rscale>  2 0.45752606E+03</rscale>
<asrwt>0</asrwt>
<pdfrwt beam="1">  1       21 0.49942174E-02 0.45752606E+03</pdfrwt>
<pdfrwt beam="2">  1       21 0.22661383E+00 0.45752606E+03</pdfrwt>
<totfact> 0.21574545E+04</totfact>
</mgrwt>
</event>
<event>
 7    0  0.4748297E-002  0.4523777E+03  0.7546771E-02  0.1027015E+00
         21   -1    0    0  502  501  0.00000000000E+00  0.00000000000E+00  0.21331042483E+03  0.21331042483E+03  0.00000000000E+00 0.  1.
         21   -1    0    0  501  502 -0.00000000000E+00 -0.00000000000E+00 -0.23984482082E+03  0.23984482082E+03  0.00000000000E+00 0.  1.
      99926    2    1    2    0    0  0.00000000000E+00  0.14210854715E-13 -0.26534395990E+02  0.45315524565E+03  0.45237772104E+03 0.  0.
      99925    2    3    3    0    0 -0.22654823446E+02 -0.10836435329E+03 -0.17028072166E+02  0.28584131204E+03  0.26298141824E+03 0.  0.
         25    1    4    4    0    0  0.10978175670E+02 -0.36743485453E+02  0.22225174587E+02  0.13271047641E+03  0.12509000000E+03 0.  0.
         25    1    3    3    0    0  0.22654823446E+02  0.10836435329E+03 -0.95063238240E+01  0.16731393361E+03  0.12509000000E+03 0.  0.
         25    1    4    4    0    0 -0.33632999115E+02 -0.71620867834E+02 -0.39253246753E+02  0.15313083563E+03  0.12509000000E+03 0.  0.
<mgrwt>
<rscale>  2 0.45237772E+03</rscale>
<asrwt>0</asrwt>
<pdfrwt beam="1">  1       21 0.31369180E-01 0.45237772E+03</pdfrwt>
<pdfrwt beam="2">  1       21 0.35271297E-01 0.45237772E+03</pdfrwt>
<totfact> 0.70137194E+04</totfact>
</mgrwt>
</event>
<event>
 7    0  0.4748297E-002  0.4634578E+03  0.7546771E-02  0.1023783E+00
         21   -1    0    0  502  501  0.00000000000E+00  0.00000000000E+00  0.29673971056E+03  0.29673971056E+03  0.00000000000E+00 0. -1.
         21   -1    0    0  501  502 -0.00000000000E+00 -0.00000000000E+00 -0.18096088765E+03  0.18096088765E+03  0.00000000000E+00 0. -1.
      99926    2    1    2    0    0  0.00000000000E+00  0.00000000000E+00  0.11577882291E+03  0.47770059820E+03  0.46345779278E+03 0.  0.
      99925    2    3    3    0    0 -0.35492259326E+02  0.92842059827E+02  0.14328242847E+03  0.31557933197E+03  0.26302302545E+03 0.  0.
         25    1    3    3    0    0  0.35492259326E+02 -0.92842059827E+02 -0.27503605566E+02  0.16212126623E+03  0.12509000000E+03 0.  0.
         25    1    4    4    0    0 -0.95060134123E+01  0.18892382161E+02  0.10060790882E+03  0.16191586029E+03  0.12509000000E+03 0.  0.
         25    1    4    4    0    0 -0.25986245914E+02  0.73949677666E+02  0.42674519652E+02  0.15366347169E+03  0.12509000000E+03 0.  0.
<mgrwt>
<rscale>  2 0.46345779E+03</rscale>
<asrwt>0</asrwt>
<pdfrwt beam="1">  1       21 0.43638193E-01 0.46345779E+03</pdfrwt>
<pdfrwt beam="2">  1       21 0.26611895E-01 0.46345779E+03</pdfrwt>
<totfact> 0.62562724E+04</totfact>
</mgrwt>
</event>
<event>
 7    0  0.4748297E-002  0.4390465E+03  0.7546771E-02  0.1031040E+00
         21   -1    0    0  502  501  0.00000000000E+00  0.00000000000E+00  0.92380465833E+02  0.92380465833E+02  0.00000000000E+00 0.  1.
         21   -1    0    0  501  502 -0.00000000000E+00 -0.00000000000E+00 -0.52165212745E+03  0.52165212745E+03  0.00000000000E+00 0.  1.
      99926    2    1    2    0    0  0.88817841970E-15  0.00000000000E+00 -0.42927166162E+03  0.61403259329E+03  0.43904654212E+03 0.  0.
      99925    2    3    3    0    0  0.21584192366E+01 -0.83589704967E+02 -0.34432946478E+03  0.44124780676E+03  0.26295427189E+03 0.  0.
         25    1    4    4    0    0 -0.18528520919E+02 -0.22354283267E+02 -0.21293928387E+03  0.24866376250E+03  0.12509000000E+03 0.  0.
         25    1    3    3    0    0 -0.21584192366E+01  0.83589704967E+02 -0.84942196841E+02  0.17278478652E+03  0.12509000000E+03 0.  0.
         25    1    4    4    0    0  0.20686940155E+02 -0.61235421699E+02 -0.13139018091E+03  0.19258404426E+03  0.12509000000E+03 0.  0.
<mgrwt>
<rscale>  2 0.43904654E+03</rscale>
<asrwt>0</asrwt>
<pdfrwt beam="1">  1       21 0.13585363E-01 0.43904654E+03</pdfrwt>
<pdfrwt beam="2">  1       21 0.76713546E-01 0.43904654E+03</pdfrwt>
<totfact> 0.65719399E+04</totfact>
</mgrwt>
</event>
<event>
 7    0  0.4748297E-002  0.4562379E+03  0.7546771E-02  0.1025878E+00
         21   -1    0    0  502  501  0.00000000000E+00  0.00000000000E+00  0.38221199094E+03  0.38221199094E+03  0.00000000000E+00 0. -1.
         21   -1    0    0  501  502 -0.00000000000E+00 -0.00000000000E+00 -0.13615025295E+03  0.13615025295E+03  0.00000000000E+00 0. -1.
      99926    2    1    2    0    0  0.00000000000E+00  0.00000000000E+00  0.24606173799E+03  0.51836224389E+03  0.45623791709E+03 0.  0.
      99925    2    3    3    0    0  0.10195006560E+03  0.51689954219E+02  0.15502189835E+03  0.32600469207E+03  0.26302395906E+03 0.  0.
         25    1    3    3    0    0 -0.10195006560E+03 -0.51689954219E+02  0.91039839641E+02  0.19235755182E+03  0.12509000000E+03 0.  0.
         25    1    4    4    0    0  0.61876374823E+02  0.59941763777E+02  0.58365561781E+02  0.16271369859E+03  0.12509000000E+03 0.  0.
         25    1    4    4    0    0  0.40073690772E+02 -0.82518095575E+01  0.96656336566E+02  0.16329099348E+03  0.12509000000E+03 0.  0.
<mgrwt>
<rscale>  2 0.45623792E+03</rscale>
<asrwt>0</asrwt>
<pdfrwt beam="1">  1       21 0.56207646E-01 0.45623792E+03</pdfrwt>
<pdfrwt beam="2">  1       21 0.20022096E-01 0.45623792E+03</pdfrwt>
<totfact> 0.63374232E+04</totfact>
</mgrwt>
</event>
<event>
 7    0  0.4748297E-002  0.4574789E+03  0.7546771E-02  0.1025515E+00
         21   -1    0    0  502  501  0.00000000000E+00  0.00000000000E+00  0.44099047366E+03  0.44099047366E+03  0.00000000000E+00 0.  1.
         21   -1    0    0  501  502 -0.00000000000E+00 -0.00000000000E+00 -0.11864596050E+03  0.11864596050E+03  0.00000000000E+00 0.  1.
      99926    2    1    2    0    0  0.00000000000E+00 -0.71054273576E-14  0.32234451316E+03  0.55963643416E+03  0.45747891020E+03 0.  0.
      99925    2    3    3    0    0  0.45349194248E+02  0.42865918047E+02  0.32126528062E+03  0.41984119393E+03  0.26298519204E+03 0.  0.
         25    1    4    4    0    0 -0.17913649326E+02  0.18063593188E+02  0.14233098245E+03  0.19118788899E+03  0.12509000000E+03 0.  0.
         25    1    4    4    0    0  0.63262843575E+02  0.24802324859E+02  0.17893429817E+03  0.22865330494E+03  0.12509000000E+03 0.  0.
         25    1    3    3    0    0 -0.45349194248E+02 -0.42865918047E+02  0.10792325344E+01  0.13979524023E+03  0.12509000000E+03 0.  0.
<mgrwt>
<rscale>  2 0.45747891E+03</rscale>
<asrwt>0</asrwt>
<pdfrwt beam="1">  1       21 0.64851540E-01 0.45747891E+03</pdfrwt>
<pdfrwt beam="2">  1       21 0.17447936E-01 0.45747891E+03</pdfrwt>
<totfact> 0.60048061E+04</totfact>
</mgrwt>
</event>
<event>
 7    0  0.4748297E-002  0.4546553E+03  0.7546771E-02  0.1026343E+00
         21   -1    0    0  502  501  0.00000000000E+00  0.00000000000E+00  0.60444378501E+03  0.60444378501E+03  0.00000000000E+00 0. -1.
         21   -1    0    0  501  502 -0.00000000000E+00 -0.00000000000E+00 -0.85496539729E+02  0.85496539729E+02  0.00000000000E+00 0. -1.
      99926    2    1    2    0    0  0.00000000000E+00  0.00000000000E+00  0.51894724528E+03  0.68994032474E+03  0.45465526316E+03 0.  0.
      99925    2    3    3    0    0 -0.48143072971E+02  0.71653066186E+01  0.17220412583E+03  0.31812397749E+03  0.26301997454E+03 0.  0.
         25    1    3    3    0    0  0.48143072971E+02 -0.71653066186E+01  0.34674311945E+03  0.37181634725E+03  0.12509000000E+03 0.  0.
         25    1    4    4    0    0 -0.31577665619E+02  0.25351715980E+02  0.47529681768E+02  0.13980857348E+03  0.12509000000E+03 0.  0.
         25    1    4    4    0    0 -0.16565407352E+02 -0.18186409361E+02  0.12467444406E+03  0.17831540401E+03  0.12509000000E+03 0.  0.
<mgrwt>
<rscale>  2 0.45465526E+03</rscale>
<asrwt>0</asrwt>
<pdfrwt beam="1">  1       21 0.88888790E-01 0.45465526E+03</pdfrwt>
<pdfrwt beam="2">  1       21 0.12573021E-01 0.45465526E+03</pdfrwt>
<totfact> 0.53597953E+04</totfact>
</mgrwt>
</event>
<event>
 7    0  0.4748297E-002  0.4543514E+03  0.7546771E-02  0.1026432E+00
         21   -1    0    0  502  501  0.00000000000E+00  0.00000000000E+00  0.23262570664E+03  0.23262570664E+03  0.00000000000E+00 0. -1.
         21   -1    0    0  501  502 -0.00000000000E+00 -0.00000000000E+00 -0.22185340606E+03  0.22185340606E+03  0.00000000000E+00 0. -1.
      99926    2    1    2    0    0 -0.35527136788E-14  0.71054273576E-14  0.10772300577E+02  0.45447911270E+03  0.45435142942E+03 0.  0.
      99925    2    3    3    0    0 -0.29201487869E+02  0.48808026021E+02  0.10473343538E+03  0.28801243960E+03  0.26219672496E+03 0.  0.
         25    1    4    4    0    0 -0.98753382153E+01 -0.15172650615E+02  0.45937395635E+02  0.13448228154E+03  0.12509000000E+03 0.  0.
         25    1    4    4    0    0 -0.19326149654E+02  0.63980676637E+02  0.58796039747E+02  0.15353015806E+03  0.12509000000E+03 0.  0.
         25    1    3    3    0    0  0.29201487869E+02 -0.48808026021E+02 -0.93961134805E+02  0.16646667310E+03  0.12509000000E+03 0.  0.
<mgrwt>
<rscale>  2 0.45435143E+03</rscale>
<asrwt>0</asrwt>
<pdfrwt beam="1">  1       21 0.34209663E-01 0.45435143E+03</pdfrwt>
<pdfrwt beam="2">  1       21 0.32625501E-01 0.45435143E+03</pdfrwt>
<totfact> 0.68940043E+04</totfact>
</mgrwt>
</event>
<event>
 7    0  0.4748297E-002  0.4533815E+03  0.7546771E-02  0.1026718E+00
         21   -1    0    0  502  501  0.00000000000E+00  0.00000000000E+00  0.15067499376E+03  0.15067499376E+03  0.00000000000E+00 0. -1.
         21   -1    0    0  501  502 -0.00000000000E+00 -0.00000000000E+00 -0.34105660326E+03  0.34105660326E+03  0.00000000000E+00 0. -1.
      99926    2    1    2    0    0  0.00000000000E+00  0.00000000000E+00 -0.19038160950E+03  0.49173159702E+03  0.45338152396E+03 0.  0.
      99925    2    3    3    0    0  0.89735506253E+02 -0.30563443154E+02 -0.56016978269E+02  0.28512097927E+03  0.26300092362E+03 0.  0.
         25    1    4    4    0    0  0.51327793029E+02  0.22835000719E+02 -0.14906807113E+02  0.13793368187E+03  0.12509000000E+03 0.  0.
         25    1    3    3    0    0 -0.89735506253E+02  0.30563443154E+02 -0.13436463124E+03  0.20661061775E+03  0.12509000000E+03 0.  0.
         25    1    4    4    0    0  0.38407713224E+02 -0.53398443873E+02 -0.41110171156E+02  0.14718729740E+03  0.12509000000E+03 0.  0.
<mgrwt>
<rscale>  2 0.45338152E+03</rscale>
<asrwt>0</asrwt>
<pdfrwt beam="1">  1       21 0.22158088E-01 0.45338152E+03</pdfrwt>
<pdfrwt beam="2">  1       21 0.50155381E-01 0.45338152E+03</pdfrwt>
<totfact> 0.66708525E+04</totfact>
</mgrwt>
</event>
<event>
 7    0  0.4748297E-002  0.4553507E+03  0.7546771E-02  0.1026138E+00
         21   -1    0    0  502  501  0.00000000000E+00  0.00000000000E+00  0.11983583289E+03  0.11983583289E+03  0.00000000000E+00 0.  1.
         21   -1    0    0  501  502 -0.00000000000E+00 -0.00000000000E+00 -0.43255888171E+03  0.43255888171E+03  0.00000000000E+00 0.  1.
      99926    2    1    2    0    0 -0.35527136788E-14 -0.14210854715E-13 -0.31272304881E+03  0.55239471460E+03  0.45535065111E+03 0.  0.
      99925    2    3    3    0    0  0.21206595619E+02  0.10254703184E+03 -0.14235378531E+03  0.31651591631E+03  0.26258734099E+03 0.  0.
         25    1    3    3    0    0 -0.21206595619E+02 -0.10254703184E+03 -0.17036926351E+03  0.23587879829E+03  0.12509000000E+03 0.  0.
         25    1    4    4    0    0 -0.10765474116E+02  0.16622985601E+02 -0.51075363061E+02  0.13655921754E+03  0.12509000000E+03 0.  0.
         25    1    4    4    0    0  0.31972069735E+02  0.85924046236E+02 -0.91278422245E+02  0.17995669877E+03  0.12509000000E+03 0.  0.
<mgrwt>
<rscale>  2 0.45535065E+03</rscale>
<asrwt>0</asrwt>
<pdfrwt beam="1">  1       21 0.17622916E-01 0.45535065E+03</pdfrwt>
<pdfrwt beam="2">  1       21 0.63611601E-01 0.45535065E+03</pdfrwt>
<totfact> 0.61537651E+04</totfact>
</mgrwt>
</event>
<event>
 7    0  0.4748297E-002  0.4552422E+03  0.7546771E-02  0.1026170E+00
         21   -1    0    0  502  501  0.00000000000E+00  0.00000000000E+00  0.22917811381E+03  0.22917811381E+03  0.00000000000E+00 0. -1.
         21   -1    0    0  501  502 -0.00000000000E+00 -0.00000000000E+00 -0.22607470455E+03  0.22607470455E+03  0.00000000000E+00 0. -1.
      99926    2    1    2    0    0 -0.71054273576E-14  0.00000000000E+00  0.31034092637E+01  0.45525281836E+03  0.45524224043E+03 0.  0.
      99925    2    3    3    0    0  0.57757893587E+02 -0.43162265715E+02  0.89429122985E+02  0.28703096365E+03  0.26304039728E+03 0.  0.
         25    1    4    4    0    0  0.64796797381E+02 -0.31109338678E+01  0.52967849027E+02  0.15053705189E+03  0.12509000000E+03 0.  0.
         25    1    3    3    0    0 -0.57757893587E+02  0.43162265715E+02 -0.86325713721E+02  0.16822185471E+03  0.12509000000E+03 0.  0.
         25    1    4    4    0    0 -0.70389037941E+01 -0.40051331848E+02  0.36461273958E+02  0.13649391176E+03  0.12509000000E+03 0.  0.
<mgrwt>
<rscale>  2 0.45524224E+03</rscale>
<asrwt>0</asrwt>
<pdfrwt beam="1">  1       21 0.33702664E-01 0.45524224E+03</pdfrwt>
<pdfrwt beam="2">  1       21 0.33246280E-01 0.45524224E+03</pdfrwt>
<totfact> 0.68394981E+04</totfact>
</mgrwt>
</event>
<event>
 7    0  0.4748297E-002  0.4500238E+03  0.7546771E-02  0.1027715E+00
         21   -1    0    0  502  501  0.00000000000E+00  0.00000000000E+00  0.13882564915E+04  0.13882564915E+04  0.00000000000E+00 0. -1.
         21   -1    0    0  501  502 -0.00000000000E+00 -0.00000000000E+00 -0.36470467752E+02  0.36470467752E+02  0.00000000000E+00 0. -1.
      99926    2    1    2    0    0  0.71054273576E-14  0.44408920985E-15  0.13517860238E+04  0.14247269593E+04  0.45002383762E+03 0.  0.
      99925    2    3    3    0    0 -0.60705014216E+02 -0.24278923443E+01  0.56940918521E+03  0.63008740638E+03  0.26285419164E+03 0.  0.
         25    1    3    3    0    0  0.60705014216E+02  0.24278923443E+01  0.78237683855E+03  0.79463955289E+03  0.12509000000E+03 0.  0.
         25    1    4    4    0    0  0.47793488778E+01 -0.50594217539E+01  0.21918699756E+03  0.25246561731E+03  0.12509000000E+03 0.  0.
         25    1    4    4    0    0 -0.65484363094E+02  0.26315294096E+01  0.35022218766E+03  0.37762178908E+03  0.12509000000E+03 0.  0.
<mgrwt>
<rscale>  2 0.45002384E+03</rscale>
<asrwt>0</asrwt>
<pdfrwt beam="1">  1       21 0.20415533E+00 0.45002384E+03</pdfrwt>
<pdfrwt beam="2">  1       21 0.53633050E-02 0.45002384E+03</pdfrwt>
<totfact> 0.26697984E+04</totfact>
</mgrwt>
</event>
<event>
 7    0  0.4748297E-002  0.4567993E+03  0.7546771E-02  0.1025714E+00
         21   -1    0    0  502  501  0.00000000000E+00  0.00000000000E+00  0.23083402560E+03  0.23083402560E+03  0.00000000000E+00 0. -1.
         21   -1    0    0  501  502 -0.00000000000E+00 -0.00000000000E+00 -0.22599094740E+03  0.22599094740E+03  0.00000000000E+00 0. -1.
      99926    2    1    2    0    0  0.71054273576E-14 -0.35527136788E-14  0.48430782034E+01  0.45682497300E+03  0.45679930007E+03 0.  0.
      99925    2    3    3    0    0  0.63141017391E+02 -0.25540506026E+02 -0.89130423507E+02  0.28618607752E+03  0.26328526933E+03 0.  0.
         25    1    4    4    0    0  0.35924754465E+02  0.16610717656E+02 -0.73814998479E+02  0.15054124360E+03  0.12509000000E+03 0.  0.
         25    1    4    4    0    0  0.27216262926E+02 -0.42151223682E+02 -0.15315425028E+02  0.13564483392E+03  0.12509000000E+03 0.  0.
         25    1    3    3    0    0 -0.63141017391E+02  0.25540506026E+02  0.93973501710E+02  0.17063889547E+03  0.12509000000E+03 0.  0.
<mgrwt>
<rscale>  2 0.45679930E+03</rscale>
<asrwt>0</asrwt>
<pdfrwt beam="1">  1       21 0.33946180E-01 0.45679930E+03</pdfrwt>
<pdfrwt beam="2">  1       21 0.33233963E-01 0.45679930E+03</pdfrwt>
<totfact> 0.67438900E+04</totfact>
</mgrwt>
</event>
<event>
 7    0  0.4748297E-002  0.4459061E+03  0.7546771E-02  0.1028950E+00
         21   -1    0    0  502  501  0.00000000000E+00  0.00000000000E+00  0.90777943651E+02  0.90777943651E+02  0.00000000000E+00 0. -1.
         21   -1    0    0  501  502 -0.00000000000E+00 -0.00000000000E+00 -0.54757864320E+03  0.54757864320E+03  0.00000000000E+00 0. -1.
      99926    2    1    2    0    0  0.00000000000E+00  0.00000000000E+00 -0.45680069955E+03  0.63835658685E+03  0.44590610319E+03 0.  0.
      99925    2    3    3    0    0 -0.18874906562E+02  0.96118040139E+02 -0.23590067134E+03  0.36625500600E+03  0.26248554807E+03 0.  0.
         25    1    4    4    0    0  0.94308341838E+01  0.71749559614E+02 -0.88965854032E+02  0.16970377492E+03  0.12509000000E+03 0.  0.
         25    1    4    4    0    0 -0.28305740746E+02  0.24368480525E+02 -0.14693481730E+03  0.19655123108E+03  0.12509000000E+03 0.  0.
         25    1    3    3    0    0  0.18874906562E+02 -0.96118040139E+02 -0.22090002821E+03  0.27210158085E+03  0.12509000000E+03 0.  0.
<mgrwt>
<rscale>  2 0.44590610E+03</rscale>
<asrwt>0</asrwt>
<pdfrwt beam="1">  1       21 0.13349697E-01 0.44590610E+03</pdfrwt>
<pdfrwt beam="2">  1       21 0.80526272E-01 0.44590610E+03</pdfrwt>
<totfact> 0.60611263E+04</totfact>
</mgrwt>
</event>
<event>
 7    0  0.4748297E-002  0.3996338E+03  0.7546771E-02  0.1043907E+00
         21   -1    0    0  502  501  0.00000000000E+00  0.00000000000E+00  0.13072637546E+03  0.13072637546E+03  0.00000000000E+00 0.  1.
         21   -1    0    0  501  502 -0.00000000000E+00 -0.00000000000E+00 -0.30542264296E+03  0.30542264296E+03  0.00000000000E+00 0.  1.
      99926    2    1    2    0    0  0.35527136788E-14  0.00000000000E+00 -0.17469626750E+03  0.43614901842E+03  0.39963380787E+03 0.  0.
      99925    2    3    3    0    0 -0.19125001785E+02  0.22331960735E+02 -0.15346030810E+03  0.30590710414E+03  0.26299165013E+03 0.  0.
         25    1    3    3    0    0  0.19125001785E+02 -0.22331960735E+02 -0.21235959398E+02  0.13024191428E+03  0.12509000000E+03 0.  0.
         25    1    4    4    0    0 -0.36571962968E+02 -0.18999759826E+02 -0.73930017335E+02  0.15103527704E+03  0.12509000000E+03 0.  0.
         25    1    4    4    0    0  0.17446961183E+02  0.41331720561E+02 -0.79530290763E+02  0.15487182710E+03  0.12509000000E+03 0.  0.
<mgrwt>
<rscale>  2 0.39963381E+03</rscale>
<asrwt>0</asrwt>
<pdfrwt beam="1">  1       21 0.19224467E-01 0.39963381E+03</pdfrwt>
<pdfrwt beam="2">  1       21 0.44915093E-01 0.39963381E+03</pdfrwt>
<totfact> 0.11157674E+05</totfact>
</mgrwt>
</event>
<event>
 7    0  0.4748297E-002  0.4517613E+03  0.7546771E-02  0.1027198E+00
         21   -1    0    0  502  501  0.00000000000E+00  0.00000000000E+00  0.19733004761E+03  0.19733004761E+03  0.00000000000E+00 0.  1.
         21   -1    0    0  501  502 -0.00000000000E+00 -0.00000000000E+00 -0.25856212491E+03  0.25856212491E+03  0.00000000000E+00 0.  1.
      99926    2    1    2    0    0  0.00000000000E+00  0.00000000000E+00 -0.61232077295E+02  0.45589217252E+03  0.45176133707E+03 0.  0.
      99925    2    3    3    0    0 -0.71818317281E+02 -0.83055275859E+02 -0.30130825979E+02  0.28656749777E+03  0.26297721300E+03 0.  0.
         25    1    4    4    0    0 -0.63555228059E+02 -0.13055181689E+02 -0.23249182512E+02  0.14282064756E+03  0.12509000000E+03 0.  0.
         25    1    4    4    0    0 -0.82630892215E+01 -0.70000094170E+02 -0.68816434670E+01  0.14374685021E+03  0.12509000000E+03 0.  0.
         25    1    3    3    0    0  0.71818317281E+02  0.83055275859E+02 -0.31101251315E+02  0.16932467475E+03  0.12509000000E+03 0.  0.
<mgrwt>
<rscale>  2 0.45176134E+03</rscale>
<asrwt>0</asrwt>
<pdfrwt beam="1">  1       21 0.29019125E-01 0.45176134E+03</pdfrwt>
<pdfrwt beam="2">  1       21 0.38023842E-01 0.45176134E+03</pdfrwt>
<totfact> 0.70278646E+04</totfact>
</mgrwt>
</event>
<event>
 7    0  0.4748297E-002  0.4644968E+03  0.7546771E-02  0.1023485E+00
         21   -1    0    0  502  501  0.00000000000E+00  0.00000000000E+00  0.84378004507E+03  0.84378004507E+03  0.00000000000E+00 0. -1.
         21   -1    0    0  501  502 -0.00000000000E+00 -0.00000000000E+00 -0.63925813602E+02  0.63925813602E+02  0.00000000000E+00 0. -1.
      99926    2    1    2    0    0  0.00000000000E+00  0.00000000000E+00  0.77985423147E+03  0.90770585867E+03  0.46449682833E+03 0.  0.
      99925    2    3    3    0    0 -0.83093349957E+02  0.27734961104E+02  0.65224225887E+03  0.70869315424E+03  0.26296822952E+03 0.  0.
         25    1    4    4    0    0 -0.12914791054E+02  0.13447545447E+01  0.23245348201E+03  0.26429288600E+03  0.12509000000E+03 0.  0.
         25    1    3    3    0    0  0.83093349957E+02 -0.27734961104E+02  0.12761197259E+03  0.19901270443E+03  0.12509000000E+03 0.  0.
         25    1    4    4    0    0 -0.70178558904E+02  0.26390206560E+02  0.41978877686E+03  0.44440026824E+03  0.12509000000E+03 0.  0.
<mgrwt>
<rscale>  2 0.46449683E+03</rscale>
<asrwt>0</asrwt>
<pdfrwt beam="1">  1       21 0.12408529E+00 0.46449683E+03</pdfrwt>
<pdfrwt beam="2">  1       21 0.94008555E-02 0.46449683E+03</pdfrwt>
<totfact> 0.39855382E+04</totfact>
</mgrwt>
</event>
<event>
 7    0  0.4748297E-002  0.4490145E+03  0.7546771E-02  0.1028016E+00
         21   -1    0    0  502  501  0.00000000000E+00  0.00000000000E+00  0.13010313855E+04  0.13010313855E+04  0.00000000000E+00 0. -1.
         21   -1    0    0  501  502 -0.00000000000E+00 -0.00000000000E+00 -0.38741183192E+02  0.38741183192E+02  0.00000000000E+00 0. -1.
      99926    2    1    2    0    0  0.00000000000E+00  0.00000000000E+00  0.12622902023E+04  0.13397725686E+04  0.44901445519E+03 0.  0.
      99925    2    3    3    0    0  0.42679540179E+02  0.83561361043E+02  0.64273869686E+03  0.70079242799E+03  0.26304552928E+03 0.  0.
         25    1    4    4    0    0  0.40978378881E+02  0.87960565463E+01  0.26798785520E+03  0.29869984396E+03  0.12509000000E+03 0.  0.
         25    1    3    3    0    0 -0.42679540179E+02 -0.83561361043E+02  0.61955150540E+03  0.63898014066E+03  0.12509000000E+03 0.  0.
         25    1    4    4    0    0  0.17011612980E+01  0.74765304497E+02  0.37475084166E+03  0.40209258403E+03  0.12509000000E+03 0.  0.
<mgrwt>
<rscale>  2 0.44901446E+03</rscale>
<asrwt>0</asrwt>
<pdfrwt beam="1">  1       21 0.19132812E+00 0.44901446E+03</pdfrwt>
<pdfrwt beam="2">  1       21 0.56972337E-02 0.44901446E+03</pdfrwt>
<totfact> 0.29322227E+04</totfact>
</mgrwt>
</event>
<event>
 7    0  0.4748297E-002  0.4582332E+03  0.7546771E-02  0.1025295E+00
         21   -1    0    0  502  501  0.00000000000E+00  0.00000000000E+00  0.10682289409E+03  0.10682289409E+03  0.00000000000E+00 0. -1.
         21   -1    0    0  501  502 -0.00000000000E+00 -0.00000000000E+00 -0.49141532655E+03  0.49141532655E+03  0.00000000000E+00 0. -1.
      99926    2    1    2    0    0 -0.35527136788E-14 -0.88817841970E-15 -0.38459243246E+03  0.59823822064E+03  0.45823316066E+03 0.  0.
      99925    2    3    3    0    0  0.17641939246E+02 -0.62642097776E+01 -0.39123217089E+03  0.47158091698E+03  0.26263181714E+03 0.  0.
         25    1    3    3    0    0 -0.17641939246E+02  0.62642097776E+01  0.66397384328E+01  0.12665730366E+03  0.12509000000E+03 0.  0.
         25    1    4    4    0    0  0.29311075277E+02 -0.37323752050E+02 -0.20512754842E+03  0.24490206373E+03  0.12509000000E+03 0.  0.
         25    1    4    4    0    0 -0.11669136031E+02  0.31059542273E+02 -0.18610462247E+03  0.22667885324E+03  0.12509000000E+03 0.  0.
<mgrwt>
<rscale>  2 0.45823316E+03</rscale>
<asrwt>0</asrwt>
<pdfrwt beam="1">  1       21 0.15709249E-01 0.45823316E+03</pdfrwt>
<pdfrwt beam="2">  1       21 0.72266959E-01 0.45823316E+03</pdfrwt>
<totfact> 0.57308641E+04</totfact>
</mgrwt>
</event>
<event>
 7    0  0.4748297E-002  0.4549674E+03  0.7546771E-02  0.1026251E+00
         21   -1    0    0  502  501  0.00000000000E+00  0.00000000000E+00  0.32103036686E+03  0.32103036686E+03  0.00000000000E+00 0. -1.
         21   -1    0    0  501  502 -0.00000000000E+00 -0.00000000000E+00 -0.16119604719E+03  0.16119604719E+03  0.00000000000E+00 0. -1.
      99926    2    1    2    0    0  0.00000000000E+00 -0.14210854715E-13  0.15983431967E+03  0.48222641405E+03  0.45496736659E+03 0.  0.
      99925    2    3    3    0    0  0.27004807237E+02  0.10410091123E+03  0.13833231393E+03  0.31586504929E+03  0.26280913408E+03 0.  0.
         25    1    4    4    0    0  0.34510589255E+01  0.16381740543E+02  0.38911302697E+02  0.13206766754E+03  0.12509000000E+03 0.  0.
         25    1    4    4    0    0  0.23553748312E+02  0.87719170688E+02  0.99421011233E+02  0.18379738176E+03  0.12509000000E+03 0.  0.
         25    1    3    3    0    0 -0.27004807237E+02 -0.10410091123E+03  0.21502005744E+02  0.16636136476E+03  0.12509000000E+03 0.  0.
<mgrwt>
<rscale>  2 0.45496737E+03</rscale>
<asrwt>0</asrwt>
<pdfrwt beam="1">  1       21 0.47210348E-01 0.45496737E+03</pdfrwt>
<pdfrwt beam="2">  1       21 0.23705301E-01 0.45496737E+03</pdfrwt>
<totfact> 0.66555628E+04</totfact>
</mgrwt>
</event>
<event>
 7    0  0.4748297E-002  0.4644294E+03  0.7546771E-02  0.1023504E+00
         21   -1    0    0  502  501  0.00000000000E+00  0.00000000000E+00  0.90845916406E+02  0.90845916406E+02  0.00000000000E+00 0. -1.
         21   -1    0    0  501  502 -0.00000000000E+00 -0.00000000000E+00 -0.59357283670E+03  0.59357283670E+03  0.00000000000E+00 0. -1.
      99926    2    1    2    0    0  0.00000000000E+00  0.00000000000E+00 -0.50272692029E+03  0.68441875311E+03  0.46442940606E+03 0.  0.
      99925    2    3    3    0    0 -0.96794570320E+02  0.70417261522E+02 -0.34673417249E+03  0.45137578490E+03  0.26303561215E+03 0.  0.
         25    1    4    4    0    0 -0.81954360769E+02  0.28208801489E+02 -0.22194027263E+03  0.26910452699E+03  0.12509000000E+03 0.  0.
         25    1    4    4    0    0 -0.14840209551E+02  0.42208460033E+02 -0.12479389986E+03  0.18227125791E+03  0.12509000000E+03 0.  0.
         25    1    3    3    0    0  0.96794570320E+02 -0.70417261522E+02 -0.15599274780E+03  0.23304296821E+03  0.12509000000E+03 0.  0.
<mgrwt>
<rscale>  2 0.46442941E+03</rscale>
<asrwt>0</asrwt>
<pdfrwt beam="1">  1       21 0.13359693E-01 0.46442941E+03</pdfrwt>
<pdfrwt beam="2">  1       21 0.87290130E-01 0.46442941E+03</pdfrwt>
<totfact> 0.49942590E+04</totfact>
</mgrwt>
</event>
<event>
 7    0  0.4748297E-002  0.4558214E+03  0.7546771E-02  0.1026000E+00
         21   -1    0    0  502  501  0.00000000000E+00  0.00000000000E+00  0.19558508310E+03  0.19558508310E+03  0.00000000000E+00 0.  1.
         21   -1    0    0  501  502 -0.00000000000E+00 -0.00000000000E+00 -0.26557899539E+03  0.26557899539E+03  0.00000000000E+00 0.  1.
      99926    2    1    2    0    0  0.00000000000E+00  0.00000000000E+00 -0.69993912287E+02  0.46116407849E+03  0.45582141188E+03 0.  0.
      99925    2    3    3    0    0  0.43196304660E+02 -0.76121800858E+02 -0.11770891189E+03  0.30121196506E+03  0.26308327704E+03 0.  0.
         25    1    3    3    0    0 -0.43196304660E+02  0.76121800858E+02  0.47714999606E+02  0.15995211343E+03  0.12509000000E+03 0.  0.
         25    1    4    4    0    0  0.50827447392E+02 -0.53311209969E+02 -0.34970803720E+02  0.14931838376E+03  0.12509000000E+03 0.  0.
         25    1    4    4    0    0 -0.76311427313E+01 -0.22810590889E+02 -0.82738108173E+02  0.15189358130E+03  0.12509000000E+03 0.  0.
<mgrwt>
<rscale>  2 0.45582141E+03</rscale>
<asrwt>0</asrwt>
<pdfrwt beam="1">  1       21 0.28762513E-01 0.45582141E+03</pdfrwt>
<pdfrwt beam="2">  1       21 0.39055734E-01 0.45582141E+03</pdfrwt>
<totfact> 0.67651572E+04</totfact>
</mgrwt>
</event>
<event>
 7    0  0.4748297E-002  0.4230724E+03  0.7546771E-02  0.1036071E+00
         21   -1    0    0  502  501  0.00000000000E+00  0.00000000000E+00  0.46352746716E+02  0.46352746716E+02  0.00000000000E+00 0. -1.
         21   -1    0    0  501  502 -0.00000000000E+00 -0.00000000000E+00 -0.96537008989E+03  0.96537008989E+03  0.00000000000E+00 0. -1.
      99926    2    1    2    0    0  0.00000000000E+00  0.00000000000E+00 -0.91901734317E+03  0.10117228366E+04  0.42307235912E+03 0.  0.
      99925    2    3    3    0    0 -0.39932493119E+02  0.33546121336E+02 -0.45308297265E+03  0.52647826734E+03  0.26301186212E+03 0.  0.
         25    1    4    4    0    0 -0.31381105291E+02 -0.18737483992E+02 -0.25372081400E+03  0.28523258340E+03  0.12509000000E+03 0.  0.
         25    1    4    4    0    0 -0.85513878274E+01  0.52283605328E+02 -0.19936215864E+03  0.24124568394E+03  0.12509000000E+03 0.  0.
         25    1    3    3    0    0  0.39932493119E+02 -0.33546121336E+02 -0.46593437053E+03  0.48524456927E+03  0.12509000000E+03 0.  0.
<mgrwt>
<rscale>  2 0.42307236E+03</rscale>
<asrwt>0</asrwt>
<pdfrwt beam="1">  1       21 0.68165800E-02 0.42307236E+03</pdfrwt>
<pdfrwt beam="2">  1       21 0.14196620E+00 0.42307236E+03</pdfrwt>
<totfact> 0.50082723E+04</totfact>
</mgrwt>
</event>
<event>
 7    0  0.4748297E-002  0.4499860E+03  0.7546771E-02  0.1027726E+00
         21   -1    0    0  502  501  0.00000000000E+00  0.00000000000E+00  0.11003239192E+04  0.11003239192E+04  0.00000000000E+00 0. -1.
         21   -1    0    0  501  502 -0.00000000000E+00 -0.00000000000E+00 -0.46006317002E+02  0.46006317002E+02  0.00000000000E+00 0. -1.
      99926    2    1    2    0    0  0.88817841970E-15  0.00000000000E+00  0.10543176022E+04  0.11463302362E+04  0.44998600437E+03 0.  0.
      99925    2    3    3    0    0  0.47600705115E+01  0.65039903869E+02  0.88763913415E+03  0.92796799776E+03  0.26261859231E+03 0.  0.
         25    1    4    4    0    0  0.36704306215E+02  0.48798125714E+02  0.41367398254E+03  0.43646550276E+03  0.12509000000E+03 0.  0.
         25    1    3    3    0    0 -0.47600705115E+01 -0.65039903869E+02  0.16667846805E+03  0.21836223844E+03  0.12509000000E+03 0.  0.
         25    1    4    4    0    0 -0.31944235703E+02  0.16241778155E+02  0.47396515161E+03  0.49150249500E+03  0.12509000000E+03 0.  0.
<mgrwt>
<rscale>  2 0.44998600E+03</rscale>
<asrwt>0</asrwt>
<pdfrwt beam="1">  1       21 0.16181232E+00 0.44998600E+03</pdfrwt>
<pdfrwt beam="2">  1       21 0.67656356E-02 0.44998600E+03</pdfrwt>
<totfact> 0.35263151E+04</totfact>
</mgrwt>
</event>
<event>
 7    0  0.4748297E-002  0.4552470E+03  0.7546771E-02  0.1026169E+00
         21   -1    0    0  502  501  0.00000000000E+00  0.00000000000E+00  0.71904178730E+02  0.71904178730E+02  0.00000000000E+00 0.  1.
         21   -1    0    0  501  502 -0.00000000000E+00 -0.00000000000E+00 -0.72057644176E+03  0.72057644176E+03  0.00000000000E+00 0.  1.
      99926    2    1    2    0    0 -0.35527136788E-14  0.00000000000E+00 -0.64867226303E+03  0.79248062049E+03  0.45524699782E+03 0.  0.
      99925    2    3    3    0    0 -0.85985001686E+01 -0.10130242008E+03 -0.49531246420E+03  0.56998825991E+03  0.26308946144E+03 0.  0.
         25    1    3    3    0    0  0.85985001686E+01  0.10130242008E+03 -0.15335979882E+03  0.22249236058E+03  0.12509000000E+03 0.  0.
         25    1    4    4    0    0  0.31728477894E+02 -0.36751463107E+02 -0.26571112221E+03  0.29766974135E+03  0.12509000000E+03 0.  0.
         25    1    4    4    0    0 -0.40326978063E+02 -0.64550956974E+02 -0.22960134200E+03  0.27231851856E+03  0.12509000000E+03 0.  0.
<mgrwt>
<rscale>  2 0.45524700E+03</rscale>
<asrwt>0</asrwt>
<pdfrwt beam="1">  1       21 0.10574144E-01 0.45524700E+03</pdfrwt>
<pdfrwt beam="2">  1       21 0.10596713E+00 0.45524700E+03</pdfrwt>
<totfact> 0.48037486E+04</totfact>
</mgrwt>
</event>
<event>
 7    0  0.4748297E-002  0.4607018E+03  0.7546771E-02  0.1024578E+00
         21   -1    0    0  502  501  0.00000000000E+00  0.00000000000E+00  0.89124852745E+02  0.89124852745E+02  0.00000000000E+00 0.  1.
         21   -1    0    0  501  502 -0.00000000000E+00 -0.00000000000E+00 -0.59536183320E+03  0.59536183320E+03  0.00000000000E+00 0.  1.
      99926    2    1    2    0    0  0.14210854715E-13  0.00000000000E+00 -0.50623698046E+03  0.68448668595E+03  0.46070179385E+03 0.  0.
      99925    2    3    3    0    0  0.11704724883E+03  0.92569693050E+01 -0.29360878362E+03  0.41127612954E+03  0.26297563951E+03 0.  0.
         25    1    3    3    0    0 -0.11704724883E+03 -0.92569693050E+01 -0.21262819684E+03  0.27321055641E+03  0.12509000000E+03 0.  0.
         25    1    4    4    0    0  0.78767847506E+02  0.81033430673E+01 -0.10403153045E+03  0.18094227090E+03  0.12509000000E+03 0.  0.
         25    1    4    4    0    0  0.38279401328E+02  0.11536262378E+01 -0.18957725317E+03  0.23033385865E+03  0.12509000000E+03 0.  0.
<mgrwt>
<rscale>  2 0.46070179E+03</rscale>
<asrwt>0</asrwt>
<pdfrwt beam="1">  1       21 0.13106597E-01 0.46070179E+03</pdfrwt>
<pdfrwt beam="2">  1       21 0.87553207E-01 0.46070179E+03</pdfrwt>
<totfact> 0.51405721E+04</totfact>
</mgrwt>
</event>
<event>
 7    0  0.4748297E-002  0.4554619E+03  0.7546771E-02  0.1026106E+00
         21   -1    0    0  502  501  0.00000000000E+00  0.00000000000E+00  0.26306854907E+03  0.26306854907E+03  0.00000000000E+00 0.  1.
         21   -1    0    0  501  502 -0.00000000000E+00 -0.00000000000E+00 -0.19714021095E+03  0.19714021095E+03  0.00000000000E+00 0.  1.
      99926    2    1    2    0    0  0.35527136788E-14  0.00000000000E+00  0.65928338119E+02  0.46020876002E+03  0.45546191611E+03 0.  0.
      99925    2    3    3    0    0  0.17608187726E+02 -0.87765359661E+02 -0.29052826576E+02  0.27942785290E+03  0.26310273965E+03 0.  0.
         25    1    4    4    0    0 -0.26360928489E+02 -0.41957948090E+02  0.65226097946E+01  0.13470493865E+03  0.12509000000E+03 0.  0.
         25    1    3    3    0    0 -0.17608187726E+02  0.87765359661E+02  0.94981164695E+02  0.18078090712E+03  0.12509000000E+03 0.  0.
         25    1    4    4    0    0  0.43969116215E+02 -0.45807411570E+02 -0.35575436371E+02  0.14472291425E+03  0.12509000000E+03 0.  0.
<mgrwt>
<rscale>  2 0.45546192E+03</rscale>
<asrwt>0</asrwt>
<pdfrwt beam="1">  1       21 0.38686552E-01 0.45546192E+03</pdfrwt>
<pdfrwt beam="2">  1       21 0.28991207E-01 0.45546192E+03</pdfrwt>
<totfact> 0.67914845E+04</totfact>
</mgrwt>
</event>
<event>
 7    0  0.4748297E-002  0.4542254E+03  0.7546771E-02  0.1026469E+00
         21   -1    0    0  502  501  0.00000000000E+00  0.00000000000E+00  0.54264216307E+03  0.54264216307E+03  0.00000000000E+00 0.  1.
         21   -1    0    0  501  502 -0.00000000000E+00 -0.00000000000E+00 -0.95053777022E+02  0.95053777022E+02  0.00000000000E+00 0.  1.
      99926    2    1    2    0    0  0.00000000000E+00  0.35527136788E-14  0.44758838605E+03  0.63769594009E+03  0.45422543818E+03 0.  0.
      99925    2    3    3    0    0 -0.47196069950E+02  0.28993562847E+02  0.41922266140E+03  0.49798116586E+03  0.26300096200E+03 0.  0.
         25    1    4    4    0    0 -0.54756853947E+02 -0.29872520873E+01  0.25137679464E+03  0.28608571743E+03  0.12509000000E+03 0.  0.
         25    1    3    3    0    0  0.47196069950E+02 -0.28993562847E+02  0.28365724647E+02  0.13971477424E+03  0.12509000000E+03 0.  0.
         25    1    4    4    0    0  0.75607839969E+01  0.31980814934E+02  0.16784586676E+03  0.21189544843E+03  0.12509000000E+03 0.  0.
<mgrwt>
<rscale>  2 0.45422544E+03</rscale>
<asrwt>0</asrwt>
<pdfrwt beam="1">  1       21 0.79800317E-01 0.45422544E+03</pdfrwt>
<pdfrwt beam="2">  1       21 0.13978497E-01 0.45422544E+03</pdfrwt>
<totfact> 0.56762137E+04</totfact>
</mgrwt>
</event>
<event>
 7    0  0.4748297E-002  0.4565755E+03  0.7546771E-02  0.1025779E+00
         21   -1    0    0  502  501  0.00000000000E+00  0.00000000000E+00  0.17484401492E+03  0.17484401492E+03  0.00000000000E+00 0.  1.
         21   -1    0    0  501  502 -0.00000000000E+00 -0.00000000000E+00 -0.29806738799E+03  0.29806738799E+03  0.00000000000E+00 0.  1.
      99926    2    1    2    0    0  0.00000000000E+00 -0.31086244690E-14 -0.12322337308E+03  0.47291140291E+03  0.45657550890E+03 0.  0.
      99925    2    3    3    0    0  0.42857957994E+02 -0.38767214302E+01 -0.18745245255E+03  0.32585795588E+03  0.26304591218E+03 0.  0.
         25    1    4    4    0    0  0.26600591641E+02  0.32039426689E+02 -0.12045779057E+03  0.17858248443E+03  0.12509000000E+03 0.  0.
         25    1    4    4    0    0  0.16257366353E+02 -0.35916148119E+02 -0.66994661982E+02  0.14727547145E+03  0.12509000000E+03 0.  0.
         25    1    3    3    0    0 -0.42857957994E+02  0.38767214302E+01  0.64229079472E+02  0.14705344703E+03  0.12509000000E+03 0.  0.
<mgrwt>
<rscale>  2 0.45657551E+03</rscale>
<asrwt>0</asrwt>
<pdfrwt beam="1">  1       21 0.25712355E-01 0.45657551E+03</pdfrwt>
<pdfrwt beam="2">  1       21 0.43833439E-01 0.45657551E+03</pdfrwt>
<totfact> 0.66386132E+04</totfact>
</mgrwt>
</event>
<event>
 7    0  0.4748297E-002  0.4213805E+03  0.7546771E-02  0.1036618E+00
         21   -1    0    0  502  501  0.00000000000E+00  0.00000000000E+00  0.23701220041E+03  0.23701220041E+03  0.00000000000E+00 0.  1.
         21   -1    0    0  501  502 -0.00000000000E+00 -0.00000000000E+00 -0.18729153128E+03  0.18729153128E+03  0.00000000000E+00 0.  1.
      99926    2    1    2    0    0  0.71054273576E-14  0.26645352591E-14  0.49720669135E+02  0.42430373169E+03  0.42138048340E+03 0.  0.
      99925    2    3    3    0    0 -0.59633182335E+02 -0.70067138068E+01 -0.17085760666E+02  0.27030432378E+03  0.26299675619E+03 0.  0.
         25    1    4    4    0    0 -0.27964998687E+01  0.25131751976E+02 -0.19946846918E+02  0.12916969525E+03  0.12509000000E+03 0.  0.
         25    1    3    3    0    0  0.59633182335E+02  0.70067138068E+01  0.66806429801E+02  0.15399940791E+03  0.12509000000E+03 0.  0.
         25    1    4    4    0    0 -0.56836682467E+02 -0.32138465783E+02  0.28610862515E+01  0.14113462853E+03  0.12509000000E+03 0.  0.
<mgrwt>
<rscale>  2 0.42138048E+03</rscale>
<asrwt>0</asrwt>
<pdfrwt beam="1">  1       21 0.34854735E-01 0.42138048E+03</pdfrwt>
<pdfrwt beam="2">  1       21 0.27542872E-01 0.42138048E+03</pdfrwt>
<totfact> 0.93538089E+04</totfact>
</mgrwt>
</event>
<event>
 7    0  0.4748297E-002  0.4550739E+03  0.7546771E-02  0.1026220E+00
         21   -1    0    0  502  501  0.00000000000E+00  0.00000000000E+00  0.48118506341E+03  0.48118506341E+03  0.00000000000E+00 0.  1.
         21   -1    0    0  501  502 -0.00000000000E+00 -0.00000000000E+00 -0.10759489021E+03  0.10759489021E+03  0.00000000000E+00 0.  1.
      99926    2    1    2    0    0  0.00000000000E+00  0.14210854715E-13  0.37359017320E+03  0.58877995362E+03  0.45507385805E+03 0.  0.
      99925    2    3    3    0    0  0.57563430495E+01 -0.80155692836E+02  0.13178827538E+03  0.30492482073E+03  0.26296943965E+03 0.  0.
         25    1    4    4    0    0  0.59222705208E+00 -0.82331933503E+02  0.70897181857E+02  0.16568891484E+03  0.12509000000E+03 0.  0.
         25    1    4    4    0    0  0.51641159974E+01  0.21762406676E+01  0.60891093519E+02  0.13923590588E+03  0.12509000000E+03 0.  0.
         25    1    3    3    0    0 -0.57563430495E+01  0.80155692836E+02  0.24180189782E+03  0.28385513289E+03  0.12509000000E+03 0.  0.
<mgrwt>
<rscale>  2 0.45507386E+03</rscale>
<asrwt>0</asrwt>
<pdfrwt beam="1">  1       21 0.70762509E-01 0.45507386E+03</pdfrwt>
<pdfrwt beam="2">  1       21 0.15822778E-01 0.45507386E+03</pdfrwt>
<totfact> 0.59339611E+04</totfact>
</mgrwt>
</event>
<event>
 7    0  0.4748297E-002  0.4590305E+03  0.7546771E-02  0.1025063E+00
         21   -1    0    0  502  501  0.00000000000E+00  0.00000000000E+00  0.15200401191E+03  0.15200401191E+03  0.00000000000E+00 0.  1.
         21   -1    0    0  501  502 -0.00000000000E+00 -0.00000000000E+00 -0.34655166545E+03  0.34655166545E+03  0.00000000000E+00 0.  1.
      99926    2    1    2    0    0  0.00000000000E+00  0.00000000000E+00 -0.19454765354E+03  0.49855567736E+03  0.45903047167E+03 0.  0.
      99925    2    3    3    0    0  0.64114462443E+02 -0.10363757521E+02 -0.16375924644E+02  0.27137569399E+03  0.26298008407E+03 0.  0.
         25    1    4    4    0    0  0.12218749566E+02 -0.32474570549E+02 -0.30746346035E+02  0.13340442822E+03  0.12509000000E+03 0.  0.
         25    1    3    3    0    0 -0.64114462443E+02  0.10363757521E+02 -0.17817172890E+03  0.22717998337E+03  0.12509000000E+03 0.  0.
         25    1    4    4    0    0  0.51895712877E+02  0.22110813027E+02  0.14370421391E+02  0.13797126577E+03  0.12509000000E+03 0.  0.
<mgrwt>
<rscale>  2 0.45903047E+03</rscale>
<asrwt>0</asrwt>
<pdfrwt beam="1">  1       21 0.22353532E-01 0.45903047E+03</pdfrwt>
<pdfrwt beam="2">  1       21 0.50963479E-01 0.45903047E+03</pdfrwt>
<totfact> 0.63321843E+04</totfact>
</mgrwt>
</event>
<event>
 7    0  0.4748297E-002  0.4585575E+03  0.7546771E-02  0.1025200E+00
         21   -1    0    0  502  501  0.00000000000E+00  0.00000000000E+00  0.29761641512E+02  0.29761641512E+02  0.00000000000E+00 0.  1.
         21   -1    0    0  501  502 -0.00000000000E+00 -0.00000000000E+00 -0.17663251594E+04  0.17663251594E+04  0.00000000000E+00 0.  1.
      99926    2    1    2    0    0  0.00000000000E+00  0.00000000000E+00 -0.17365635179E+04  0.17960868009E+04  0.45855746069E+03 0.  0.
      99925    2    3    3    0    0 -0.29659452668E+02 -0.19183891483E+02 -0.15241412947E+04  0.15470518359E+04  0.26289730264E+03 0.  0.
         25    1    3    3    0    0  0.29659452668E+02  0.19183891483E+02 -0.21242222318E+03  0.24903496507E+03  0.12509000000E+03 0.  0.
         25    1    4    4    0    0 -0.33630867708E+02  0.96695316643E+01 -0.59047526309E+03  0.60459331747E+03  0.12509000000E+03 0.  0.
         25    1    4    4    0    0  0.39714150403E+01 -0.28853423147E+02 -0.93366603164E+03  0.94245851840E+03  0.12509000000E+03 0.  0.
<mgrwt>
<rscale>  2 0.45855746E+03</rscale>
<asrwt>0</asrwt>
<pdfrwt beam="1">  1       21 0.43767127E-02 0.45855746E+03</pdfrwt>
<pdfrwt beam="2">  1       21 0.25975366E+00 0.45855746E+03</pdfrwt>
<totfact> 0.16864171E+04</totfact>
</mgrwt>
</event>
<event>
 7    0  0.4748297E-002  0.4486172E+03  0.7546771E-02  0.1028135E+00
         21   -1    0    0  502  501  0.00000000000E+00  0.00000000000E+00  0.37672311151E+03  0.37672311151E+03  0.00000000000E+00 0.  1.
         21   -1    0    0  501  502 -0.00000000000E+00 -0.00000000000E+00 -0.13355792186E+03  0.13355792186E+03  0.00000000000E+00 0.  1.
      99926    2    1    2    0    0  0.00000000000E+00  0.00000000000E+00  0.24316518964E+03  0.51028103337E+03  0.44861723502E+03 0.  0.
      99925    2    3    3    0    0  0.63026289800E+02  0.81474002087E+02  0.12065432978E+03  0.30713885383E+03  0.26299521291E+03 0.  0.
         25    1    4    4    0    0 -0.96362955908E+00  0.12210473945E+02  0.49490236893E+02  0.13508077548E+03  0.12509000000E+03 0.  0.
         25    1    4    4    0    0  0.63989919359E+02  0.69263528143E+02  0.71164092884E+02  0.17205807835E+03  0.12509000000E+03 0.  0.
         25    1    3    3    0    0 -0.63026289800E+02 -0.81474002087E+02  0.12251085987E+03  0.20314217954E+03  0.12509000000E+03 0.  0.
<mgrwt>
<rscale>  2 0.44861724E+03</rscale>
<asrwt>0</asrwt>
<pdfrwt beam="1">  1       21 0.55400457E-01 0.44861724E+03</pdfrwt>
<pdfrwt beam="2">  1       21 0.19640871E-01 0.44861724E+03</pdfrwt>
<totfact> 0.67930225E+04</totfact>
</mgrwt>
</event>
<event>
 7    0  0.4748297E-002  0.4531542E+03  0.7546771E-02  0.1026786E+00
         21   -1    0    0  502  501  0.00000000000E+00  0.00000000000E+00  0.22638544294E+03  0.22638544294E+03  0.00000000000E+00 0.  1.
         21   -1    0    0  501  502 -0.00000000000E+00 -0.00000000000E+00 -0.22676893919E+03  0.22676893919E+03  0.00000000000E+00 0.  1.
      99926    2    1    2    0    0  0.00000000000E+00 -0.35527136788E-14 -0.38349624772E+00  0.45315438213E+03  0.45315421986E+03 0.  0.
      99925    2    3    3    0    0  0.11094893611E+03  0.90497587420E+01  0.52231327388E+01  0.28561182949E+03  0.26297389884E+03 0.  0.
         25    1    4    4    0    0  0.28215394133E+02  0.34377245457E+02  0.12442383280E+02  0.13334250812E+03  0.12509000000E+03 0.  0.
         25    1    3    3    0    0 -0.11094893611E+03 -0.90497587420E+01 -0.56066289865E+01  0.16754255264E+03  0.12509000000E+03 0.  0.
         25    1    4    4    0    0  0.82733541973E+02 -0.25327486715E+02 -0.72192505411E+01  0.15226932137E+03  0.12509000000E+03 0.  0.
<mgrwt>
<rscale>  2 0.45315422E+03</rscale>
<asrwt>0</asrwt>
<pdfrwt beam="1">  1       21 0.33291977E-01 0.45315422E+03</pdfrwt>
<pdfrwt beam="2">  1       21 0.33348373E-01 0.45315422E+03</pdfrwt>
<totfact> 0.69702099E+04</totfact>
</mgrwt>
</event>
<event>
 7    0  0.4748297E-002  0.4105109E+03  0.7546771E-02  0.1040200E+00
         21   -1    0    0  502  501  0.00000000000E+00  0.00000000000E+00  0.55864515577E+02  0.55864515577E+02  0.00000000000E+00 0.  1.
         21   -1    0    0  501  502 -0.00000000000E+00 -0.00000000000E+00 -0.75414230221E+03  0.75414230221E+03  0.00000000000E+00 0.  1.
      99926    2    1    2    0    0 -0.44408920985E-15 -0.71054273576E-14 -0.69827778663E+03  0.81000681779E+03  0.41051087386E+03 0.  0.
      99925    2    3    3    0    0 -0.66247151530E+00  0.57335576944E+02 -0.51185410539E+03  0.57829772371E+03  0.26295593697E+03 0.  0.
         25    1    4    4    0    0  0.68643322797E+01  0.12894104142E+02 -0.17055976019E+03  0.21201772774E+03  0.12509000000E+03 0.  0.
         25    1    3    3    0    0  0.66247151530E+00 -0.57335576944E+02 -0.18642368124E+03  0.23170909408E+03  0.12509000000E+03 0.  0.
         25    1    4    4    0    0 -0.75268037950E+01  0.44441472802E+02 -0.34129434520E+03  0.36627999596E+03  0.12509000000E+03 0.  0.
<mgrwt>
<rscale>  2 0.41051087E+03</rscale>
<asrwt>0</asrwt>
<pdfrwt beam="1">  1       21 0.82153707E-02 0.41051087E+03</pdfrwt>
<pdfrwt beam="2">  1       21 0.11090327E+00 0.41051087E+03</pdfrwt>
<totfact> 0.68131603E+04</totfact>
</mgrwt>
</event>
<event>
 7    0  0.4748297E-002  0.4511709E+03  0.7546771E-02  0.1027373E+00
         21   -1    0    0  502  501  0.00000000000E+00  0.00000000000E+00  0.73032335092E+02  0.73032335092E+02  0.00000000000E+00 0. -1.
         21   -1    0    0  501  502 -0.00000000000E+00 -0.00000000000E+00 -0.69679812901E+03  0.69679812901E+03  0.00000000000E+00 0. -1.
      99926    2    1    2    0    0  0.00000000000E+00  0.14210854715E-13 -0.62376579392E+03  0.76983046411E+03  0.45117089644E+03 0.  0.
      99925    2    3    3    0    0 -0.42516936508E+02 -0.86337326892E+02 -0.48326985782E+03  0.55852868923E+03  0.26295002816E+03 0.  0.
         25    1    4    4    0    0 -0.52677503658E+02 -0.26539225561E+02 -0.27962574987E+03  0.31195723741E+03  0.12509000000E+03 0.  0.
         25    1    3    3    0    0  0.42516936508E+02  0.86337326892E+02 -0.14049593610E+03  0.21130177488E+03  0.12509000000E+03 0.  0.
         25    1    4    4    0    0  0.10160567150E+02 -0.59798101331E+02 -0.20364410795E+03  0.24657145182E+03  0.12509000000E+03 0.  0.
<mgrwt>
<rscale>  2 0.45117090E+03</rscale>
<asrwt>0</asrwt>
<pdfrwt beam="1">  1       21 0.10740050E-01 0.45117090E+03</pdfrwt>
<pdfrwt beam="2">  1       21 0.10247031E+00 0.45117090E+03</pdfrwt>
<totfact> 0.50767555E+04</totfact>
</mgrwt>
</event>
<event>
 7    0  0.4748297E-002  0.4305160E+03  0.7546771E-02  0.1033697E+00
         21   -1    0    0  502  501  0.00000000000E+00  0.00000000000E+00  0.98683168423E+02  0.98683168423E+02  0.00000000000E+00 0. -1.
         21   -1    0    0  501  502 -0.00000000000E+00 -0.00000000000E+00 -0.46954321546E+03  0.46954321546E+03  0.00000000000E+00 0. -1.
      99926    2    1    2    0    0  0.00000000000E+00 -0.88817841970E-15 -0.37086004703E+03  0.56822638388E+03  0.43051602624E+03 0.  0.
      99925    2    3    3    0    0 -0.74204187175E+02 -0.35898097511E+01 -0.17619478046E+03  0.32520123654E+03  0.26304390405E+03 0.  0.
         25    1    4    4    0    0 -0.55117697414E+02 -0.38591584391E+02 -0.92651589485E+02  0.16958507036E+03  0.12509000000E+03 0.  0.
         25    1    4    4    0    0 -0.19086489761E+02  0.35001774640E+02 -0.83543190974E+02  0.15561616618E+03  0.12509000000E+03 0.  0.
         25    1    3    3    0    0  0.74204187175E+02  0.35898097511E+01 -0.19466526657E+03  0.24302514734E+03  0.12509000000E+03 0.  0.
<mgrwt>
<rscale>  2 0.43051603E+03</rscale>
<asrwt>0</asrwt>
<pdfrwt beam="1">  1       21 0.14512231E-01 0.43051603E+03</pdfrwt>
<pdfrwt beam="2">  1       21 0.69050473E-01 0.43051603E+03</pdfrwt>
<totfact> 0.73997528E+04</totfact>
</mgrwt>
</event>
<event>
 7    0  0.4748297E-002  0.4597884E+03  0.7546771E-02  0.1024843E+00
         21   -1    0    0  502  501  0.00000000000E+00  0.00000000000E+00  0.23455275993E+03  0.23455275993E+03  0.00000000000E+00 0.  1.
         21   -1    0    0  501  502 -0.00000000000E+00 -0.00000000000E+00 -0.22532815014E+03  0.22532815014E+03  0.00000000000E+00 0.  1.
      99926    2    1    2    0    0  0.88817841970E-15  0.00000000000E+00  0.92246097965E+01  0.45988091007E+03  0.45978838395E+03 0.  0.
      99925    2    3    3    0    0  0.63289724099E+01  0.57532639255E+02  0.10818171640E+03  0.29020451949E+03  0.26299300162E+03 0.  0.
         25    1    3    3    0    0 -0.63289724099E+01 -0.57532639255E+02 -0.98957106601E+02  0.16967639057E+03  0.12509000000E+03 0.  0.
         25    1    4    4    0    0 -0.27055932554E+01 -0.59459951494E+01  0.74206977689E+02  0.14559141022E+03  0.12509000000E+03 0.  0.
         25    1    4    4    0    0  0.90345656654E+01  0.63478634404E+02  0.33974738709E+02  0.14461310927E+03  0.12509000000E+03 0.  0.
<mgrwt>
<rscale>  2 0.45978838E+03</rscale>
<asrwt>0</asrwt>
<pdfrwt beam="1">  1       21 0.34493053E-01 0.45978838E+03</pdfrwt>
<pdfrwt beam="2">  1       21 0.33136493E-01 0.45978838E+03</pdfrwt>
<totfact> 0.65645544E+04</totfact>
</mgrwt>
</event>
<event>
 7    0  0.4748297E-002  0.4449927E+03  0.7546771E-02  0.1029226E+00
         21   -1    0    0  502  501  0.00000000000E+00  0.00000000000E+00  0.18795072735E+03  0.18795072735E+03  0.00000000000E+00 0.  1.
         21   -1    0    0  501  502 -0.00000000000E+00 -0.00000000000E+00 -0.26339152956E+03  0.26339152956E+03  0.00000000000E+00 0.  1.
      99926    2    1    2    0    0  0.00000000000E+00  0.00000000000E+00 -0.75440802210E+02  0.45134225691E+03  0.44499271706E+03 0.  0.
      99925    2    3    3    0    0  0.19372743255E+02 -0.73734601753E+02  0.22904237445E+02  0.27490147477E+03  0.26312377707E+03 0.  0.
         25    1    4    4    0    0 -0.25100178080E+02 -0.14108590861E+02  0.13326653218E+02  0.12905107152E+03  0.12509000000E+03 0.  0.
         25    1    3    3    0    0 -0.19372743255E+02  0.73734601753E+02 -0.98345039655E+02  0.17644078214E+03  0.12509000000E+03 0.  0.
         25    1    4    4    0    0  0.44472921336E+02 -0.59626010892E+02  0.95775842273E+01  0.14585040324E+03  0.12509000000E+03 0.  0.
<mgrwt>
<rscale>  2 0.44499272E+03</rscale>
<asrwt>0</asrwt>
<pdfrwt beam="1">  1       21 0.27639813E-01 0.44499272E+03</pdfrwt>
<pdfrwt beam="2">  1       21 0.38734048E-01 0.44499272E+03</pdfrwt>
<totfact> 0.74593406E+04</totfact>
</mgrwt>
</event>
<event>
 7    0  0.4748297E-002  0.4483667E+03  0.7546771E-02  0.1028210E+00
         21   -1    0    0  502  501  0.00000000000E+00  0.00000000000E+00  0.35950976012E+03  0.35950976012E+03  0.00000000000E+00 0.  1.
         21   -1    0    0  501  502 -0.00000000000E+00 -0.00000000000E+00 -0.13979638503E+03  0.13979638503E+03  0.00000000000E+00 0.  1.
      99926    2    1    2    0    0  0.00000000000E+00  0.00000000000E+00  0.21971337509E+03  0.49930614515E+03  0.44836665732E+03 0.  0.
      99925    2    3    3    0    0 -0.31516765518E+02 -0.86069298216E+02  0.78327355086E+02  0.28945204022E+03  0.26314649614E+03 0.  0.
         25    1    4    4    0    0  0.15797817052E+01 -0.57086856533E+02  0.42773613458E+01  0.13757619278E+03  0.12509000000E+03 0.  0.
         25    1    4    4    0    0 -0.33096547224E+02 -0.28982441683E+02  0.74049993740E+02  0.15187584744E+03  0.12509000000E+03 0.  0.
         25    1    3    3    0    0  0.31516765518E+02  0.86069298216E+02  0.14138602000E+03  0.20985410493E+03  0.12509000000E+03 0.  0.
<mgrwt>
<rscale>  2 0.44836666E+03</rscale>
<asrwt>0</asrwt>
<pdfrwt beam="1">  1       21 0.52869082E-01 0.44836666E+03</pdfrwt>
<pdfrwt beam="2">  1       21 0.20558292E-01 0.44836666E+03</pdfrwt>
<totfact> 0.68875082E+04</totfact>
</mgrwt>
</event>
<event>
 7    0  0.4748297E-002  0.4450643E+03  0.7546771E-02  0.1029204E+00
         21   -1    0    0  502  501  0.00000000000E+00  0.00000000000E+00  0.39374093623E+02  0.39374093623E+02  0.00000000000E+00 0. -1.
         21   -1    0    0  501  502 -0.00000000000E+00 -0.00000000000E+00 -0.12576936998E+04  0.12576936998E+04  0.00000000000E+00 0. -1.
      99926    2    1    2    0    0  0.00000000000E+00  0.00000000000E+00 -0.12183196061E+04  0.12970677934E+04  0.44506426270E+03 0.  0.
      99925    2    3    3    0    0  0.98819812720E+02 -0.24385310498E+02 -0.71770940965E+03  0.77112285741E+03  0.26298985866E+03 0.  0.
         25    1    4    4    0    0  0.22512379283E+02 -0.78024307269E+01 -0.24756620523E+03  0.27839579598E+03  0.12509000000E+03 0.  0.
         25    1    4    4    0    0  0.76307433438E+02 -0.16582879771E+02 -0.47014320442E+03  0.49272706143E+03  0.12509000000E+03 0.  0.
         25    1    3    3    0    0 -0.98819812720E+02  0.24385310498E+02 -0.50061019648E+03  0.52594493597E+03  0.12509000000E+03 0.  0.
<mgrwt>
<rscale>  2 0.44506426E+03</rscale>
<asrwt>0</asrwt>
<pdfrwt beam="1">  1       21 0.57903080E-02 0.44506426E+03</pdfrwt>
<pdfrwt beam="2">  1       21 0.18495495E+00 0.44506426E+03</pdfrwt>
<totfact> 0.31569881E+04</totfact>
</mgrwt>
</event>
<event>
 7    0  0.4748297E-002  0.4542969E+03  0.7546771E-02  0.1026448E+00
         21   -1    0    0  502  501  0.00000000000E+00  0.00000000000E+00  0.41757990216E+02  0.41757990216E+02  0.00000000000E+00 0.  1.
         21   -1    0    0  501  502 -0.00000000000E+00 -0.00000000000E+00 -0.12356058445E+04  0.12356058445E+04  0.00000000000E+00 0.  1.
      99926    2    1    2    0    0  0.00000000000E+00  0.71054273576E-14 -0.11938478543E+04  0.12773638347E+04  0.45429689308E+03 0.  0.
      99925    2    3    3    0    0  0.95408554611E+02  0.57842939327E+02 -0.79441049464E+03  0.84418222119E+03  0.26288208506E+03 0.  0.
         25    1    4    4    0    0  0.39023181820E+02 -0.84936452154E+01 -0.41606706971E+03  0.43629607530E+03  0.12509000000E+03 0.  0.
         25    1    3    3    0    0 -0.95408554611E+02 -0.57842939327E+02 -0.39943735963E+03  0.43318161352E+03  0.12509000000E+03 0.  0.
         25    1    4    4    0    0  0.56385372791E+02  0.66336584542E+02 -0.37834342493E+03  0.40788614588E+03  0.12509000000E+03 0.  0.
<mgrwt>
<rscale>  2 0.45429689E+03</rscale>
<asrwt>0</asrwt>
<pdfrwt beam="1">  1       21 0.61408804E-02 0.45429689E+03</pdfrwt>
<pdfrwt beam="2">  1       21 0.18170676E+00 0.45429689E+03</pdfrwt>
<totfact> 0.29942823E+04</totfact>
</mgrwt>
</event>
<event>
 7    0  0.4748297E-002  0.4495432E+03  0.7546771E-02  0.1027858E+00
         21   -1    0    0  502  501  0.00000000000E+00  0.00000000000E+00  0.60736337402E+02  0.60736337402E+02  0.00000000000E+00 0. -1.
         21   -1    0    0  501  502 -0.00000000000E+00 -0.00000000000E+00 -0.83182945887E+03  0.83182945887E+03  0.00000000000E+00 0. -1.
      99926    2    1    2    0    0  0.14210854715E-13  0.00000000000E+00 -0.77109312147E+03  0.89256579627E+03  0.44954321116E+03 0.  0.
      99925    2    3    3    0    0 -0.75238691324E+02 -0.69578755603E+02 -0.41997461015E+03  0.50599913838E+03  0.26297222471E+03 0.  0.
         25    1    4    4    0    0 -0.12614262916E+02 -0.53374145223E+02 -0.25345761165E+03  0.28791698111E+03  0.12509000000E+03 0.  0.
         25    1    4    4    0    0 -0.62624428408E+02 -0.16204610380E+02 -0.16651699850E+03  0.21808215727E+03  0.12509000000E+03 0.  0.
         25    1    3    3    0    0  0.75238691324E+02  0.69578755603E+02 -0.35111851132E+03  0.38656665789E+03  0.12509000000E+03 0.  0.
<mgrwt>
<rscale>  2 0.44954321E+03</rscale>
<asrwt>0</asrwt>
<pdfrwt beam="1">  1       21 0.89318154E-02 0.44954321E+03</pdfrwt>
<pdfrwt beam="2">  1       21 0.12232785E+00 0.44954321E+03</pdfrwt>
<totfact> 0.45468559E+04</totfact>
</mgrwt>
</event>
<event>
 7    0  0.4748297E-002  0.4819311E+03  0.7546771E-02  0.1018606E+00
         21   -1    0    0  502  501  0.00000000000E+00  0.00000000000E+00  0.22045849187E+03  0.22045849187E+03  0.00000000000E+00 0.  1.
         21   -1    0    0  501  502 -0.00000000000E+00 -0.00000000000E+00 -0.26338014457E+03  0.26338014457E+03  0.00000000000E+00 0.  1.
      99926    2    1    2    0    0 -0.71054273576E-14  0.00000000000E+00 -0.42921652700E+02  0.48383863644E+03  0.48193107167E+03 0.  0.
      99925    2    3    3    0    0 -0.37174776368E+02 -0.12244945969E+03  0.22670862701E+02  0.29324556114E+03  0.26287479327E+03 0.  0.
         25    1    4    4    0    0 -0.50806292765E+02 -0.43256866441E+02  0.27827047758E+02  0.14447937073E+03  0.12509000000E+03 0.  0.
         25    1    4    4    0    0  0.13631516397E+02 -0.79192593252E+02 -0.51561850569E+01  0.14876619041E+03  0.12509000000E+03 0.  0.
         25    1    3    3    0    0  0.37174776368E+02  0.12244945969E+03 -0.65592515401E+02  0.19059307530E+03  0.12509000000E+03 0.  0.
<mgrwt>
<rscale>  2 0.48193107E+03</rscale>
<asrwt>0</asrwt>
<pdfrwt beam="1">  1       21 0.32420367E-01 0.48193107E+03</pdfrwt>
<pdfrwt beam="2">  1       21 0.38732374E-01 0.48193107E+03</pdfrwt>
<totfact> 0.53929274E+04</totfact>
</mgrwt>
</event>
<event>
 7    0  0.4748297E-002  0.4808044E+03  0.7546771E-02  0.1018914E+00
         21   -1    0    0  502  501  0.00000000000E+00  0.00000000000E+00  0.29189743148E+02  0.29189743148E+02  0.00000000000E+00 0. -1.
         21   -1    0    0  501  502 -0.00000000000E+00 -0.00000000000E+00 -0.19799149003E+04  0.19799149003E+04  0.00000000000E+00 0. -1.
      99926    2    1    2    0    0  0.00000000000E+00  0.00000000000E+00 -0.19507251572E+04  0.20091046435E+04  0.48080435686E+03 0.  0.
      99925    2    3    3    0    0 -0.64511785007E+02 -0.12497050876E+02 -0.70411697054E+03  0.75451410238E+03  0.26304538737E+03 0.  0.
         25    1    3    3    0    0  0.64511785007E+02  0.12497050876E+02 -0.12466081866E+04  0.12545905411E+04  0.12509000000E+03 0.  0.
         25    1    4    4    0    0 -0.40935187601E+02 -0.32800269959E+02 -0.44320933401E+03  0.46350142303E+03  0.12509000000E+03 0.  0.
         25    1    4    4    0    0 -0.23576597406E+02  0.20303219083E+02 -0.26090763652E+03  0.29101267936E+03  0.12509000000E+03 0.  0.
<mgrwt>
<rscale>  2 0.48080436E+03</rscale>
<asrwt>0</asrwt>
<pdfrwt beam="1">  1       21 0.42926089E-02 0.48080436E+03</pdfrwt>
<pdfrwt beam="2">  1       21 0.29116398E+00 0.48080436E+03</pdfrwt>
<totfact> 0.11154463E+04</totfact>
</mgrwt>
</event>
<event>
 7    0  0.4748297E-002  0.4253330E+03  0.7546771E-02  0.1035344E+00
         21   -1    0    0  502  501  0.00000000000E+00  0.00000000000E+00  0.40923245177E+03  0.40923245177E+03  0.00000000000E+00 0. -1.
         21   -1    0    0  501  502 -0.00000000000E+00 -0.00000000000E+00 -0.11051675772E+03  0.11051675772E+03  0.00000000000E+00 0. -1.
      99926    2    1    2    0    0  0.00000000000E+00  0.71054273576E-14  0.29871569406E+03  0.51974920949E+03  0.42533301646E+03 0.  0.
      99925    2    3    3    0    0  0.33880843726E+02 -0.45396755365E+02  0.26658015400E+03  0.37872092154E+03  0.26297486749E+03 0.  0.
         25    1    4    4    0    0  0.46558279533E+02  0.38559289530E+01  0.12167241864E+03  0.18064945928E+03  0.12509000000E+03 0.  0.
         25    1    3    3    0    0 -0.33880843726E+02  0.45396755365E+02  0.32135540051E+02  0.14102828796E+03  0.12509000000E+03 0.  0.
         25    1    4    4    0    0 -0.12677435807E+02 -0.49252684318E+02  0.14490773537E+03  0.19807146226E+03  0.12509000000E+03 0.  0.
<mgrwt>
<rscale>  2 0.42533302E+03</rscale>
<asrwt>0</asrwt>
<pdfrwt beam="1">  1       21 0.60181242E-01 0.42533302E+03</pdfrwt>
<pdfrwt beam="2">  1       21 0.16252465E-01 0.42533302E+03</pdfrwt>
<totfact> 0.81415494E+04</totfact>
</mgrwt>
</event>
<event>
 7    0  0.4748297E-002  0.4564571E+03  0.7546771E-02  0.1025814E+00
         21   -1    0    0  502  501  0.00000000000E+00  0.00000000000E+00  0.18595595334E+03  0.18595595334E+03  0.00000000000E+00 0. -1.
         21   -1    0    0  501  502 -0.00000000000E+00 -0.00000000000E+00 -0.28011083310E+03  0.28011083310E+03  0.00000000000E+00 0. -1.
      99926    2    1    2    0    0  0.00000000000E+00  0.14210854715E-13 -0.94154879762E+02  0.46606678643E+03  0.45645712617E+03 0.  0.
      99925    2    3    3    0    0 -0.80970841544E+02  0.65840422528E+02 -0.11109585612E+02  0.28321365575E+03  0.26305002090E+03 0.  0.
         25    1    4    4    0    0 -0.18811076571E+02 -0.12778301351E+01 -0.19586955991E+02  0.12801033707E+03  0.12509000000E+03 0.  0.
         25    1    3    3    0    0  0.80970841544E+02 -0.65840422528E+02 -0.83045294150E+02  0.18285313068E+03  0.12509000000E+03 0.  0.
         25    1    4    4    0    0 -0.62159764973E+02  0.67118252663E+02  0.84773703797E+01  0.15520331868E+03  0.12509000000E+03 0.  0.
<mgrwt>
<rscale>  2 0.45645713E+03</rscale>
<asrwt>0</asrwt>
<pdfrwt beam="1">  1       21 0.27346464E-01 0.45645713E+03</pdfrwt>
<pdfrwt beam="2">  1       21 0.41192769E-01 0.45645713E+03</pdfrwt>
<totfact> 0.66952295E+04</totfact>
</mgrwt>
</event>
<event>
 7    0  0.4748297E-002  0.4649088E+03  0.7546771E-02  0.1023367E+00
         21   -1    0    0  502  501  0.00000000000E+00  0.00000000000E+00  0.19841151617E+03  0.19841151617E+03  0.00000000000E+00 0.  1.
         21   -1    0    0  501  502 -0.00000000000E+00 -0.00000000000E+00 -0.27233826114E+03  0.27233826114E+03  0.00000000000E+00 0.  1.
      99926    2    1    2    0    0 -0.35527136788E-14  0.00000000000E+00 -0.73926744971E+02  0.47074977730E+03  0.46490879666E+03 0.  0.
      99925    2    3    3    0    0 -0.17172724776E+02 -0.10979723416E+02  0.75938413290E+02  0.27447820381E+03  0.26297563566E+03 0.  0.
         25    1    4    4    0    0  0.30180830044E+02 -0.10095760309E+02  0.48832574487E+02  0.13800338876E+03  0.12509000000E+03 0.  0.
         25    1    4    4    0    0 -0.47353554820E+02 -0.88396310686E+00  0.27105838802E+02  0.13647481505E+03  0.12509000000E+03 0.  0.
         25    1    3    3    0    0  0.17172724776E+02  0.10979723416E+02 -0.14986515826E+03  0.19627157350E+03  0.12509000000E+03 0.  0.
<mgrwt>
<rscale>  2 0.46490880E+03</rscale>
<asrwt>0</asrwt>
<pdfrwt beam="1">  1       21 0.29178164E-01 0.46490880E+03</pdfrwt>
<pdfrwt beam="2">  1       21 0.40049744E-01 0.46490880E+03</pdfrwt>
<totfact> 0.62329236E+04</totfact>
</mgrwt>
</event>
<event>
 7    0  0.4748297E-002  0.4425487E+03  0.7546771E-02  0.1029968E+00
         21   -1    0    0  502  501  0.00000000000E+00  0.00000000000E+00  0.35135658478E+03  0.35135658478E+03  0.00000000000E+00 0. -1.
         21   -1    0    0  501  502 -0.00000000000E+00 -0.00000000000E+00 -0.13935224895E+03  0.13935224895E+03  0.00000000000E+00 0. -1.
      99926    2    1    2    0    0  0.00000000000E+00  0.00000000000E+00  0.21200433582E+03  0.49070883373E+03  0.44254866523E+03 0.  0.
      99925    2    3    3    0    0  0.57283552123E+02 -0.67933519933E+02  0.81947478970E+02  0.28956544560E+03  0.26312808573E+03 0.  0.
         25    1    4    4    0    0  0.60450142231E+02 -0.54844134533E+02  0.24908423274E+02  0.15142667017E+03  0.12509000000E+03 0.  0.
         25    1    3    3    0    0 -0.57283552123E+02  0.67933519933E+02  0.13005685686E+03  0.20114338813E+03  0.12509000000E+03 0.  0.
         25    1    4    4    0    0 -0.31665901087E+01 -0.13089385400E+02  0.57039055695E+02  0.13813877543E+03  0.12509000000E+03 0.  0.
<mgrwt>
<rscale>  2 0.44254867E+03</rscale>
<asrwt>0</asrwt>
<pdfrwt beam="1">  1       21 0.51670086E-01 0.44254867E+03</pdfrwt>
<pdfrwt beam="2">  1       21 0.20492978E-01 0.44254867E+03</pdfrwt>
<totfact> 0.72868952E+04</totfact>
</mgrwt>
</event>
<event>
 7    0  0.4748297E-002  0.4655228E+03  0.7546771E-02  0.1023192E+00
         21   -1    0    0  502  501  0.00000000000E+00  0.00000000000E+00  0.19023825454E+03  0.19023825454E+03  0.00000000000E+00 0.  1.
         21   -1    0    0  501  502 -0.00000000000E+00 -0.00000000000E+00 -0.28478957254E+03  0.28478957254E+03  0.00000000000E+00 0.  1.
      99926    2    1    2    0    0  0.00000000000E+00  0.00000000000E+00 -0.94551317993E+02  0.47502782708E+03  0.46552280799E+03 0.  0.
      99925    2    3    3    0    0  0.10606645880E+03  0.42992002696E+02 -0.10448767612E+03  0.30519071308E+03  0.26291688974E+03 0.  0.
         25    1    4    4    0    0  0.19972142781E+02  0.83910249016E+01 -0.72493339390E+02  0.14619195649E+03  0.12509000000E+03 0.  0.
         25    1    4    4    0    0  0.86094316018E+02  0.34600977794E+02 -0.31994336728E+02  0.15899875659E+03  0.12509000000E+03 0.  0.
         25    1    3    3    0    0 -0.10606645880E+03 -0.42992002696E+02  0.99363581244E+01  0.16983711400E+03  0.12509000000E+03 0.  0.
<mgrwt>
<rscale>  2 0.46552281E+03</rscale>
<asrwt>0</asrwt>
<pdfrwt beam="1">  1       21 0.27976214E-01 0.46552281E+03</pdfrwt>
<pdfrwt beam="2">  1       21 0.41880819E-01 0.46552281E+03</pdfrwt>
<totfact> 0.61743710E+04</totfact>
</mgrwt>
</event>
<event>
 7    0  0.4748297E-002  0.4248724E+03  0.7546771E-02  0.1035492E+00
         21   -1    0    0  502  501  0.00000000000E+00  0.00000000000E+00  0.15239954516E+03  0.15239954516E+03  0.00000000000E+00 0.  1.
         21   -1    0    0  501  502 -0.00000000000E+00 -0.00000000000E+00 -0.29612380396E+03  0.29612380396E+03  0.00000000000E+00 0.  1.
      99926    2    1    2    0    0  0.00000000000E+00  0.00000000000E+00 -0.14372425880E+03  0.44852334912E+03  0.42487237159E+03 0.  0.
      99925    2    3    3    0    0 -0.54687677942E+02 -0.50431316275E+02 -0.57141787091E+02  0.27917727657E+03  0.26294620770E+03 0.  0.
         25    1    4    4    0    0 -0.34292130751E+02  0.71042212717E+01 -0.33147305528E+01  0.12994197063E+03  0.12509000000E+03 0.  0.
         25    1    3    3    0    0  0.54687677942E+02  0.50431316275E+02 -0.86582471712E+02  0.16934607255E+03  0.12509000000E+03 0.  0.
         25    1    4    4    0    0 -0.20395547191E+02 -0.57535537547E+02 -0.53827056538E+02  0.14923530595E+03  0.12509000000E+03 0.  0.
<mgrwt>
<rscale>  2 0.42487237E+03</rscale>
<asrwt>0</asrwt>
<pdfrwt beam="1">  1       21 0.22411698E-01 0.42487237E+03</pdfrwt>
<pdfrwt beam="2">  1       21 0.43547618E-01 0.42487237E+03</pdfrwt>
<totfact> 0.88376183E+04</totfact>
</mgrwt>
</event>
<event>
 7    0  0.4748297E-002  0.4575909E+03  0.7546771E-02  0.1025482E+00
         21   -1    0    0  502  501  0.00000000000E+00  0.00000000000E+00  0.53608843328E+03  0.53608843328E+03  0.00000000000E+00 0. -1.
         21   -1    0    0  501  502 -0.00000000000E+00 -0.00000000000E+00 -0.97646871953E+02  0.97646871953E+02  0.00000000000E+00 0. -1.
      99926    2    1    2    0    0 -0.71054273576E-14  0.00000000000E+00  0.43844156133E+03  0.63373530523E+03  0.45759090288E+03 0.  0.
      99925    2    3    3    0    0  0.50538775149E+02 -0.76736789545E+02  0.17803140379E+03  0.33057913935E+03  0.26295376775E+03 0.  0.
         25    1    4    4    0    0  0.12122554576E+02 -0.57648083491E+02  0.13029569757E+03  0.18998614361E+03  0.12509000000E+03 0.  0.
         25    1    3    3    0    0 -0.50538775149E+02  0.76736789545E+02  0.26041015754E+03  0.30315616588E+03  0.12509000000E+03 0.  0.
         25    1    4    4    0    0  0.38416220573E+02 -0.19088706054E+02  0.47735706217E+02  0.14059299574E+03  0.12509000000E+03 0.  0.
<mgrwt>
<rscale>  2 0.45759090E+03</rscale>
<asrwt>0</asrwt>
<pdfrwt beam="1">  1       21 0.78836533E-01 0.45759090E+03</pdfrwt>
<pdfrwt beam="2">  1       21 0.14359834E-01 0.45759090E+03</pdfrwt>
<totfact> 0.55504518E+04</totfact>
</mgrwt>
</event>
<event>
 7    0  0.4748297E-002  0.4507968E+03  0.7546771E-02  0.1027485E+00
         21   -1    0    0  502  501  0.00000000000E+00  0.00000000000E+00  0.20703466041E+03  0.20703466041E+03  0.00000000000E+00 0. -1.
         21   -1    0    0  501  502 -0.00000000000E+00 -0.00000000000E+00 -0.24539093070E+03  0.24539093070E+03  0.00000000000E+00 0. -1.
      99926    2    1    2    0    0  0.00000000000E+00  0.00000000000E+00 -0.38356270290E+02  0.45242559112E+03  0.45079675246E+03 0.  0.
      99925    2    3    3    0    0 -0.71551622391E+02 -0.34696173714E+02 -0.99325809680E+02  0.29215004098E+03  0.26298777698E+03 0.  0.
         25    1    4    4    0    0 -0.39689467991E+02  0.16557030574E+02 -0.24971738128E+02  0.13461235061E+03  0.12509000000E+03 0.  0.
         25    1    3    3    0    0  0.71551622391E+02  0.34696173714E+02  0.60969539389E+02  0.16027555013E+03  0.12509000000E+03 0.  0.
         25    1    4    4    0    0 -0.31862154399E+02 -0.51253204288E+02 -0.74354071551E+02  0.15753769038E+03  0.12509000000E+03 0.  0.
<mgrwt>
<rscale>  2 0.45079675E+03</rscale>
<asrwt>0</asrwt>
<pdfrwt beam="1">  1       21 0.30446274E-01 0.45079675E+03</pdfrwt>
<pdfrwt beam="2">  1       21 0.36086901E-01 0.45079675E+03</pdfrwt>
<totfact> 0.71089152E+04</totfact>
</mgrwt>
</event>
<event>
 7    0  0.4748297E-002  0.4564505E+03  0.7546771E-02  0.1025816E+00
         21   -1    0    0  502  501  0.00000000000E+00  0.00000000000E+00  0.12135125456E+03  0.12135125456E+03  0.00000000000E+00 0. -1.
         21   -1    0    0  501  502 -0.00000000000E+00 -0.00000000000E+00 -0.42922309349E+03  0.42922309349E+03  0.00000000000E+00 0. -1.
      99926    2    1    2    0    0  0.00000000000E+00 -0.14210854715E-13 -0.30787183893E+03  0.55057434805E+03  0.45645048310E+03 0.  0.
      99925    2    3    3    0    0  0.18754551852E+02 -0.10418195610E+03 -0.24616344488E+03  0.37547138637E+03  0.26301465205E+03 0.  0.
         25    1    4    4    0    0  0.10065655627E+02 -0.95712367959E+02 -0.13879856536E+03  0.21017784053E+03  0.12509000000E+03 0.  0.
         25    1    4    4    0    0  0.86888962246E+01 -0.84695881415E+01 -0.10736487952E+03  0.16529354584E+03  0.12509000000E+03 0.  0.
         25    1    3    3    0    0 -0.18754551852E+02  0.10418195610E+03 -0.61708394051E+02  0.17510296168E+03  0.12509000000E+03 0.  0.
<mgrwt>
<rscale>  2 0.45645048E+03</rscale>
<asrwt>0</asrwt>
<pdfrwt beam="1">  1       21 0.17845773E-01 0.45645048E+03</pdfrwt>
<pdfrwt beam="2">  1       21 0.63121043E-01 0.45645048E+03</pdfrwt>
<totfact> 0.61124092E+04</totfact>
</mgrwt>
</event>
<event>
 7    0  0.4748297E-002  0.4446589E+03  0.7546771E-02  0.1029327E+00
         21   -1    0    0  502  501  0.00000000000E+00  0.00000000000E+00  0.14369443193E+04  0.14369443193E+04  0.00000000000E+00 0. -1.
         21   -1    0    0  501  502 -0.00000000000E+00 -0.00000000000E+00 -0.34399657051E+02  0.34399657051E+02  0.00000000000E+00 0. -1.
      99926    2    1    2    0    0  0.00000000000E+00 -0.14210854715E-13  0.14025446623E+04  0.14713439764E+04  0.44465893350E+03 0.  0.
      99925    2    3    3    0    0  0.44917348564E+02  0.92294858969E+02  0.85556708621E+03  0.90093369771E+03  0.26296497764E+03 0.  0.
         25    1    4    4    0    0  0.49786586266E+02  0.58052170046E+02  0.36139523051E+03  0.39000356325E+03  0.12509000000E+03 0.  0.
         25    1    4    4    0    0 -0.48692377016E+01  0.34242688922E+02  0.49417185571E+03  0.51093013446E+03  0.12509000000E+03 0.  0.
         25    1    3    3    0    0 -0.44917348564E+02 -0.92294858969E+02  0.54697757605E+03  0.57041027865E+03  0.12509000000E+03 0.  0.
<mgrwt>
<rscale>  2 0.44465893E+03</rscale>
<asrwt>0</asrwt>
<pdfrwt beam="1">  1       21 0.21131530E+00 0.44465893E+03</pdfrwt>
<pdfrwt beam="2">  1       21 0.50587741E-02 0.44465893E+03</pdfrwt>
<totfact> 0.26560709E+04</totfact>
</mgrwt>
</event>
<event>
 7    0  0.4748297E-002  0.4655247E+03  0.7546771E-02  0.1023191E+00
         21   -1    0    0  502  501  0.00000000000E+00  0.00000000000E+00  0.19094442804E+03  0.19094442804E+03  0.00000000000E+00 0. -1.
         21   -1    0    0  501  502 -0.00000000000E+00 -0.00000000000E+00 -0.28373857665E+03  0.28373857665E+03  0.00000000000E+00 0. -1.
      99926    2    1    2    0    0  0.00000000000E+00  0.00000000000E+00 -0.92794148609E+02  0.47468300470E+03  0.46552465126E+03 0.  0.
      99925    2    3    3    0    0  0.11802615775E+03  0.25087289989E+02 -0.81015311078E+02  0.30048255939E+03  0.26299570687E+03 0.  0.
         25    1    3    3    0    0 -0.11802615775E+03 -0.25087289989E+02 -0.11778837531E+02  0.17420044531E+03  0.12509000000E+03 0.  0.
         25    1    4    4    0    0  0.63807101082E+02  0.23260150692E+02 -0.81730769805E+02  0.16413350539E+03  0.12509000000E+03 0.  0.
         25    1    4    4    0    0  0.54219056670E+02  0.18271392971E+01  0.71545872710E+00  0.13634905400E+03  0.12509000000E+03 0.  0.
<mgrwt>
<rscale>  2 0.46552465E+03</rscale>
<asrwt>0</asrwt>
<pdfrwt beam="1">  1       21 0.28080063E-01 0.46552465E+03</pdfrwt>
<pdfrwt beam="2">  1       21 0.41726261E-01 0.46552465E+03</pdfrwt>
<totfact> 0.61765948E+04</totfact>
</mgrwt>
</event>
<event>
 7    0  0.4748297E-002  0.4937946E+03  0.7546771E-02  0.1015411E+00
         21   -1    0    0  502  501  0.00000000000E+00  0.00000000000E+00  0.13455958494E+03  0.13455958494E+03  0.00000000000E+00 0. -1.
         21   -1    0    0  501  502 -0.00000000000E+00 -0.00000000000E+00 -0.45302061699E+03  0.45302061699E+03  0.00000000000E+00 0. -1.
      99926    2    1    2    0    0  0.14210854715E-13  0.35527136788E-14 -0.31846103205E+03  0.58758020193E+03  0.49379455724E+03 0.  0.
      99925    2    3    3    0    0 -0.11528998157E+03  0.21724289404E+02 -0.89521563956E+02  0.30153035880E+03  0.26295003759E+03 0.  0.
         25    1    4    4    0    0 -0.29484116935E+02  0.38196857378E+02 -0.27736100181E+02  0.13691279129E+03  0.12509000000E+03 0.  0.
         25    1    4    4    0    0 -0.85805864631E+02 -0.16472567974E+02 -0.61785463775E+02  0.16461756752E+03  0.12509000000E+03 0.  0.
         25    1    3    3    0    0  0.11528998157E+03 -0.21724289404E+02 -0.22893946810E+03  0.28604984312E+03  0.12509000000E+03 0.  0.
<mgrwt>
<rscale>  2 0.49379456E+03</rscale>
<asrwt>0</asrwt>
<pdfrwt beam="1">  1       21 0.19788174E-01 0.49379456E+03</pdfrwt>
<pdfrwt beam="2">  1       21 0.66620679E-01 0.49379456E+03</pdfrwt>
<totfact> 0.44234569E+04</totfact>
</mgrwt>
</event>
<event>
 7    0  0.4748297E-002  0.4555487E+03  0.7546771E-02  0.1026080E+00
         21   -1    0    0  502  501  0.00000000000E+00  0.00000000000E+00  0.14439155234E+04  0.14439155234E+04  0.00000000000E+00 0.  1.
         21   -1    0    0  501  502 -0.00000000000E+00 -0.00000000000E+00 -0.35930874690E+02  0.35930874690E+02  0.00000000000E+00 0.  1.
      99926    2    1    2    0    0  0.00000000000E+00  0.00000000000E+00  0.14079846488E+04  0.14798463981E+04  0.45554867023E+03 0.  0.
      99925    2    3    3    0    0 -0.31052272053E+01 -0.26874910758E+02  0.52741501336E+03  0.59002490247E+03  0.26311762760E+03 0.  0.
         25    1    4    4    0    0  0.66439846129E+00 -0.23577638135E+02  0.17778948600E+03  0.21866173848E+03  0.12509000000E+03 0.  0.
         25    1    3    3    0    0  0.31052272053E+01  0.26874910758E+02  0.88056963539E+03  0.88982149566E+03  0.12509000000E+03 0.  0.
         25    1    4    4    0    0 -0.37696256666E+01 -0.32972726227E+01  0.34962552736E+03  0.37136316399E+03  0.12509000000E+03 0.  0.
<mgrwt>
<rscale>  2 0.45554867E+03</rscale>
<asrwt>0</asrwt>
<pdfrwt beam="1">  1       21 0.21234048E+00 0.45554867E+03</pdfrwt>
<pdfrwt beam="2">  1       21 0.52839531E-02 0.45554867E+03</pdfrwt>
<totfact> 0.24174217E+04</totfact>
</mgrwt>
</event>
<event>
 7    0  0.4748297E-002  0.4503167E+03  0.7546771E-02  0.1027628E+00
         21   -1    0    0  502  501  0.00000000000E+00  0.00000000000E+00  0.12943256760E+04  0.12943256760E+04  0.00000000000E+00 0. -1.
         21   -1    0    0  501  502 -0.00000000000E+00 -0.00000000000E+00 -0.39168095373E+02  0.39168095373E+02  0.00000000000E+00 0. -1.
      99926    2    1    2    0    0 -0.71054273576E-14  0.14210854715E-13  0.12551575806E+04  0.13334937714E+04  0.45031665091E+03 0.  0.
      99925    2    3    3    0    0  0.51927133637E+02 -0.79163405271E+02  0.95170417002E+03  0.99188763493E+03  0.26293912064E+03 0.  0.
         25    1    4    4    0    0  0.14505754551E+02 -0.56819606009E+02  0.36146953473E+03  0.38697108055E+03  0.12509000000E+03 0.  0.
         25    1    3    3    0    0 -0.51927133637E+02  0.79163405271E+02  0.30345341060E+03  0.34160613643E+03  0.12509000000E+03 0.  0.
         25    1    4    4    0    0  0.37421379086E+02 -0.22343799262E+02  0.59023463528E+03  0.60491655438E+03  0.12509000000E+03 0.  0.
<mgrwt>
<rscale>  2 0.45031665E+03</rscale>
<asrwt>0</asrwt>
<pdfrwt beam="1">  1       21 0.19034198E+00 0.45031665E+03</pdfrwt>
<pdfrwt beam="2">  1       21 0.57600149E-02 0.45031665E+03</pdfrwt>
<totfact> 0.29206475E+04</totfact>
</mgrwt>
</event>
<event>
 7    0  0.4748297E-002  0.4540158E+03  0.7546771E-02  0.1026531E+00
         21   -1    0    0  502  501  0.00000000000E+00  0.00000000000E+00  0.32817138455E+03  0.32817138455E+03  0.00000000000E+00 0. -1.
         21   -1    0    0  501  502 -0.00000000000E+00 -0.00000000000E+00 -0.15702947182E+03  0.15702947182E+03  0.00000000000E+00 0. -1.
      99926    2    1    2    0    0 -0.71054273576E-14  0.00000000000E+00  0.17114191273E+03  0.48520085636E+03  0.45401576704E+03 0.  0.
      99925    2    3    3    0    0  0.55430170228E+02 -0.32499534935E+02  0.99860093699E+01  0.27131430505E+03  0.26340654548E+03 0.  0.
         25    1    4    4    0    0  0.66325986931E+02 -0.16381224713E+02 -0.11158003773E+02  0.14296674513E+03  0.12509000000E+03 0.  0.
         25    1    4    4    0    0 -0.10895816702E+02 -0.16118310223E+02  0.21144013143E+02  0.12834755992E+03  0.12509000000E+03 0.  0.
         25    1    3    3    0    0 -0.55430170228E+02  0.32499534935E+02  0.16115590336E+03  0.21388655131E+03  0.12509000000E+03 0.  0.
<mgrwt>
<rscale>  2 0.45401577E+03</rscale>
<asrwt>0</asrwt>
<pdfrwt beam="1">  1       21 0.48260498E-01 0.45401577E+03</pdfrwt>
<pdfrwt beam="2">  1       21 0.23092569E-01 0.45401577E+03</pdfrwt>
<totfact> 0.66844172E+04</totfact>
</mgrwt>
</event>
<event>
 7    0  0.4748297E-002  0.4578964E+03  0.7546771E-02  0.1025393E+00
         21   -1    0    0  502  501  0.00000000000E+00  0.00000000000E+00  0.10761435866E+03  0.10761435866E+03  0.00000000000E+00 0. -1.
         21   -1    0    0  501  502 -0.00000000000E+00 -0.00000000000E+00 -0.48708450379E+03  0.48708450379E+03  0.00000000000E+00 0. -1.
      99926    2    1    2    0    0  0.00000000000E+00  0.00000000000E+00 -0.37947014513E+03  0.59469886245E+03  0.45789643584E+03 0.  0.
      99925    2    3    3    0    0 -0.80871080122E+01  0.70317934147E+02 -0.35735608157E+03  0.44928031794E+03  0.26294376181E+03 0.  0.
         25    1    4    4    0    0  0.14750922031E+02 -0.55594320856E+00 -0.18268642379E+03  0.22190028461E+03  0.12509000000E+03 0.  0.
         25    1    4    4    0    0 -0.22838030043E+02  0.70873877356E+02 -0.17466965779E+03  0.22738003333E+03  0.12509000000E+03 0.  0.
         25    1    3    3    0    0  0.80871080122E+01 -0.70317934147E+02 -0.22114063557E+02  0.14541854450E+03  0.12509000000E+03 0.  0.
<mgrwt>
<rscale>  2 0.45789644E+03</rscale>
<asrwt>0</asrwt>
<pdfrwt beam="1">  1       21 0.15825641E-01 0.45789644E+03</pdfrwt>
<pdfrwt beam="2">  1       21 0.71630075E-01 0.45789644E+03</pdfrwt>
<totfact> 0.57674255E+04</totfact>
</mgrwt>
</event>
<event>
 7    0  0.4748297E-002  0.4549055E+03  0.7546771E-02  0.1026269E+00
         21   -1    0    0  502  501  0.00000000000E+00  0.00000000000E+00  0.28092287476E+03  0.28092287476E+03  0.00000000000E+00 0. -1.
         21   -1    0    0  501  502 -0.00000000000E+00 -0.00000000000E+00 -0.18415995385E+03  0.18415995385E+03  0.00000000000E+00 0. -1.
      99926    2    1    2    0    0  0.28865798640E-14  0.00000000000E+00  0.96762920915E+02  0.46508282861E+03  0.45490545677E+03 0.  0.
      99925    2    3    3    0    0  0.96836190827E+00 -0.77836441486E+02  0.14500142957E+03  0.31005408558E+03  0.26277114007E+03 0.  0.
         25    1    4    4    0    0  0.39607305066E+02 -0.32434824239E+02  0.79181058887E+02  0.15664579351E+03  0.12509000000E+03 0.  0.
         25    1    4    4    0    0 -0.38638943157E+02 -0.45401617246E+02  0.65820370687E+02  0.15340829206E+03  0.12509000000E+03 0.  0.
         25    1    3    3    0    0 -0.96836190827E+00  0.77836441486E+02 -0.48238508660E+02  0.15502874303E+03  0.12509000000E+03 0.  0.
<mgrwt>
<rscale>  2 0.45490546E+03</rscale>
<asrwt>0</asrwt>
<pdfrwt beam="1">  1       21 0.41312188E-01 0.45490546E+03</pdfrwt>
<pdfrwt beam="2">  1       21 0.27082346E-01 0.45490546E+03</pdfrwt>
<totfact> 0.67854705E+04</totfact>
</mgrwt>
</event>
<event>
 7    0  0.4748297E-002  0.4562500E+03  0.7546771E-02  0.1025874E+00
         21   -1    0    0  502  501  0.00000000000E+00  0.00000000000E+00  0.21987088094E+03  0.21987088094E+03  0.00000000000E+00 0.  1.
         21   -1    0    0  501  502 -0.00000000000E+00 -0.00000000000E+00 -0.23668898272E+03  0.23668898272E+03  0.00000000000E+00 0.  1.
      99926    2    1    2    0    0 -0.35527136788E-14  0.00000000000E+00 -0.16818101783E+02  0.45655986366E+03  0.45624999788E+03 0.  0.
      99925    2    3    3    0    0 -0.19967853859E+02  0.10911780941E+03 -0.38058759163E+02  0.28802474820E+03  0.26306724408E+03 0.  0.
         25    1    4    4    0    0  0.14184218416E+02  0.49457346789E+02 -0.51338781816E+02  0.14467342473E+03  0.12509000000E+03 0.  0.
         25    1    4    4    0    0 -0.34152072275E+02  0.59660462620E+02  0.13280022653E+02  0.14335132348E+03  0.12509000000E+03 0.  0.
         25    1    3    3    0    0  0.19967853859E+02 -0.10911780941E+03  0.21240657381E+02  0.16853511546E+03  0.12509000000E+03 0.  0.
<mgrwt>
<rscale>  2 0.45625000E+03</rscale>
<asrwt>0</asrwt>
<pdfrwt beam="1">  1       21 0.32333953E-01 0.45625000E+03</pdfrwt>
<pdfrwt beam="2">  1       21 0.34807203E-01 0.45625000E+03</pdfrwt>
<totfact> 0.67753413E+04</totfact>
</mgrwt>
</event>
<event>
 7    0  0.4748297E-002  0.4518651E+03  0.7546771E-02  0.1027167E+00
         21   -1    0    0  502  501  0.00000000000E+00  0.00000000000E+00  0.48904791265E+03  0.48904791265E+03  0.00000000000E+00 0.  1.
         21   -1    0    0  501  502 -0.00000000000E+00 -0.00000000000E+00 -0.10437734614E+03  0.10437734614E+03  0.00000000000E+00 0.  1.
      99926    2    1    2    0    0  0.71054273576E-14 -0.14210854715E-13  0.38467056651E+03  0.59342525879E+03  0.45186512704E+03 0.  0.
      99925    2    3    3    0    0 -0.36033465412E+02  0.68648438125E+02  0.13930028185E+03  0.30730447419E+03  0.26271743880E+03 0.  0.
         25    1    4    4    0    0 -0.35123362271E+02  0.15854716457E+02  0.10355215509E+03  0.16689990873E+03  0.12509000000E+03 0.  0.
         25    1    3    3    0    0  0.36033465412E+02 -0.68648438125E+02  0.24537028465E+03  0.28612078459E+03  0.12509000000E+03 0.  0.
         25    1    4    4    0    0 -0.91010314106E+00  0.52793721668E+02  0.35748126761E+02  0.14040456546E+03  0.12509000000E+03 0.  0.
<mgrwt>
<rscale>  2 0.45186513E+03</rscale>
<asrwt>0</asrwt>
<pdfrwt beam="1">  1       21 0.71918810E-01 0.45186513E+03</pdfrwt>
<pdfrwt beam="2">  1       21 0.15349610E-01 0.45186513E+03</pdfrwt>
<totfact> 0.60571490E+04</totfact>
</mgrwt>
</event>
<event>
 7    0  0.4748297E-002  0.4462353E+03  0.7546771E-02  0.1028851E+00
         21   -1    0    0  502  501  0.00000000000E+00  0.00000000000E+00  0.56751189651E+02  0.56751189651E+02  0.00000000000E+00 0.  1.
         21   -1    0    0  501  502 -0.00000000000E+00 -0.00000000000E+00 -0.87718835818E+03  0.87718835818E+03  0.00000000000E+00 0.  1.
      99926    2    1    2    0    0  0.00000000000E+00  0.00000000000E+00 -0.82043716853E+03  0.93393954783E+03  0.44623528715E+03 0.  0.
      99925    2    3    3    0    0 -0.95376069114E+02 -0.91389905480E+01 -0.60921715143E+03  0.67042195936E+03  0.26294476662E+03 0.  0.
         25    1    3    3    0    0  0.95376069114E+02  0.91389905480E+01 -0.21122001710E+03  0.26351758847E+03  0.12509000000E+03 0.  0.
         25    1    4    4    0    0 -0.78648490238E+02 -0.28848787509E+02 -0.29392215264E+03  0.33023563931E+03  0.12509000000E+03 0.  0.
         25    1    4    4    0    0 -0.16727578876E+02  0.19709796961E+02 -0.31529499879E+03  0.34018632005E+03  0.12509000000E+03 0.  0.
<mgrwt>
<rscale>  2 0.44623529E+03</rscale>
<asrwt>0</asrwt>
<pdfrwt beam="1">  1       21 0.83457634E-02 0.44623529E+03</pdfrwt>
<pdfrwt beam="2">  1       21 0.12899829E+00 0.44623529E+03</pdfrwt>
<totfact> 0.44790520E+04</totfact>
</mgrwt>
</event>
<event>
 7    0  0.4748297E-002  0.4535868E+03  0.7546771E-02  0.1026658E+00
         21   -1    0    0  502  501  0.00000000000E+00  0.00000000000E+00  0.25241549779E+02  0.25241549779E+02  0.00000000000E+00 0. -1.
         21   -1    0    0  501  502 -0.00000000000E+00 -0.00000000000E+00 -0.20377217520E+04  0.20377217520E+04  0.00000000000E+00 0. -1.
      99926    2    1    2    0    0  0.00000000000E+00  0.00000000000E+00 -0.20124802022E+04  0.20629633017E+04  0.45358683860E+03 0.  0.
      99925    2    3    3    0    0 -0.64323965699E+02  0.88729570991E+02 -0.13678074889E+04  0.13971848666E+04  0.26309259866E+03 0.  0.
         25    1    3    3    0    0  0.64323965699E+02 -0.88729570991E+02 -0.64467271329E+03  0.66577843513E+03  0.12509000000E+03 0.  0.
         25    1    4    4    0    0 -0.91749772414E+01  0.57729065324E+02 -0.83014944231E+03  0.84155358110E+03  0.12509000000E+03 0.  0.
         25    1    4    4    0    0 -0.55148988457E+02  0.31000505666E+02 -0.53765804658E+03  0.55563128551E+03  0.12509000000E+03 0.  0.
<mgrwt>
<rscale>  2 0.45358684E+03</rscale>
<asrwt>0</asrwt>
<pdfrwt beam="1">  1       21 0.37119927E-02 0.45358684E+03</pdfrwt>
<pdfrwt beam="2">  1       21 0.29966495E+00 0.45358684E+03</pdfrwt>
<totfact> 0.12849338E+04</totfact>
</mgrwt>
</event>
<event>
 7    0  0.4748297E-002  0.4544064E+03  0.7546771E-02  0.1026416E+00
         21   -1    0    0  502  501  0.00000000000E+00  0.00000000000E+00  0.69512399435E+03  0.69512399435E+03  0.00000000000E+00 0.  1.
         21   -1    0    0  501  502 -0.00000000000E+00 -0.00000000000E+00 -0.74261997076E+02  0.74261997076E+02  0.00000000000E+00 0.  1.
      99926    2    1    2    0    0  0.00000000000E+00  0.00000000000E+00  0.62086199728E+03  0.76938599143E+03  0.45440640856E+03 0.  0.
      99925    2    3    3    0    0  0.53829056931E+02  0.76357650242E+02  0.28464032143E+03  0.39868317039E+03  0.26305911815E+03 0.  0.
         25    1    4    4    0    0  0.56149013816E+02  0.62640334541E+02  0.18166564420E+03  0.23606447773E+03  0.12509000000E+03 0.  0.
         25    1    3    3    0    0 -0.53829056931E+02 -0.76357650242E+02  0.33622167584E+03  0.37070282104E+03  0.12509000000E+03 0.  0.
         25    1    4    4    0    0 -0.23199568842E+01  0.13717315701E+02  0.10297467723E+03  0.16261869266E+03  0.12509000000E+03 0.  0.
<mgrwt>
<rscale>  2 0.45440641E+03</rscale>
<asrwt>0</asrwt>
<pdfrwt beam="1">  1       21 0.10222411E+00 0.45440641E+03</pdfrwt>
<pdfrwt beam="2">  1       21 0.10920882E-01 0.45440641E+03</pdfrwt>
<totfact> 0.49511464E+04</totfact>
</mgrwt>
</event>
<event>
 7    0  0.4748297E-002  0.4501126E+03  0.7546771E-02  0.1027688E+00
         21   -1    0    0  502  501  0.00000000000E+00  0.00000000000E+00  0.28371925825E+03  0.28371925825E+03  0.00000000000E+00 0.  1.
         21   -1    0    0  501  502 -0.00000000000E+00 -0.00000000000E+00 -0.17852273650E+03  0.17852273650E+03  0.00000000000E+00 0.  1.
      99926    2    1    2    0    0  0.00000000000E+00  0.14210854715E-13  0.10519652175E+03  0.46224199475E+03  0.45011260094E+03 0.  0.
      99925    2    3    3    0    0 -0.42908896333E+01 -0.67072619349E+02  0.15404520699E+03  0.31207258991E+03  0.26294909694E+03 0.  0.
         25    1    3    3    0    0  0.42908896333E+01  0.67072619349E+02 -0.48848685241E+02  0.15016940484E+03  0.12509000000E+03 0.  0.
         25    1    4    4    0    0 -0.17237501436E+01 -0.43266198808E+02  0.33129282227E+02  0.13645509413E+03  0.12509000000E+03 0.  0.
         25    1    4    4    0    0 -0.25671394897E+01 -0.23806420542E+02  0.12091592476E+03  0.17561749578E+03  0.12509000000E+03 0.  0.
<mgrwt>
<rscale>  2 0.45011260E+03</rscale>
<asrwt>0</asrwt>
<pdfrwt beam="1">  1       21 0.41723420E-01 0.45011260E+03</pdfrwt>
<pdfrwt beam="2">  1       21 0.26253344E-01 0.45011260E+03</pdfrwt>
<totfact> 0.70719445E+04</totfact>
</mgrwt>
</event>
<event>
 7    0  0.4748297E-002  0.4620801E+03  0.7546771E-02  0.1024180E+00
         21   -1    0    0  502  501  0.00000000000E+00  0.00000000000E+00  0.37306354772E+02  0.37306354772E+02  0.00000000000E+00 0. -1.
         21   -1    0    0  501  502 -0.00000000000E+00 -0.00000000000E+00 -0.14308420721E+04  0.14308420721E+04  0.00000000000E+00 0. -1.
      99926    2    1    2    0    0  0.00000000000E+00 -0.17763568394E-14 -0.13935357173E+04  0.14681484268E+04  0.46208008814E+03 0.  0.
      99925    2    3    3    0    0 -0.11744235906E+03  0.13790887175E+02 -0.81235945235E+03  0.86201621741E+03  0.26298513834E+03 0.  0.
         25    1    4    4    0    0 -0.81858889759E+02 -0.17621579012E+02 -0.35777549223E+03  0.38815230106E+03  0.12509000000E+03 0.  0.
         25    1    4    4    0    0 -0.35583469300E+02  0.31412466186E+02 -0.45458396012E+03  0.47386391635E+03  0.12509000000E+03 0.  0.
         25    1    3    3    0    0  0.11744235906E+03 -0.13790887175E+02 -0.58117626494E+03  0.60613220942E+03  0.12509000000E+03 0.  0.
<mgrwt>
<rscale>  2 0.46208009E+03</rscale>
<asrwt>0</asrwt>
<pdfrwt beam="1">  1       21 0.54862306E-02 0.46208009E+03</pdfrwt>
<pdfrwt beam="2">  1       21 0.21041788E+00 0.46208009E+03</pdfrwt>
<totfact> 0.23264580E+04</totfact>
</mgrwt>
</event>
<event>
 7    0  0.4748297E-002  0.4384411E+03  0.7546771E-02  0.1031226E+00
         21   -1    0    0  502  501  0.00000000000E+00  0.00000000000E+00  0.14738946565E+03  0.14738946565E+03  0.00000000000E+00 0.  1.
         21   -1    0    0  501  502 -0.00000000000E+00 -0.00000000000E+00 -0.32605890857E+03  0.32605890857E+03  0.00000000000E+00 0.  1.
      99926    2    1    2    0    0  0.00000000000E+00 -0.17763568394E-14 -0.17866944292E+03  0.47344837421E+03  0.43844109435E+03 0.  0.
      99925    2    3    3    0    0 -0.95230699841E+02  0.13358221112E+02 -0.10378252044E+03  0.29879761549E+03  0.26317650961E+03 0.  0.
         25    1    4    4    0    0 -0.67086480428E+02 -0.18573773115E+02 -0.81713521885E+02  0.16483382136E+03  0.12509000000E+03 0.  0.
         25    1    3    3    0    0  0.95230699841E+02 -0.13358221112E+02 -0.74886922488E+02  0.17465075872E+03  0.12509000000E+03 0.  0.
         25    1    4    4    0    0 -0.28144219412E+02  0.31931994228E+02 -0.22068998550E+02  0.13396379413E+03  0.12509000000E+03 0.  0.
<mgrwt>
<rscale>  2 0.43844109E+03</rscale>
<asrwt>0</asrwt>
<pdfrwt beam="1">  1       21 0.21674922E-01 0.43844109E+03</pdfrwt>
<pdfrwt beam="2">  1       21 0.47949839E-01 0.43844109E+03</pdfrwt>
<totfact> 0.76787772E+04</totfact>
</mgrwt>
</event>
<event>
 7    0  0.4748297E-002  0.4671403E+03  0.7546771E-02  0.1022730E+00
         21   -1    0    0  502  501  0.00000000000E+00  0.00000000000E+00  0.80034281499E+03  0.80034281499E+03  0.00000000000E+00 0. -1.
         21   -1    0    0  501  502 -0.00000000000E+00 -0.00000000000E+00 -0.68164546325E+02  0.68164546325E+02  0.00000000000E+00 0. -1.
      99926    2    1    2    0    0  0.00000000000E+00  0.00000000000E+00  0.73217826866E+03  0.86850736131E+03  0.46714025683E+03 0.  0.
      99925    2    3    3    0    0  0.11450332090E+03  0.23941391063E+02  0.53331699079E+03  0.60606209722E+03  0.26305902822E+03 0.  0.
         25    1    3    3    0    0 -0.11450332090E+03 -0.23941391063E+02  0.19886127787E+03  0.26244526409E+03  0.12509000000E+03 0.  0.
         25    1    4    4    0    0  0.74724296234E+02  0.19409255943E+02  0.20335418288E+03  0.25092004993E+03  0.12509000000E+03 0.  0.
         25    1    4    4    0    0  0.39779024670E+02  0.45321351197E+01  0.32996280791E+03  0.35514204729E+03  0.12509000000E+03 0.  0.
<mgrwt>
<rscale>  2 0.46714026E+03</rscale>
<asrwt>0</asrwt>
<pdfrwt beam="1">  1       21 0.11769747E+00 0.46714026E+03</pdfrwt>
<pdfrwt beam="2">  1       21 0.10024198E-01 0.46714026E+03</pdfrwt>
<totfact> 0.40614870E+04</totfact>
</mgrwt>
</event>
<event>
 7    0  0.4748297E-002  0.4510083E+03  0.7546771E-02  0.1027422E+00
         21   -1    0    0  502  501  0.00000000000E+00  0.00000000000E+00  0.51347324447E+03  0.51347324447E+03  0.00000000000E+00 0. -1.
         21   -1    0    0  501  502 -0.00000000000E+00 -0.00000000000E+00 -0.99035562211E+02  0.99035562211E+02  0.00000000000E+00 0. -1.
      99926    2    1    2    0    0  0.00000000000E+00  0.00000000000E+00  0.41443768226E+03  0.61250880668E+03  0.45100825468E+03 0.  0.
      99925    2    3    3    0    0  0.10303449152E+03 -0.30198853123E+02  0.29008725976E+03  0.40601761353E+03  0.26300495632E+03 0.  0.
         25    1    4    4    0    0  0.77492507511E+02 -0.20439872270E+02  0.10910897002E+03  0.18432349969E+03  0.12509000000E+03 0.  0.
         25    1    4    4    0    0  0.25541984012E+02 -0.97589808534E+01  0.18097828974E+03  0.22169411384E+03  0.12509000000E+03 0.  0.
         25    1    3    3    0    0 -0.10303449152E+03  0.30198853123E+02  0.12435042250E+03  0.20649119315E+03  0.12509000000E+03 0.  0.
<mgrwt>
<rscale>  2 0.45100825E+03</rscale>
<asrwt>0</asrwt>
<pdfrwt beam="1">  1       21 0.75510770E-01 0.45100825E+03</pdfrwt>
<pdfrwt beam="2">  1       21 0.14564054E-01 0.45100825E+03</pdfrwt>
<totfact> 0.59777300E+04</totfact>
</mgrwt>
</event>
<event>
 7    0  0.4748297E-002  0.4532381E+03  0.7546771E-02  0.1026761E+00
         21   -1    0    0  502  501  0.00000000000E+00  0.00000000000E+00  0.10331858798E+04  0.10331858798E+04  0.00000000000E+00 0. -1.
         21   -1    0    0  501  502 -0.00000000000E+00 -0.00000000000E+00 -0.49706634181E+02  0.49706634181E+02  0.00000000000E+00 0. -1.
      99926    2    1    2    0    0 -0.35527136788E-14  0.00000000000E+00  0.98347924560E+03  0.10828925140E+04  0.45323809446E+03 0.  0.
      99925    2    3    3    0    0 -0.57050574993E+01  0.85155905822E+02  0.79124450614E+03  0.83817680312E+03  0.26303689630E+03 0.  0.
         25    1    4    4    0    0 -0.33024979131E+02  0.70817850821E+02  0.43848365703E+03  0.46262429986E+03  0.12509000000E+03 0.  0.
         25    1    4    4    0    0  0.27319921632E+02  0.14338055002E+02  0.35276084911E+03  0.37555250326E+03  0.12509000000E+03 0.  0.
         25    1    3    3    0    0  0.57050574993E+01 -0.85155905822E+02  0.19223473947E+03  0.24471571085E+03  0.12509000000E+03 0.  0.
<mgrwt>
<rscale>  2 0.45323809E+03</rscale>
<asrwt>0</asrwt>
<pdfrwt beam="1">  1       21 0.15193909E+00 0.45323809E+03</pdfrwt>
<pdfrwt beam="2">  1       21 0.73097998E-02 0.45323809E+03</pdfrwt>
<totfact> 0.36593590E+04</totfact>
</mgrwt>
</event>
<event>
 7    0  0.4748297E-002  0.4194668E+03  0.7546771E-02  0.1037240E+00
         21   -1    0    0  502  501  0.00000000000E+00  0.00000000000E+00  0.89787858396E+02  0.89787858396E+02  0.00000000000E+00 0. -1.
         21   -1    0    0  501  502 -0.00000000000E+00 -0.00000000000E+00 -0.48991136389E+03  0.48991136389E+03  0.00000000000E+00 0. -1.
      99926    2    1    2    0    0  0.00000000000E+00  0.00000000000E+00 -0.40012350550E+03  0.57969922229E+03  0.41946676706E+03 0.  0.
      99925    2    3    3    0    0  0.28508161002E+02  0.69431824270E+02 -0.26374642878E+03  0.38000017717E+03  0.26306741055E+03 0.  0.
         25    1    4    4    0    0 -0.25036927092E+02  0.44234207553E+02 -0.13677661084E+03  0.19219485479E+03  0.12509000000E+03 0.  0.
         25    1    4    4    0    0  0.53545088094E+02  0.25197616717E+02 -0.12696981794E+03  0.18780532238E+03  0.12509000000E+03 0.  0.
         25    1    3    3    0    0 -0.28508161002E+02 -0.69431824270E+02 -0.13637707672E+03  0.19969904511E+03  0.12509000000E+03 0.  0.
<mgrwt>
<rscale>  2 0.41946677E+03</rscale>
<asrwt>0</asrwt>
<pdfrwt beam="1">  1       21 0.13204097E-01 0.41946677E+03</pdfrwt>
<pdfrwt beam="2">  1       21 0.72045788E-01 0.41946677E+03</pdfrwt>
<totfact> 0.80211265E+04</totfact>
</mgrwt>
</event>
<event>
 7    0  0.4748297E-002  0.4573110E+03  0.7546771E-02  0.1025564E+00
         21   -1    0    0  502  501  0.00000000000E+00  0.00000000000E+00  0.12751136777E+03  0.12751136777E+03  0.00000000000E+00 0.  1.
         21   -1    0    0  501  502 -0.00000000000E+00 -0.00000000000E+00 -0.41002879780E+03  0.41002879780E+03  0.00000000000E+00 0.  1.
      99926    2    1    2    0    0  0.00000000000E+00  0.00000000000E+00 -0.28251743003E+03  0.53754016557E+03  0.45731097880E+03 0.  0.
      99925    2    3    3    0    0 -0.62213820801E+01  0.93531904120E+02 -0.25639136225E+03  0.37905672101E+03  0.26298392426E+03 0.  0.
         25    1    4    4    0    0 -0.85115936235E+01  0.30004511959E+02 -0.17326872269E+03  0.21596822990E+03  0.12509000000E+03 0.  0.
         25    1    4    4    0    0  0.22902115433E+01  0.63527392160E+02 -0.83122639557E+02  0.16308849110E+03  0.12509000000E+03 0.  0.
         25    1    3    3    0    0  0.62213820801E+01 -0.93531904120E+02 -0.26126067780E+02  0.15848344456E+03  0.12509000000E+03 0.  0.
<mgrwt>
<rscale>  2 0.45731098E+03</rscale>
<asrwt>0</asrwt>
<pdfrwt beam="1">  1       21 0.18751671E-01 0.45731098E+03</pdfrwt>
<pdfrwt beam="2">  1       21 0.60298354E-01 0.45731098E+03</pdfrwt>
<totfact> 0.61563623E+04</totfact>
</mgrwt>
</event>
<event>
 7    0  0.4748297E-002  0.4513391E+03  0.7546771E-02  0.1027323E+00
         21   -1    0    0  502  501  0.00000000000E+00  0.00000000000E+00  0.34569800705E+03  0.34569800705E+03  0.00000000000E+00 0.  1.
         21   -1    0    0  501  502 -0.00000000000E+00 -0.00000000000E+00 -0.14731572803E+03  0.14731572803E+03  0.00000000000E+00 0.  1.
      99926    2    1    2    0    0  0.00000000000E+00  0.00000000000E+00  0.19838227902E+03  0.49301373508E+03  0.45133913452E+03 0.  0.
      99925    2    3    3    0    0  0.10221194435E+03  0.28222910616E+02  0.15579296640E+03  0.32358772792E+03  0.26304705858E+03 0.  0.
         25    1    4    4    0    0  0.38276198059E+02  0.37633021675E+02  0.11159081875E+03  0.17601514307E+03  0.12509000000E+03 0.  0.
         25    1    3    3    0    0 -0.10221194435E+03 -0.28222910616E+02  0.42589312614E+02  0.16942600716E+03  0.12509000000E+03 0.  0.
         25    1    4    4    0    0  0.63935746296E+02 -0.94101110598E+01  0.44202147649E+02  0.14757258486E+03  0.12509000000E+03 0.  0.
<mgrwt>
<rscale>  2 0.45133913E+03</rscale>
<asrwt>0</asrwt>
<pdfrwt beam="1">  1       21 0.50837942E-01 0.45133913E+03</pdfrwt>
<pdfrwt beam="2">  1       21 0.21664078E-01 0.45133913E+03</pdfrwt>
<totfact> 0.67710814E+04</totfact>
</mgrwt>
</event>
<event>
 7    0  0.4748297E-002  0.4427918E+03  0.7546771E-02  0.1029894E+00
         21   -1    0    0  502  501  0.00000000000E+00  0.00000000000E+00  0.16478679931E+04  0.16478679931E+04  0.00000000000E+00 0.  1.
         21   -1    0    0  501  502 -0.00000000000E+00 -0.00000000000E+00 -0.29745186787E+02  0.29745186787E+02  0.00000000000E+00 0.  1.
      99926    2    1    2    0    0  0.00000000000E+00  0.00000000000E+00  0.16181228063E+04  0.16776131799E+04  0.44279178518E+03 0.  0.
      99925    2    3    3    0    0  0.87663149619E+02  0.43583476119E+02  0.93129613186E+03  0.97265734011E+03  0.26299328673E+03 0.  0.
         25    1    3    3    0    0 -0.87663149619E+02 -0.43583476119E+02  0.68682667448E+03  0.70495583980E+03  0.12509000000E+03 0.  0.
         25    1    4    4    0    0  0.62518800096E+02  0.55403186447E+02  0.44360686429E+03  0.46841506335E+03  0.12509000000E+03 0.  0.
         25    1    4    4    0    0  0.25144349524E+02 -0.11819710328E+02  0.48768926757E+03  0.50424227676E+03  0.12509000000E+03 0.  0.
<mgrwt>
<rscale>  2 0.44279179E+03</rscale>
<asrwt>0</asrwt>
<pdfrwt beam="1">  1       21 0.24233347E+00 0.44279179E+03</pdfrwt>
<pdfrwt beam="2">  1       21 0.43742933E-02 0.44279179E+03</pdfrwt>
<totfact> 0.21718357E+04</totfact>
</mgrwt>
</event>
<event>
 7    0  0.4748297E-002  0.4554402E+03  0.7546771E-02  0.1026112E+00
         21   -1    0    0  502  501  0.00000000000E+00  0.00000000000E+00  0.87194775839E+02  0.87194775839E+02  0.00000000000E+00 0.  1.
         21   -1    0    0  501  502 -0.00000000000E+00 -0.00000000000E+00 -0.59471963972E+03  0.59471963972E+03  0.00000000000E+00 0.  1.
      99926    2    1    2    0    0  0.00000000000E+00 -0.14210854715E-13 -0.50752486388E+03  0.68191441556E+03  0.45544020759E+03 0.  0.
      99925    2    3    3    0    0  0.50850064884E+02  0.97341555893E+02 -0.36298364238E+03  0.46145856870E+03  0.26291781679E+03 0.  0.
         25    1    4    4    0    0  0.56206953314E+02  0.76712381938E+02 -0.21896551654E+03  0.26951329592E+03  0.12509000000E+03 0.  0.
         25    1    3    3    0    0 -0.50850064884E+02 -0.97341555893E+02 -0.14454122150E+03  0.22045584686E+03  0.12509000000E+03 0.  0.
         25    1    4    4    0    0 -0.53568884302E+01  0.20629173955E+02 -0.14401812583E+03  0.19194527277E+03  0.12509000000E+03 0.  0.
<mgrwt>
<rscale>  2 0.45544021E+03</rscale>
<asrwt>0</asrwt>
<pdfrwt beam="1">  1       21 0.12822761E-01 0.45544021E+03</pdfrwt>
<pdfrwt beam="2">  1       21 0.87458771E-01 0.45544021E+03</pdfrwt>
<totfact> 0.53709865E+04</totfact>
</mgrwt>
</event>
<event>
 7    0  0.4748297E-002  0.4545667E+03  0.7546771E-02  0.1026369E+00
         21   -1    0    0  502  501  0.00000000000E+00  0.00000000000E+00  0.17147278620E+03  0.17147278620E+03  0.00000000000E+00 0. -1.
         21   -1    0    0  501  502 -0.00000000000E+00 -0.00000000000E+00 -0.30125904785E+03  0.30125904785E+03  0.00000000000E+00 0. -1.
      99926    2    1    2    0    0  0.00000000000E+00  0.00000000000E+00 -0.12978626165E+03  0.47273183405E+03  0.45456673131E+03 0.  0.
      99925    2    3    3    0    0  0.78282666830E+02 -0.41481405842E+02 -0.88850844846E+01  0.27750507949E+03  0.26283310571E+03 0.  0.
         25    1    3    3    0    0 -0.78282666830E+02  0.41481405842E+02 -0.12090117717E+03  0.19522675456E+03  0.12509000000E+03 0.  0.
         25    1    4    4    0    0  0.33668985787E+02 -0.13638365744E+02  0.35021124180E+02  0.13488362711E+03  0.12509000000E+03 0.  0.
         25    1    4    4    0    0  0.44613681043E+02 -0.27843040099E+02 -0.43906208665E+02  0.14262145237E+03  0.12509000000E+03 0.  0.
<mgrwt>
<rscale>  2 0.45456673E+03</rscale>
<asrwt>0</asrwt>
<pdfrwt beam="1">  1       21 0.25216587E-01 0.45456673E+03</pdfrwt>
<pdfrwt beam="2">  1       21 0.44302801E-01 0.45456673E+03</pdfrwt>
<totfact> 0.67464779E+04</totfact>
</mgrwt>
</event>
<event>
 7    0  0.4748297E-002  0.4536801E+03  0.7546771E-02  0.1026630E+00
         21   -1    0    0  502  501  0.00000000000E+00  0.00000000000E+00  0.11932453818E+04  0.11932453818E+04  0.00000000000E+00 0. -1.
         21   -1    0    0  501  502 -0.00000000000E+00 -0.00000000000E+00 -0.43123071494E+02  0.43123071494E+02  0.00000000000E+00 0. -1.
      99926    2    1    2    0    0  0.14210854715E-13  0.00000000000E+00  0.11501223103E+04  0.12363684533E+04  0.45368008954E+03 0.  0.
      99925    2    3    3    0    0 -0.72180354838E+02  0.40311205916E+02  0.51873460823E+03  0.58742089349E+03  0.26295002450E+03 0.  0.
         25    1    3    3    0    0  0.72180354838E+02 -0.40311205916E+02  0.63138770211E+03  0.64894755984E+03  0.12509000000E+03 0.  0.
         25    1    4    4    0    0 -0.78047097600E+02  0.20969591376E+02  0.28172814506E+03  0.31866805461E+03  0.12509000000E+03 0.  0.
         25    1    4    4    0    0  0.58667427611E+01  0.19341614539E+02  0.23700646316E+03  0.26875283888E+03  0.12509000000E+03 0.  0.
<mgrwt>
<rscale>  2 0.45368009E+03</rscale>
<asrwt>0</asrwt>
<pdfrwt beam="1">  1       21 0.17547724E+00 0.45368009E+03</pdfrwt>
<pdfrwt beam="2">  1       21 0.63416290E-02 0.45368009E+03</pdfrwt>
<totfact> 0.31340952E+04</totfact>
</mgrwt>
</event>
<event>
 7    0  0.4748297E-002  0.4532790E+03  0.7546771E-02  0.1026749E+00
         21   -1    0    0  502  501  0.00000000000E+00  0.00000000000E+00  0.11309885986E+03  0.11309885986E+03  0.00000000000E+00 0. -1.
         21   -1    0    0  501  502 -0.00000000000E+00 -0.00000000000E+00 -0.45416421543E+03  0.45416421543E+03  0.00000000000E+00 0. -1.
      99926    2    1    2    0    0  0.14210854715E-13 -0.17763568394E-14 -0.34106535557E+03  0.56726307528E+03  0.45327896467E+03 0.  0.
      99925    2    3    3    0    0 -0.98538898259E+02 -0.15994278222E+02 -0.15254541278E+03  0.31997173226E+03  0.26295641289E+03 0.  0.
         25    1    4    4    0    0 -0.29200012196E+02 -0.43510584293E+02 -0.73129197301E+02  0.15408179404E+03  0.12509000000E+03 0.  0.
         25    1    4    4    0    0 -0.69338886063E+02  0.27516306071E+02 -0.79416215478E+02  0.16588993822E+03  0.12509000000E+03 0.  0.
         25    1    3    3    0    0  0.98538898259E+02  0.15994278222E+02 -0.18851994279E+03  0.24729134303E+03  0.12509000000E+03 0.  0.
<mgrwt>
<rscale>  2 0.45327896E+03</rscale>
<asrwt>0</asrwt>
<pdfrwt beam="1">  1       21 0.16632185E-01 0.45327896E+03</pdfrwt>
<pdfrwt beam="2">  1       21 0.66788855E-01 0.45327896E+03</pdfrwt>
<totfact> 0.61573746E+04</totfact>
</mgrwt>
</event>
<event>
 7    0  0.4748297E-002  0.4576197E+03  0.7546771E-02  0.1025474E+00
         21   -1    0    0  502  501  0.00000000000E+00  0.00000000000E+00  0.14647320026E+03  0.14647320026E+03  0.00000000000E+00 0.  1.
         21   -1    0    0  501  502 -0.00000000000E+00 -0.00000000000E+00 -0.35743021170E+03  0.35743021170E+03  0.00000000000E+00 0.  1.
      99926    2    1    2    0    0  0.00000000000E+00  0.00000000000E+00 -0.21095701144E+03  0.50390341196E+03  0.45761969790E+03 0.  0.
      99925    2    3    3    0    0  0.39429708998E+02  0.73818423550E+02 -0.43525014860E+02  0.27877046638E+03  0.26232553135E+03 0.  0.
         25    1    4    4    0    0 -0.54565886623E+01  0.66217658411E+02 -0.13285824214E+02  0.14226234172E+03  0.12509000000E+03 0.  0.
         25    1    4    4    0    0  0.44886297660E+02  0.76007651389E+01 -0.30239190646E+02  0.13650812466E+03  0.12509000000E+03 0.  0.
         25    1    3    3    0    0 -0.39429708998E+02 -0.73818423550E+02 -0.16743199658E+03  0.22513294558E+03  0.12509000000E+03 0.  0.
<mgrwt>
<rscale>  2 0.45761970E+03</rscale>
<asrwt>0</asrwt>
<pdfrwt beam="1">  1       21 0.21540177E-01 0.45761970E+03</pdfrwt>
<pdfrwt beam="2">  1       21 0.52563266E-01 0.45761970E+03</pdfrwt>
<totfact> 0.63663125E+04</totfact>
</mgrwt>
</event>
<event>
 6    0  0.4748297E-002  0.4036473E+03  0.7546771E-02  0.1042524E+00
         21   -1    0    0  502  501  0.00000000000E+00  0.00000000000E+00  0.10963316277E+03  0.10963316277E+03  0.00000000000E+00 0.  1.
         21   -1    0    0  501  502 -0.00000000000E+00 -0.00000000000E+00 -0.37153712728E+03  0.37153712728E+03  0.00000000000E+00 0.  1.
      99926    2    1    2    0    0  0.00000000000E+00  0.00000000000E+00 -0.26190396450E+03  0.48117029005E+03  0.40364732305E+03 0.  0.
         25    1    3    3    0    0 -0.47204470115E+02  0.25828015842E+02 -0.67994180092E+02  0.15220402435E+03  0.12509000000E+03 0.  0.
         25    1    3    3    0    0  0.58014556857E+02 -0.74910140818E+01 -0.88609004797E+02  0.16407579934E+03  0.12509000000E+03 0.  0.
         25    1    3    3    0    0 -0.10810086742E+02 -0.18337001760E+02 -0.10530077961E+03  0.16489046636E+03  0.12509000000E+03 0.  0.
<mgrwt>
<rscale>  2 0.40364732E+03</rscale>
<asrwt>0</asrwt>
<pdfrwt beam="1">  1       21 0.16122524E-01 0.40364732E+03</pdfrwt>
<pdfrwt beam="2">  1       21 0.54637813E-01 0.40364732E+03</pdfrwt>
<totfact> 0.10238529E+05</totfact>
</mgrwt>
</event>
<event>
 7    0  0.4748297E-002  0.4675844E+03  0.7546771E-02  0.1022604E+00
         21   -1    0    0  502  501  0.00000000000E+00  0.00000000000E+00  0.34553112506E+02  0.34553112506E+02  0.00000000000E+00 0.  1.
         21   -1    0    0  501  502 -0.00000000000E+00 -0.00000000000E+00 -0.15818777339E+04  0.15818777339E+04  0.00000000000E+00 0.  1.
      99926    2    1    2    0    0  0.00000000000E+00  0.00000000000E+00 -0.15473246214E+04  0.16164308464E+04  0.46758442792E+03 0.  0.
      99925    2    3    3    0    0  0.69823103307E+02  0.96223227175E+02 -0.83366759117E+03  0.88220469589E+03  0.26296254047E+03 0.  0.
         25    1    4    4    0    0  0.62380010618E+02  0.23945271658E+02 -0.46599230899E+03  0.48709442811E+03  0.12509000000E+03 0.  0.
         25    1    3    3    0    0 -0.69823103307E+02 -0.96223227175E+02 -0.71365703022E+03  0.73422615051E+03  0.12509000000E+03 0.  0.
         25    1    4    4    0    0  0.74430926889E+01  0.72277955516E+02 -0.36767528218E+03  0.39511026778E+03  0.12509000000E+03 0.  0.
<mgrwt>
<rscale>  2 0.46758443E+03</rscale>
<asrwt>0</asrwt>
<pdfrwt beam="1">  1       21 0.50813403E-02 0.46758443E+03</pdfrwt>
<pdfrwt beam="2">  1       21 0.23262907E+00 0.46758443E+03</pdfrwt>
<totfact> 0.19123100E+04</totfact>
</mgrwt>
</event>
<event>
 7    0  0.4748297E-002  0.4549424E+03  0.7546771E-02  0.1026258E+00
         21   -1    0    0  502  501  0.00000000000E+00  0.00000000000E+00  0.11381529049E+04  0.11381529049E+04  0.00000000000E+00 0.  1.
         21   -1    0    0  501  502 -0.00000000000E+00 -0.00000000000E+00 -0.45462376816E+02  0.45462376816E+02  0.00000000000E+00 0.  1.
      99926    2    1    2    0    0  0.00000000000E+00  0.14210854715E-13  0.10926905281E+04  0.11836152817E+04  0.45494235343E+03 0.  0.
      99925    2    3    3    0    0 -0.24995499621E+02 -0.91850454602E+02  0.52795755167E+03  0.59741384555E+03  0.26287420086E+03 0.  0.
         25    1    4    4    0    0 -0.40505321563E+02 -0.39003065373E+02  0.32469723405E+03  0.35247371829E+03  0.12509000000E+03 0.  0.
         25    1    3    3    0    0  0.24995499621E+02  0.91850454602E+02  0.56473297643E+03  0.58620143618E+03  0.12509000000E+03 0.  0.
         25    1    4    4    0    0  0.15509821943E+02 -0.52847389229E+02  0.20326031762E+03  0.24494012726E+03  0.12509000000E+03 0.  0.
<mgrwt>
<rscale>  2 0.45494235E+03</rscale>
<asrwt>0</asrwt>
<pdfrwt beam="1">  1       21 0.16737541E+00 0.45494235E+03</pdfrwt>
<pdfrwt beam="2">  1       21 0.66856444E-02 0.45494235E+03</pdfrwt>
<totfact> 0.32694298E+04</totfact>
</mgrwt>
</event>
<event>
 7    0  0.4748297E-002  0.4406664E+03  0.7546771E-02  0.1030543E+00
         21   -1    0    0  502  501  0.00000000000E+00  0.00000000000E+00  0.24964823343E+03  0.24964823343E+03  0.00000000000E+00 0.  1.
         21   -1    0    0  501  502 -0.00000000000E+00 -0.00000000000E+00 -0.19446045761E+03  0.19446045761E+03  0.00000000000E+00 0.  1.
      99926    2    1    2    0    0  0.00000000000E+00 -0.14210854715E-13  0.55187775818E+02  0.44410869105E+03  0.44066635776E+03 0.  0.
      99925    2    3    3    0    0 -0.33017294173E+02  0.89571643502E+02  0.84177836872E+01  0.27994973973E+03  0.26303569465E+03 0.  0.
         25    1    4    4    0    0  0.17141773526E+02  0.36448865018E+02  0.26192591308E+02  0.13399970187E+03  0.12509000000E+03 0.  0.
         25    1    3    3    0    0  0.33017294173E+02 -0.89571643502E+02  0.46769992130E+02  0.16415895132E+03  0.12509000000E+03 0.  0.
         25    1    4    4    0    0 -0.50159067699E+02  0.53122778484E+02 -0.17774807621E+02  0.14595003786E+03  0.12509000000E+03 0.  0.
<mgrwt>
<rscale>  2 0.44066636E+03</rscale>
<asrwt>0</asrwt>
<pdfrwt beam="1">  1       21 0.36712975E-01 0.44066636E+03</pdfrwt>
<pdfrwt beam="2">  1       21 0.28597126E-01 0.44066636E+03</pdfrwt>
<totfact> 0.77883787E+04</totfact>
</mgrwt>
</event>
<event>
 7    0  0.4748297E-002  0.4561693E+03  0.7546771E-02  0.1025898E+00
         21   -1    0    0  502  501  0.00000000000E+00  0.00000000000E+00  0.40105532620E+03  0.40105532620E+03  0.00000000000E+00 0.  1.
         21   -1    0    0  501  502 -0.00000000000E+00 -0.00000000000E+00 -0.12971430628E+03  0.12971430628E+03  0.00000000000E+00 0.  1.
      99926    2    1    2    0    0  0.00000000000E+00 -0.17763568394E-14  0.27134101992E+03  0.53076963247E+03  0.45616932565E+03 0.  0.
      99925    2    3    3    0    0  0.75507462480E+02  0.15695167051E+02  0.26862676286E+03  0.38379143528E+03  0.26303576355E+03 0.  0.
         25    1    3    3    0    0 -0.75507462480E+02 -0.15695167051E+02  0.27142570585E+01  0.14697819719E+03  0.12509000000E+03 0.  0.
         25    1    4    4    0    0  0.52760446321E+02  0.44287092894E+02  0.12413518908E+03  0.18921433498E+03  0.12509000000E+03 0.  0.
         25    1    4    4    0    0  0.22747016159E+02 -0.28591925843E+02  0.14449157378E+03  0.19457710030E+03  0.12509000000E+03 0.  0.
<mgrwt>
<rscale>  2 0.45616933E+03</rscale>
<asrwt>0</asrwt>
<pdfrwt beam="1">  1       21 0.58978724E-01 0.45616933E+03</pdfrwt>
<pdfrwt beam="2">  1       21 0.19075633E-01 0.45616933E+03</pdfrwt>
<totfact> 0.62572520E+04</totfact>
</mgrwt>
</event>
<event>
 7    0  0.4748297E-002  0.4623420E+03  0.7546771E-02  0.1024104E+00
         21   -1    0    0  502  501  0.00000000000E+00  0.00000000000E+00  0.13396923736E+04  0.13396923736E+04  0.00000000000E+00 0. -1.
         21   -1    0    0  501  502 -0.00000000000E+00 -0.00000000000E+00 -0.39889775605E+02  0.39889775605E+02  0.00000000000E+00 0. -1.
      99926    2    1    2    0    0  0.17763568394E-14  0.00000000000E+00  0.12998025980E+04  0.13795821492E+04  0.46234198669E+03 0.  0.
      99925    2    3    3    0    0  0.15695430763E+02  0.11839326976E+03  0.84387113686E+03  0.89195081487E+03  0.26304837514E+03 0.  0.
         25    1    4    4    0    0 -0.26148324459E+02  0.33889816894E+02  0.39259057615E+03  0.41425490117E+03  0.12509000000E+03 0.  0.
         25    1    3    3    0    0 -0.15695430763E+02 -0.11839326976E+03  0.45593146118E+03  0.48763133437E+03  0.12509000000E+03 0.  0.
         25    1    4    4    0    0  0.41843755223E+02  0.84503452863E+02  0.45128056070E+03  0.47769591370E+03  0.12509000000E+03 0.  0.
<mgrwt>
<rscale>  2 0.46234199E+03</rscale>
<asrwt>0</asrwt>
<pdfrwt beam="1">  1       21 0.19701355E+00 0.46234199E+03</pdfrwt>
<pdfrwt beam="2">  1       21 0.58661444E-02 0.46234199E+03</pdfrwt>
<totfact> 0.25400619E+04</totfact>
</mgrwt>
</event>
<event>
 7    0  0.4748297E-002  0.4583256E+03  0.7546771E-02  0.1025268E+00
         21   -1    0    0  502  501  0.00000000000E+00  0.00000000000E+00  0.12799125274E+03  0.12799125274E+03  0.00000000000E+00 0. -1.
         21   -1    0    0  501  502 -0.00000000000E+00 -0.00000000000E+00 -0.41030605058E+03  0.41030605058E+03  0.00000000000E+00 0. -1.
      99926    2    1    2    0    0  0.00000000000E+00  0.00000000000E+00 -0.28231479783E+03  0.53829730332E+03  0.45832558480E+03 0.  0.
      99925    2    3    3    0    0  0.72718889345E+02  0.37928846110E+02 -0.80272199113E+02  0.28691044202E+03  0.26295882103E+03 0.  0.
         25    1    4    4    0    0  0.11785625462E+02  0.27837683299E+02 -0.59205400505E+01  0.12882700988E+03  0.12509000000E+03 0.  0.
         25    1    4    4    0    0  0.60933263883E+02  0.10091162810E+02 -0.74351659063E+02  0.15808343215E+03  0.12509000000E+03 0.  0.
         25    1    3    3    0    0 -0.72718889345E+02 -0.37928846110E+02 -0.20204259872E+03  0.25138686130E+03  0.12509000000E+03 0.  0.
<mgrwt>
<rscale>  2 0.45832558E+03</rscale>
<asrwt>0</asrwt>
<pdfrwt beam="1">  1       21 0.18822243E-01 0.45832558E+03</pdfrwt>
<pdfrwt beam="2">  1       21 0.60339126E-01 0.45832558E+03</pdfrwt>
<totfact> 0.61024027E+04</totfact>
</mgrwt>
</event>
<event>
 7    0  0.4748297E-002  0.4699745E+03  0.7546771E-02  0.1021927E+00
         21   -1    0    0  502  501  0.00000000000E+00  0.00000000000E+00  0.18812505076E+03  0.18812505076E+03  0.00000000000E+00 0. -1.
         21   -1    0    0  501  502 -0.00000000000E+00 -0.00000000000E+00 -0.29352290863E+03  0.29352290863E+03  0.00000000000E+00 0. -1.
      99926    2    1    2    0    0  0.00000000000E+00  0.00000000000E+00 -0.10539785787E+03  0.48164795939E+03  0.46997451882E+03 0.  0.
      99925    2    3    3    0    0  0.22295983321E+02  0.10905155240E+03 -0.12759633406E+03  0.31274078844E+03  0.26293844210E+03 0.  0.
         25    1    4    4    0    0 -0.36426848846E+01  0.80172153272E+02 -0.99305919718E+02  0.17874567716E+03  0.12509000000E+03 0.  0.
         25    1    4    4    0    0  0.25938668205E+02  0.28879399129E+02 -0.28290414339E+02  0.13399511128E+03  0.12509000000E+03 0.  0.
         25    1    3    3    0    0 -0.22295983321E+02 -0.10905155240E+03  0.22198476192E+02  0.16890717095E+03  0.12509000000E+03 0.  0.
<mgrwt>
<rscale>  2 0.46997452E+03</rscale>
<asrwt>0</asrwt>
<pdfrwt beam="1">  1       21 0.27665449E-01 0.46997452E+03</pdfrwt>
<pdfrwt beam="2">  1       21 0.43165133E-01 0.46997452E+03</pdfrwt>
<totfact> 0.59222621E+04</totfact>
</mgrwt>
</event>
<event>
 7    0  0.4748297E-002  0.4520836E+03  0.7546771E-02  0.1027103E+00
         21   -1    0    0  502  501  0.00000000000E+00  0.00000000000E+00  0.10455417782E+03  0.10455417782E+03  0.00000000000E+00 0.  1.
         21   -1    0    0  501  502 -0.00000000000E+00 -0.00000000000E+00 -0.48869305576E+03  0.48869305576E+03  0.00000000000E+00 0.  1.
      99926    2    1    2    0    0  0.00000000000E+00  0.00000000000E+00 -0.38413887794E+03  0.59324723358E+03  0.45208362346E+03 0.  0.
      99925    2    3    3    0    0 -0.10107953345E+03 -0.30274905979E+02 -0.19925439739E+03  0.34633951546E+03  0.26289751440E+03 0.  0.
         25    1    3    3    0    0  0.10107953345E+03  0.30274905979E+02 -0.18488448055E+03  0.24690771811E+03  0.12509000000E+03 0.  0.
         25    1    4    4    0    0 -0.79197516118E+02 -0.31813770564E+02 -0.13986276079E+03  0.20613942494E+03  0.12509000000E+03 0.  0.
         25    1    4    4    0    0 -0.21882017329E+02  0.15388645845E+01 -0.59391636594E+02  0.14020009053E+03  0.12509000000E+03 0.  0.
<mgrwt>
<rscale>  2 0.45208362E+03</rscale>
<asrwt>0</asrwt>
<pdfrwt beam="1">  1       21 0.15375615E-01 0.45208362E+03</pdfrwt>
<pdfrwt beam="2">  1       21 0.71866624E-01 0.45208362E+03</pdfrwt>
<totfact> 0.60477691E+04</totfact>
</mgrwt>
</event>
<event>
 7    0  0.4748297E-002  0.4464449E+03  0.7546771E-02  0.1028788E+00
         21   -1    0    0  502  501  0.00000000000E+00  0.00000000000E+00  0.49397878147E+03  0.49397878147E+03  0.00000000000E+00 0. -1.
         21   -1    0    0  501  502 -0.00000000000E+00 -0.00000000000E+00 -0.10087127388E+03  0.10087127388E+03  0.00000000000E+00 0. -1.
      99926    2    1    2    0    0  0.00000000000E+00  0.00000000000E+00  0.39310750759E+03  0.59485005534E+03  0.44644493033E+03 0.  0.
      99925    2    3    3    0    0 -0.47237362689E+02 -0.85458356358E+02  0.19882018165E+03  0.34399238210E+03  0.26318585677E+03 0.  0.
         25    1    4    4    0    0  0.11521388538E+02 -0.56213039907E+02  0.78529588430E+02  0.15845205145E+03  0.12509000000E+03 0.  0.
         25    1    4    4    0    0 -0.58758751226E+02 -0.29245316451E+02  0.12029059322E+03  0.18554033065E+03  0.12509000000E+03 0.  0.
         25    1    3    3    0    0  0.47237362689E+02  0.85458356358E+02  0.19428732594E+03  0.25085767324E+03  0.12509000000E+03 0.  0.
<mgrwt>
<rscale>  2 0.44644493E+03</rscale>
<asrwt>0</asrwt>
<pdfrwt beam="1">  1       21 0.72643938E-01 0.44644493E+03</pdfrwt>
<pdfrwt beam="2">  1       21 0.14834011E-01 0.44644493E+03</pdfrwt>
<totfact> 0.63159072E+04</totfact>
</mgrwt>
</event>
<event>
 7    0  0.4748297E-002  0.4559581E+03  0.7546771E-02  0.1025960E+00
         21   -1    0    0  502  501  0.00000000000E+00  0.00000000000E+00  0.36121925660E+03  0.36121925660E+03  0.00000000000E+00 0.  1.
         21   -1    0    0  501  502 -0.00000000000E+00 -0.00000000000E+00 -0.14388614578E+03  0.14388614578E+03  0.00000000000E+00 0.  1.
      99926    2    1    2    0    0  0.00000000000E+00  0.00000000000E+00  0.21733311082E+03  0.50510540237E+03  0.45595809725E+03 0.  0.
      99925    2    3    3    0    0 -0.82661248449E+02  0.77952730877E+02  0.12596623008E+03  0.31299885578E+03  0.26304235848E+03 0.  0.
         25    1    4    4    0    0 -0.77746478109E+02  0.55765247769E+02  0.51675812629E+02  0.16574732404E+03  0.12509000000E+03 0.  0.
         25    1    3    3    0    0  0.82661248449E+02 -0.77952730877E+02  0.91366880743E+02  0.19210654659E+03  0.12509000000E+03 0.  0.
         25    1    4    4    0    0 -0.49147703405E+01  0.22187483108E+02  0.74290417450E+02  0.14725153174E+03  0.12509000000E+03 0.  0.
<mgrwt>
<rscale>  2 0.45595810E+03</rscale>
<asrwt>0</asrwt>
<pdfrwt beam="1">  1       21 0.53120479E-01 0.45595810E+03</pdfrwt>
<pdfrwt beam="2">  1       21 0.21159727E-01 0.45595810E+03</pdfrwt>
<totfact> 0.64422149E+04</totfact>
</mgrwt>
</event>
<event>
 7    0  0.4748297E-002  0.4563779E+03  0.7546771E-02  0.1025837E+00
         21   -1    0    0  502  501  0.00000000000E+00  0.00000000000E+00  0.12976373097E+03  0.12976373097E+03  0.00000000000E+00 0.  1.
         21   -1    0    0  501  502 -0.00000000000E+00 -0.00000000000E+00 -0.40126929702E+03  0.40126929702E+03  0.00000000000E+00 0.  1.
      99926    2    1    2    0    0 -0.14210854715E-13 -0.14210854715E-13 -0.27150556605E+03  0.53103302799E+03  0.45637791842E+03 0.  0.
      99925    2    3    3    0    0  0.89678555738E+02  0.66278157756E+02 -0.14060815901E+03  0.31839089476E+03  0.26299633064E+03 0.  0.
         25    1    4    4    0    0  0.86434340075E+02  0.30208998262E+02 -0.84939708244E+02  0.17676464821E+03  0.12509000000E+03 0.  0.
         25    1    4    4    0    0  0.32442156630E+01  0.36069159494E+02 -0.55668450767E+02  0.14162624655E+03  0.12509000000E+03 0.  0.
         25    1    3    3    0    0 -0.89678555738E+02 -0.66278157756E+02 -0.13089740703E+03  0.21264213323E+03  0.12509000000E+03 0.  0.
<mgrwt>
<rscale>  2 0.45637792E+03</rscale>
<asrwt>0</asrwt>
<pdfrwt beam="1">  1       21 0.19082902E-01 0.45637792E+03</pdfrwt>
<pdfrwt beam="2">  1       21 0.59010191E-01 0.45637792E+03</pdfrwt>
<totfact> 0.62451804E+04</totfact>
</mgrwt>
</event>
<event>
 7    0  0.4748297E-002  0.4562229E+03  0.7546771E-02  0.1025882E+00
         21   -1    0    0  502  501  0.00000000000E+00  0.00000000000E+00  0.26840367760E+02  0.26840367760E+02  0.00000000000E+00 0. -1.
         21   -1    0    0  501  502 -0.00000000000E+00 -0.00000000000E+00 -0.19386784399E+04  0.19386784399E+04  0.00000000000E+00 0. -1.
      99926    2    1    2    0    0 -0.71054273576E-14  0.00000000000E+00 -0.19118380721E+04  0.19655188076E+04  0.45622293802E+03 0.  0.
      99925    2    3    3    0    0 -0.54477815008E+02 -0.87941973852E+02 -0.14114158313E+04  0.14394279882E+04  0.26297654129E+03 0.  0.
         25    1    4    4    0    0 -0.65369916283E+02 -0.60870399686E+02 -0.80850494293E+03  0.82298613740E+03  0.12509000000E+03 0.  0.
         25    1    3    3    0    0  0.54477815008E+02  0.87941973852E+02 -0.50042224079E+03  0.52609081941E+03  0.12509000000E+03 0.  0.
         25    1    4    4    0    0  0.10892101275E+02 -0.27071574166E+02 -0.60291088840E+03  0.61644185082E+03  0.12509000000E+03 0.  0.
<mgrwt>
<rscale>  2 0.45622294E+03</rscale>
<asrwt>0</asrwt>
<pdfrwt beam="1">  1       21 0.39471139E-02 0.45622294E+03</pdfrwt>
<pdfrwt beam="2">  1       21 0.28509970E+00 0.45622294E+03</pdfrwt>
<totfact> 0.14146358E+04</totfact>
</mgrwt>
</event>
<event>
 6    0  0.4748297E-002  0.4606722E+03  0.7546771E-02  0.1024586E+00
         21   -1    0    0  502  501  0.00000000000E+00  0.00000000000E+00  0.66692422834E+02  0.66692422834E+02  0.00000000000E+00 0.  1.
         21   -1    0    0  501  502 -0.00000000000E+00 -0.00000000000E+00 -0.79551353745E+03  0.79551353745E+03  0.00000000000E+00 0.  1.
      99926    2    1    2    0    0  0.14210854715E-13  0.00000000000E+00 -0.72882111461E+03  0.86220596028E+03  0.46067222712E+03 0.  0.
         25    1    3    3    0    0 -0.21282093492E+02 -0.13752978409E+02 -0.29759935622E+03  0.32381315113E+03  0.12509000000E+03 0.  0.
         25    1    3    3    0    0  0.10208422492E+03  0.25163803098E+02 -0.15959759329E+03  0.22841476714E+03  0.12509000000E+03 0.  0.
         25    1    3    3    0    0 -0.80802131431E+02 -0.11410824689E+02 -0.27162416510E+03  0.30997804201E+03  0.12509000000E+03 0.  0.
<mgrwt>
<rscale>  2 0.46067223E+03</rscale>
<asrwt>0</asrwt>
<pdfrwt beam="1">  1       21 0.98077101E-02 0.46067223E+03</pdfrwt>
<pdfrwt beam="2">  1       21 0.11698727E+00 0.46067223E+03</pdfrwt>
<totfact> 0.42954968E+04</totfact>
</mgrwt>
</event>
<event>
 6    0  0.4859650E-002  0.4470476E+03  0.7546771E-02  0.1028606E+00
         21   -1    0    0  502  501  0.00000000000E+00  0.00000000000E+00  0.10935740930E+03  0.10935740930E+03  0.00000000000E+00 0.  1.
         21   -1    0    0  501  502 -0.00000000000E+00 -0.00000000000E+00 -0.45687698322E+03  0.45687698322E+03  0.00000000000E+00 0.  1.
      99926    2    1    2    0    0 -0.88817841970E-15  0.00000000000E+00 -0.34751957393E+03  0.56623439252E+03  0.44704757354E+03 0.  0.
         25    1    3    3    0    0  0.10938662312E+02 -0.79541037895E+02 -0.19912991902E+03  0.24848875989E+03  0.12509000000E+03 0.  0.
         25    1    3    3    0    0  0.27305912516E+01  0.72791540636E+02 -0.36641793267E+02  0.14931910002E+03  0.12509000000E+03 0.  0.
         25    1    3    3    0    0 -0.13669253564E+02  0.67494972592E+01 -0.11174786164E+03  0.16842653261E+03  0.12509000000E+03 0.  0.
<mgrwt>
<rscale>  2 0.44704757E+03</rscale>
<asrwt>0</asrwt>
<pdfrwt beam="1">  1       21 0.16081972E-01 0.44704757E+03</pdfrwt>
<pdfrwt beam="2">  1       21 0.67187791E-01 0.44704757E+03</pdfrwt>
<totfact> 0.64785643E+04</totfact>
</mgrwt>
</event>
<event>
 7    0  0.4748297E-002  0.5437366E+03  0.7546771E-02  0.1002954E+00
         21   -1    0    0  502  501  0.00000000000E+00  0.00000000000E+00  0.82862877708E+03  0.82862877708E+03  0.00000000000E+00 0.  1.
         21   -1    0    0  501  502 -0.00000000000E+00 -0.00000000000E+00 -0.89198425540E+02  0.89198425540E+02  0.00000000000E+00 0.  1.
      99926    2    1    2    0    0  0.00000000000E+00  0.00000000000E+00  0.73943035154E+03  0.91782720262E+03  0.54373663578E+03 0.  0.
      99925    2    3    3    0    0  0.16615950650E+03 -0.68529107712E+02  0.50500302849E+03  0.59703303482E+03  0.26289763344E+03 0.  0.
         25    1    4    4    0    0  0.12593326485E+03 -0.33441226050E+02  0.25595994040E+03  0.31327384504E+03  0.12509000000E+03 0.  0.
         25    1    4    4    0    0  0.40226241654E+02 -0.35087881663E+02  0.24904308809E+03  0.28375918978E+03  0.12509000000E+03 0.  0.
         25    1    3    3    0    0 -0.16615950650E+03  0.68529107712E+02  0.23442732304E+03  0.32079416780E+03  0.12509000000E+03 0.  0.
<mgrwt>
<rscale>  2 0.54373664E+03</rscale>
<asrwt>0</asrwt>
<pdfrwt beam="1">  1       21 0.12185717E+00 0.54373664E+03</pdfrwt>
<pdfrwt beam="2">  1       21 0.13117416E-01 0.54373664E+03</pdfrwt>
<totfact> 0.22384250E+04</totfact>
</mgrwt>
</event>
<event>
 7    0  0.4748297E-002  0.4545278E+03  0.7546771E-02  0.1026380E+00
         21   -1    0    0  502  501  0.00000000000E+00  0.00000000000E+00  0.21485768691E+03  0.21485768691E+03  0.00000000000E+00 0.  1.
         21   -1    0    0  501  502 -0.00000000000E+00 -0.00000000000E+00 -0.24038641879E+03  0.24038641879E+03  0.00000000000E+00 0.  1.
      99926    2    1    2    0    0  0.71054273576E-14  0.14210854715E-13 -0.25528731875E+02  0.45524410570E+03  0.45452775451E+03 0.  0.
      99925    2    3    3    0    0 -0.50917901642E+02 -0.10047435589E+03 -0.20717363815E+02  0.28684462155E+03  0.26298840060E+03 0.  0.
         25    1    4    4    0    0 -0.43282545496E+02 -0.58693250524E+02  0.25231641666E+02  0.14697761817E+03  0.12509000000E+03 0.  0.
         25    1    3    3    0    0  0.50917901642E+02  0.10047435589E+03 -0.48113680605E+01  0.16839948415E+03  0.12509000000E+03 0.  0.
         25    1    4    4    0    0 -0.76353561451E+01 -0.41781105364E+02 -0.45949005481E+02  0.13986700338E+03  0.12509000000E+03 0.  0.
<mgrwt>
<rscale>  2 0.45452775E+03</rscale>
<asrwt>0</asrwt>
<pdfrwt beam="1">  1       21 0.31596719E-01 0.45452775E+03</pdfrwt>
<pdfrwt beam="2">  1       21 0.35350944E-01 0.45452775E+03</pdfrwt>
<totfact> 0.68786766E+04</totfact>
</mgrwt>
</event>
<event>
 7    0  0.4748297E-002  0.4084063E+03  0.7546771E-02  0.1040907E+00
         21   -1    0    0  502  501  0.00000000000E+00  0.00000000000E+00  0.22459793116E+03  0.22459793116E+03  0.00000000000E+00 0. -1.
         21   -1    0    0  501  502 -0.00000000000E+00 -0.00000000000E+00 -0.18566037597E+03  0.18566037597E+03  0.00000000000E+00 0. -1.
      99926    2    1    2    0    0  0.00000000000E+00  0.35527136788E-14  0.38937555197E+02  0.41025830713E+03  0.40840634834E+03 0.  0.
      99925    2    3    3    0    0  0.18219339603E+02 -0.28182218311E+02  0.75921639393E+02  0.27556787559E+03  0.26276867577E+03 0.  0.
         25    1    3    3    0    0 -0.18219339603E+02  0.28182218311E+02 -0.36984084196E+02  0.13469043154E+03  0.12509000000E+03 0.  0.
         25    1    4    4    0    0  0.48139948696E+02 -0.21913426998E+02  0.45722464378E+02  0.14330284293E+03  0.12509000000E+03 0.  0.
         25    1    4    4    0    0 -0.29920609093E+02 -0.62687913137E+01  0.30199175015E+02  0.13226503266E+03  0.12509000000E+03 0.  0.
<mgrwt>
<rscale>  2 0.40840635E+03</rscale>
<asrwt>0</asrwt>
<pdfrwt beam="1">  1       21 0.33029108E-01 0.40840635E+03</pdfrwt>
<pdfrwt beam="2">  1       21 0.27302996E-01 0.40840635E+03</pdfrwt>
<totfact> 0.10631461E+05</totfact>
</mgrwt>
</event>
<event>
 7    0  0.4748297E-002  0.4622630E+03  0.7546771E-02  0.1024127E+00
         21   -1    0    0  502  501  0.00000000000E+00  0.00000000000E+00  0.43066890306E+02  0.43066890306E+02  0.00000000000E+00 0. -1.
         21   -1    0    0  501  502 -0.00000000000E+00 -0.00000000000E+00 -0.12404373739E+04  0.12404373739E+04  0.00000000000E+00 0. -1.
      99926    2    1    2    0    0  0.00000000000E+00  0.00000000000E+00 -0.11973704836E+04  0.12835042642E+04  0.46226304336E+03 0.  0.
      99925    2    3    3    0    0  0.39406960860E+02 -0.21096555080E+02 -0.43975172397E+03  0.51432829849E+03  0.26297157012E+03 0.  0.
         25    1    4    4    0    0  0.24582736534E+02  0.30058976400E+01 -0.29230342187E+03  0.31890773727E+03  0.12509000000E+03 0.  0.
         25    1    3    3    0    0 -0.39406960860E+02  0.21096555080E+02 -0.75761875964E+03  0.76917596573E+03  0.12509000000E+03 0.  0.
         25    1    4    4    0    0  0.14824224327E+02 -0.24102452720E+02 -0.14744830210E+03  0.19542056122E+03  0.12509000000E+03 0.  0.
<mgrwt>
<rscale>  2 0.46226304E+03</rscale>
<asrwt>0</asrwt>
<pdfrwt beam="1">  1       21 0.63333663E-02 0.46226304E+03</pdfrwt>
<pdfrwt beam="2">  1       21 0.18241726E+00 0.46226304E+03</pdfrwt>
<totfact> 0.27982287E+04</totfact>
</mgrwt>
</event>
<event>
 7    0  0.4748297E-002  0.4532570E+03  0.7546771E-02  0.1026755E+00
         21   -1    0    0  502  501  0.00000000000E+00  0.00000000000E+00  0.28992895273E+03  0.28992895273E+03  0.00000000000E+00 0.  1.
         21   -1    0    0  501  502 -0.00000000000E+00 -0.00000000000E+00 -0.17714848481E+03  0.17714848481E+03  0.00000000000E+00 0.  1.
      99926    2    1    2    0    0  0.00000000000E+00 -0.71054273576E-14  0.11278046792E+03  0.46707743754E+03  0.45325698970E+03 0.  0.
      99925    2    3    3    0    0  0.96325862591E+02 -0.38132583207E+02  0.28446660210E+02  0.28406797077E+03  0.26296888377E+03 0.  0.
         25    1    4    4    0    0  0.56571590755E+02  0.12946394166E+02  0.37588510874E+02  0.14292780783E+03  0.12509000000E+03 0.  0.
         25    1    3    3    0    0 -0.96325862591E+02  0.38132583207E+02  0.84333807708E+02  0.18300946677E+03  0.12509000000E+03 0.  0.
         25    1    4    4    0    0  0.39754271837E+02 -0.51078977373E+02 -0.91418506644E+01  0.14114016293E+03  0.12509000000E+03 0.  0.
<mgrwt>
<rscale>  2 0.45325699E+03</rscale>
<asrwt>0</asrwt>
<pdfrwt beam="1">  1       21 0.42636611E-01 0.45325699E+03</pdfrwt>
<pdfrwt beam="2">  1       21 0.26051248E-01 0.45325699E+03</pdfrwt>
<totfact> 0.68597335E+04</totfact>
</mgrwt>
</event>
<event>
 7    0  0.4748297E-002  0.4524089E+03  0.7546771E-02  0.1027006E+00
         21   -1    0    0  502  501  0.00000000000E+00  0.00000000000E+00  0.78299676073E+02  0.78299676073E+02  0.00000000000E+00 0. -1.
         21   -1    0    0  501  502 -0.00000000000E+00 -0.00000000000E+00 -0.65349519214E+03  0.65349519214E+03  0.00000000000E+00 0. -1.
      99926    2    1    2    0    0  0.00000000000E+00 -0.14210854715E-13 -0.57519551606E+03  0.73179486821E+03  0.45240893828E+03 0.  0.
      99925    2    3    3    0    0  0.78128660682E+02 -0.76573129769E+02 -0.39006518994E+03  0.48302132144E+03  0.26304222615E+03 0.  0.
         25    1    4    4    0    0  0.17622449573E+02 -0.72412691567E+02 -0.20982410119E+03  0.25539735740E+03  0.12509000000E+03 0.  0.
         25    1    3    3    0    0 -0.78128660682E+02  0.76573129769E+02 -0.18513032612E+03  0.24877354677E+03  0.12509000000E+03 0.  0.
         25    1    4    4    0    0  0.60506211109E+02 -0.41604382015E+01 -0.18024108875E+03  0.22762396404E+03  0.12509000000E+03 0.  0.
<mgrwt>
<rscale>  2 0.45240894E+03</rscale>
<asrwt>0</asrwt>
<pdfrwt beam="1">  1       21 0.11514659E-01 0.45240894E+03</pdfrwt>
<pdfrwt beam="2">  1       21 0.96102232E-01 0.45240894E+03</pdfrwt>
<totfact> 0.52267270E+04</totfact>
</mgrwt>
</event>
<event>
 7    0  0.4748297E-002  0.4537654E+03  0.7546771E-02  0.1026605E+00
         21   -1    0    0  502  501  0.00000000000E+00  0.00000000000E+00  0.99867144870E+02  0.99867144870E+02  0.00000000000E+00 0.  1.
         21   -1    0    0  501  502 -0.00000000000E+00 -0.00000000000E+00 -0.51544234096E+03  0.51544234096E+03  0.00000000000E+00 0.  1.
      99926    2    1    2    0    0  0.00000000000E+00  0.35527136788E-14 -0.41557519609E+03  0.61530948583E+03  0.45376537962E+03 0.  0.
      99925    2    3    3    0    0 -0.10723646814E+03 -0.17726759556E+02 -0.22571705607E+03  0.36330250272E+03  0.26310952278E+03 0.  0.
         25    1    4    4    0    0 -0.19245894755E+02 -0.29834520862E+02 -0.86820661038E+02  0.15635164976E+03  0.12509000000E+03 0.  0.
         25    1    3    3    0    0  0.10723646814E+03  0.17726759556E+02 -0.18985814002E+03  0.25200698311E+03  0.12509000000E+03 0.  0.
         25    1    4    4    0    0 -0.87990573381E+02  0.12107761307E+02 -0.13889639503E+03  0.20695085296E+03  0.12509000000E+03 0.  0.
<mgrwt>
<rscale>  2 0.45376538E+03</rscale>
<asrwt>0</asrwt>
<pdfrwt beam="1">  1       21 0.14686345E-01 0.45376538E+03</pdfrwt>
<pdfrwt beam="2">  1       21 0.75800345E-01 0.45376538E+03</pdfrwt>
<totfact> 0.58312188E+04</totfact>
</mgrwt>
</event>
<event>
 7    0  0.4748297E-002  0.4540426E+03  0.7546771E-02  0.1026523E+00
         21   -1    0    0  502  501  0.00000000000E+00  0.00000000000E+00  0.44141267403E+02  0.44141267403E+02  0.00000000000E+00 0.  1.
         21   -1    0    0  501  502 -0.00000000000E+00 -0.00000000000E+00 -0.11675847601E+04  0.11675847601E+04  0.00000000000E+00 0.  1.
      99926    2    1    2    0    0  0.00000000000E+00  0.00000000000E+00 -0.11234434927E+04  0.12117260275E+04  0.45404260201E+03 0.  0.
      99925    2    3    3    0    0  0.69428413293E+02  0.26500505921E+02 -0.48260965985E+03  0.55458213854E+03  0.26291953753E+03 0.  0.
         25    1    4    4    0    0  0.25696995304E+02 -0.26052554313E+02 -0.24419963677E+03  0.27680325478E+03  0.12509000000E+03 0.  0.
         25    1    4    4    0    0  0.43731417989E+02  0.52553060235E+02 -0.23841002308E+03  0.27777888376E+03  0.12509000000E+03 0.  0.
         25    1    3    3    0    0 -0.69428413293E+02 -0.26500505921E+02 -0.64083383284E+03  0.65714388896E+03  0.12509000000E+03 0.  0.
<mgrwt>
<rscale>  2 0.45404260E+03</rscale>
<asrwt>0</asrwt>
<pdfrwt beam="1">  1       21 0.64913629E-02 0.45404260E+03</pdfrwt>
<pdfrwt beam="2">  1       21 0.17170364E+00 0.45404260E+03</pdfrwt>
<totfact> 0.32024644E+04</totfact>
</mgrwt>
</event>
<event>
 7    0  0.4748297E-002  0.4502652E+03  0.7546771E-02  0.1027643E+00
         21   -1    0    0  502  501  0.00000000000E+00  0.00000000000E+00  0.39265938233E+03  0.39265938233E+03  0.00000000000E+00 0. -1.
         21   -1    0    0  501  502 -0.00000000000E+00 -0.00000000000E+00 -0.12908056191E+03  0.12908056191E+03  0.00000000000E+00 0. -1.
      99926    2    1    2    0    0  0.00000000000E+00  0.00000000000E+00  0.26357882041E+03  0.52173994424E+03  0.45026522722E+03 0.  0.
      99925    2    3    3    0    0  0.95682403275E+02 -0.50961981973E+02  0.17636827178E+03  0.33464255303E+03  0.26292132874E+03 0.  0.
         25    1    4    4    0    0  0.81943439240E+02 -0.27832979936E+02  0.12456069699E+03  0.19660182436E+03  0.12509000000E+03 0.  0.
         25    1    3    3    0    0 -0.95682403275E+02  0.50961981973E+02  0.87210548635E+02  0.18709739121E+03  0.12509000000E+03 0.  0.
         25    1    4    4    0    0  0.13738964035E+02 -0.23129002036E+02  0.51807574789E+02  0.13804072868E+03  0.12509000000E+03 0.  0.
<mgrwt>
<rscale>  2 0.45026523E+03</rscale>
<asrwt>0</asrwt>
<pdfrwt beam="1">  1       21 0.57744027E-01 0.45026523E+03</pdfrwt>
<pdfrwt beam="2">  1       21 0.18982436E-01 0.45026523E+03</pdfrwt>
<totfact> 0.66219958E+04</totfact>
</mgrwt>
</event>
<event>
 7    0  0.4748297E-002  0.4647867E+03  0.7546771E-02  0.1023402E+00
         21   -1    0    0  502  501  0.00000000000E+00  0.00000000000E+00  0.98373616175E+02  0.98373616175E+02  0.00000000000E+00 0.  1.
         21   -1    0    0  501  502 -0.00000000000E+00 -0.00000000000E+00 -0.54899551423E+03  0.54899551423E+03  0.00000000000E+00 0.  1.
      99926    2    1    2    0    0  0.14210854715E-13  0.00000000000E+00 -0.45062189806E+03  0.64736913041E+03  0.46478672098E+03 0.  0.
      99925    2    3    3    0    0 -0.78458615758E+02  0.91697466682E+02 -0.30694578816E+03  0.42185967953E+03  0.26303173298E+03 0.  0.
         25    1    4    4    0    0 -0.67230336724E+02  0.79502529591E+02 -0.18463439793E+03  0.24612586086E+03  0.12509000000E+03 0.  0.
         25    1    4    4    0    0 -0.11228279035E+02  0.12194937091E+02 -0.12231139024E+03  0.17573381866E+03  0.12509000000E+03 0.  0.
         25    1    3    3    0    0  0.78458615758E+02 -0.91697466682E+02 -0.14367610990E+03  0.22550945088E+03  0.12509000000E+03 0.  0.
<mgrwt>
<rscale>  2 0.46478672E+03</rscale>
<asrwt>0</asrwt>
<pdfrwt beam="1">  1       21 0.14466708E-01 0.46478672E+03</pdfrwt>
<pdfrwt beam="2">  1       21 0.80734635E-01 0.46478672E+03</pdfrwt>
<totfact> 0.51740632E+04</totfact>
</mgrwt>
</event>
<event>
 7    0  0.4748297E-002  0.4582117E+03  0.7546771E-02  0.1025301E+00
         21   -1    0    0  502  501  0.00000000000E+00  0.00000000000E+00  0.27193671619E+04  0.27193671619E+04  0.00000000000E+00 0. -1.
         21   -1    0    0  501  502 -0.00000000000E+00 -0.00000000000E+00 -0.19302094270E+02  0.19302094270E+02  0.00000000000E+00 0. -1.
      99926    2    1    2    0    0 -0.26645352591E-14 -0.35527136788E-14  0.27000650677E+04  0.27386692562E+04  0.45821165989E+03 0.  0.
      99925    2    3    3    0    0 -0.56605377628E+01  0.29429194993E+02  0.23648290625E+04  0.23796026796E+04  0.26304809164E+03 0.  0.
         25    1    4    4    0    0 -0.31996766640E+02  0.32107756957E+02  0.10033919429E+04  0.10121746886E+04  0.12509000000E+03 0.  0.
         25    1    4    4    0    0  0.26336228878E+02 -0.26785619639E+01  0.13614371196E+04  0.13674279909E+04  0.12509000000E+03 0.  0.
         25    1    3    3    0    0  0.56605377628E+01 -0.29429194993E+02  0.33523600517E+03  0.35906657665E+03  0.12509000000E+03 0.  0.
<mgrwt>
<rscale>  2 0.45821166E+03</rscale>
<asrwt>0</asrwt>
<pdfrwt beam="1">  1       21 0.39990667E+00 0.45821166E+03</pdfrwt>
<pdfrwt beam="2">  1       21 0.28385452E-02 0.45821166E+03</pdfrwt>
<totfact> 0.48627030E+03</totfact>
</mgrwt>
</event>
<event>
 7    0  0.4748297E-002  0.4535630E+03  0.7546771E-02  0.1026665E+00
         21   -1    0    0  502  501  0.00000000000E+00  0.00000000000E+00  0.14487424798E+03  0.14487424798E+03  0.00000000000E+00 0.  1.
         21   -1    0    0  501  502 -0.00000000000E+00 -0.00000000000E+00 -0.35499644310E+03  0.35499644310E+03  0.00000000000E+00 0.  1.
      99926    2    1    2    0    0  0.35527136788E-14 -0.71054273576E-14 -0.21012219513E+03  0.49987069108E+03  0.45356297348E+03 0.  0.
      99925    2    3    3    0    0  0.30501580366E+02 -0.60874285354E+02 -0.23019527980E+03  0.35604280139E+03  0.26294597270E+03 0.  0.
         25    1    4    4    0    0 -0.49563652852E+01 -0.52234204518E+02 -0.15347612682E+03  0.20483019134E+03  0.12509000000E+03 0.  0.
         25    1    3    3    0    0 -0.30501580366E+02  0.60874285354E+02  0.20073084676E+02  0.14382788968E+03  0.12509000000E+03 0.  0.
         25    1    4    4    0    0  0.35457945651E+02 -0.86400808353E+01 -0.76719152982E+02  0.15121261006E+03  0.12509000000E+03 0.  0.
<mgrwt>
<rscale>  2 0.45356297E+03</rscale>
<asrwt>0</asrwt>
<pdfrwt beam="1">  1       21 0.21305037E-01 0.45356297E+03</pdfrwt>
<pdfrwt beam="2">  1       21 0.52205358E-01 0.45356297E+03</pdfrwt>
<totfact> 0.66029744E+04</totfact>
</mgrwt>
</event>
<event>
 7    0  0.4748297E-002  0.3926550E+03  0.7546771E-02  0.1046353E+00
         21   -1    0    0  502  501  0.00000000000E+00  0.00000000000E+00  0.93643722766E+02  0.93643722766E+02  0.00000000000E+00 0. -1.
         21   -1    0    0  501  502 -0.00000000000E+00 -0.00000000000E+00 -0.41160787821E+03  0.41160787821E+03  0.00000000000E+00 0. -1.
      99926    2    1    2    0    0  0.00000000000E+00  0.00000000000E+00 -0.31796415544E+03  0.50525160097E+03  0.39265503453E+03 0.  0.
      99925    2    3    3    0    0  0.56797117903E+01 -0.20641011276E+02 -0.18974397195E+03  0.32484585265E+03  0.26279981473E+03 0.  0.
         25    1    3    3    0    0 -0.56797117903E+01  0.20641011276E+02 -0.12822018349E+03  0.18040574832E+03  0.12509000000E+03 0.  0.
         25    1    4    4    0    0  0.26827281505E+02 -0.10459243765E+02 -0.55457552242E+02  0.13982899204E+03  0.12509000000E+03 0.  0.
         25    1    4    4    0    0 -0.21147569715E+02 -0.10181767511E+02 -0.13428641971E+03  0.18501686062E+03  0.12509000000E+03 0.  0.
<mgrwt>
<rscale>  2 0.39265503E+03</rscale>
<asrwt>0</asrwt>
<pdfrwt beam="1">  1       21 0.13771136E-01 0.39265503E+03</pdfrwt>
<pdfrwt beam="2">  1       21 0.60530570E-01 0.39265503E+03</pdfrwt>
<totfact> 0.10998872E+05</totfact>
</mgrwt>
</event>
<event>
 7    0  0.4748297E-002  0.4271962E+03  0.7546771E-02  0.1034749E+00
         21   -1    0    0  502  501  0.00000000000E+00  0.00000000000E+00  0.96827578628E+03  0.96827578628E+03  0.00000000000E+00 0.  1.
         21   -1    0    0  501  502 -0.00000000000E+00 -0.00000000000E+00 -0.47118960410E+02  0.47118960410E+02  0.00000000000E+00 0.  1.
      99926    2    1    2    0    0  0.00000000000E+00 -0.17763568394E-14  0.92115682587E+03  0.10153947467E+04  0.42719620054E+03 0.  0.
      99925    2    3    3    0    0 -0.34748223661E+02  0.11479336896E+02  0.41456510715E+03  0.49230594754E+03  0.26298612833E+03 0.  0.
         25    1    3    3    0    0  0.34748223661E+02 -0.11479336896E+02  0.50659171872E+03  0.52308879915E+03  0.12509000000E+03 0.  0.
         25    1    4    4    0    0 -0.55058869039E+02  0.30011437365E+01  0.24342853171E+03  0.27918711301E+03  0.12509000000E+03 0.  0.
         25    1    4    4    0    0  0.20310645378E+02  0.84781931598E+01  0.17113657544E+03  0.21311883453E+03  0.12509000000E+03 0.  0.
<mgrwt>
<rscale>  2 0.42719620E+03</rscale>
<asrwt>0</asrwt>
<pdfrwt beam="1">  1       21 0.14239349E+00 0.42719620E+03</pdfrwt>
<pdfrwt beam="2">  1       21 0.69292595E-02 0.42719620E+03</pdfrwt>
<totfact> 0.48221999E+04</totfact>
</mgrwt>
</event>
<event>
 7    0  0.4748297E-002  0.4524016E+03  0.7546771E-02  0.1027008E+00
         21   -1    0    0  502  501  0.00000000000E+00  0.00000000000E+00  0.63168790295E+02  0.63168790295E+02  0.00000000000E+00 0.  1.
         21   -1    0    0  501  502 -0.00000000000E+00 -0.00000000000E+00 -0.81000125714E+03  0.81000125714E+03  0.00000000000E+00 0.  1.
      99926    2    1    2    0    0  0.00000000000E+00  0.00000000000E+00 -0.74683246684E+03  0.87317004743E+03  0.45240158952E+03 0.  0.
      99925    2    3    3    0    0  0.92581657802E+01  0.89901218741E+02 -0.34831603626E+03  0.44581680208E+03  0.26317411943E+03 0.  0.
         25    1    4    4    0    0 -0.18436355324E+02  0.10327774663E+02 -0.14488486527E+03  0.19257646381E+03  0.12509000000E+03 0.  0.
         25    1    4    4    0    0  0.27694521104E+02  0.79573444079E+02 -0.20343117098E+03  0.25324033828E+03  0.12509000000E+03 0.  0.
         25    1    3    3    0    0 -0.92581657802E+01 -0.89901218741E+02 -0.39851643058E+03  0.42735324535E+03  0.12509000000E+03 0.  0.
<mgrwt>
<rscale>  2 0.45240159E+03</rscale>
<asrwt>0</asrwt>
<pdfrwt beam="1">  1       21 0.92895279E-02 0.45240159E+03</pdfrwt>
<pdfrwt beam="2">  1       21 0.11911783E+00 0.45240159E+03</pdfrwt>
<totfact> 0.45329649E+04</totfact>
</mgrwt>
</event>
<event>
 7    0  0.4748297E-002  0.4534868E+03  0.7546771E-02  0.1026687E+00
         21   -1    0    0  502  501  0.00000000000E+00  0.00000000000E+00  0.77314038237E+02  0.77314038237E+02  0.00000000000E+00 0. -1.
         21   -1    0    0  501  502 -0.00000000000E+00 -0.00000000000E+00 -0.66498375920E+03  0.66498375920E+03  0.00000000000E+00 0. -1.
      99926    2    1    2    0    0  0.00000000000E+00  0.00000000000E+00 -0.58766972097E+03  0.74229779744E+03  0.45348684561E+03 0.  0.
      99925    2    3    3    0    0  0.34989333267E+02 -0.94952461633E+02 -0.29224130295E+03  0.40589672479E+03  0.26288200514E+03 0.  0.
         25    1    4    4    0    0 -0.14272632613E+02 -0.21286681528E+02 -0.14708539952E+03  0.19477796001E+03  0.12509000000E+03 0.  0.
         25    1    4    4    0    0  0.49261965880E+02 -0.73665780105E+02 -0.14515590343E+03  0.21111876478E+03  0.12509000000E+03 0.  0.
         25    1    3    3    0    0 -0.34989333267E+02  0.94952461633E+02 -0.29542841801E+03  0.33640107265E+03  0.12509000000E+03 0.  0.
<mgrwt>
<rscale>  2 0.45348685E+03</rscale>
<asrwt>0</asrwt>
<pdfrwt beam="1">  1       21 0.11369712E-01 0.45348685E+03</pdfrwt>
<pdfrwt beam="2">  1       21 0.97791728E-01 0.45348685E+03</pdfrwt>
<totfact> 0.51273066E+04</totfact>
</mgrwt>
</event>
<event>
 7    0  0.4748297E-002  0.4507800E+03  0.7546771E-02  0.1027490E+00
         21   -1    0    0  502  501  0.00000000000E+00  0.00000000000E+00  0.40309667478E+03  0.40309667478E+03  0.00000000000E+00 0.  1.
         21   -1    0    0  501  502 -0.00000000000E+00 -0.00000000000E+00 -0.12602597478E+03  0.12602597478E+03  0.00000000000E+00 0.  1.
      99926    2    1    2    0    0  0.00000000000E+00  0.00000000000E+00  0.27707070000E+03  0.52912264956E+03  0.45077999676E+03 0.  0.
      99925    2    3    3    0    0 -0.74858584503E+02  0.60692169267E+02  0.11465096304E+03  0.30259444792E+03  0.26292814513E+03 0.  0.
         25    1    4    4    0    0 -0.10496627465E+02  0.59271106482E+02  0.47640579946E+02  0.14676640014E+03  0.12509000000E+03 0.  0.
         25    1    3    3    0    0  0.74858584503E+02 -0.60692169267E+02  0.16241973695E+03  0.22652820164E+03  0.12509000000E+03 0.  0.
         25    1    4    4    0    0 -0.64361957038E+02  0.14210627850E+01  0.67010383096E+02  0.15582804778E+03  0.12509000000E+03 0.  0.
<mgrwt>
<rscale>  2 0.45078000E+03</rscale>
<asrwt>0</asrwt>
<pdfrwt beam="1">  1       21 0.59278923E-01 0.45078000E+03</pdfrwt>
<pdfrwt beam="2">  1       21 0.18533232E-01 0.45078000E+03</pdfrwt>
<totfact> 0.65425905E+04</totfact>
</mgrwt>
</event>
<event>
 7    0  0.4748297E-002  0.4548910E+03  0.7546771E-02  0.1026273E+00
         21   -1    0    0  502  501  0.00000000000E+00  0.00000000000E+00  0.10208585307E+04  0.10208585307E+04  0.00000000000E+00 0.  1.
         21   -1    0    0  501  502 -0.00000000000E+00 -0.00000000000E+00 -0.50674462480E+02  0.50674462480E+02  0.00000000000E+00 0.  1.
      99926    2    1    2    0    0  0.00000000000E+00  0.00000000000E+00  0.97018406818E+03  0.10715329931E+04  0.45489100809E+03 0.  0.
      99925    2    3    3    0    0 -0.27790500872E+02 -0.68644779751E+02  0.81197289773E+03  0.85667792506E+03  0.26289287344E+03 0.  0.
         25    1    4    4    0    0 -0.18632302427E+02 -0.30446344304E+02  0.27931757778E+03  0.30812328691E+03  0.12509000000E+03 0.  0.
         25    1    3    3    0    0  0.27790500872E+02  0.68644779751E+02  0.15821117045E+03  0.21485506808E+03  0.12509000000E+03 0.  0.
         25    1    4    4    0    0 -0.91581984448E+01 -0.38198435447E+02  0.53265531995E+03  0.54855463815E+03  0.12509000000E+03 0.  0.
<mgrwt>
<rscale>  2 0.45489101E+03</rscale>
<asrwt>0</asrwt>
<pdfrwt beam="1">  1       21 0.15012624E+00 0.45489101E+03</pdfrwt>
<pdfrwt beam="2">  1       21 0.74521275E-02 0.45489101E+03</pdfrwt>
<totfact> 0.36528132E+04</totfact>
</mgrwt>
</event>
<event>
 7    0  0.4748297E-002  0.4337351E+03  0.7546771E-02  0.1032687E+00
         21   -1    0    0  502  501  0.00000000000E+00  0.00000000000E+00  0.32332836251E+03  0.32332836251E+03  0.00000000000E+00 0.  1.
         21   -1    0    0  501  502 -0.00000000000E+00 -0.00000000000E+00 -0.14546060317E+03  0.14546060317E+03  0.00000000000E+00 0.  1.
      99926    2    1    2    0    0  0.00000000000E+00 -0.14210854715E-13  0.17786775934E+03  0.46878896568E+03  0.43373512024E+03 0.  0.
      99925    2    3    3    0    0 -0.16713142390E+02  0.67391456903E+02  0.18011878638E+03  0.32570328221E+03  0.26233359152E+03 0.  0.
         25    1    4    4    0    0  0.14491388763E+01 -0.58825516691E+01  0.85371051883E+02  0.15156658279E+03  0.12509000000E+03 0.  0.
         25    1    3    3    0    0  0.16713142390E+02 -0.67391456903E+02 -0.22510270365E+01  0.14308568347E+03  0.12509000000E+03 0.  0.
         25    1    4    4    0    0 -0.18162281267E+02  0.73274008572E+02  0.94747734497E+02  0.17413669942E+03  0.12509000000E+03 0.  0.
<mgrwt>
<rscale>  2 0.43373512E+03</rscale>
<asrwt>0</asrwt>
<pdfrwt beam="1">  1       21 0.47548289E-01 0.43373512E+03</pdfrwt>
<pdfrwt beam="2">  1       21 0.21391265E-01 0.43373512E+03</pdfrwt>
<totfact> 0.80237216E+04</totfact>
</mgrwt>
</event>
<event>
 7    0  0.4748297E-002  0.4569026E+03  0.7546771E-02  0.1025683E+00
         21   -1    0    0  502  501  0.00000000000E+00  0.00000000000E+00  0.67270162617E+02  0.67270162617E+02  0.00000000000E+00 0. -1.
         21   -1    0    0  501  502 -0.00000000000E+00 -0.00000000000E+00 -0.77582697349E+03  0.77582697349E+03  0.00000000000E+00 0. -1.
      99926    2    1    2    0    0 -0.44408920985E-15  0.00000000000E+00 -0.70855681087E+03  0.84309713610E+03  0.45690264464E+03 0.  0.
      99925    2    3    3    0    0  0.23235494188E+01  0.11397831522E+03 -0.41719582191E+03  0.50614730422E+03  0.26293779592E+03 0.  0.
         25    1    3    3    0    0 -0.23235494188E+01 -0.11397831522E+03 -0.29136098896E+03  0.33694983189E+03  0.12509000000E+03 0.  0.
         25    1    4    4    0    0 -0.24129772807E+02  0.50416192189E+02 -0.14972605028E+03  0.20295180857E+03  0.12509000000E+03 0.  0.
         25    1    4    4    0    0  0.26453322225E+02  0.63562123034E+02 -0.26746977163E+03  0.30319549564E+03  0.12509000000E+03 0.  0.
<mgrwt>
<rscale>  2 0.45690264E+03</rscale>
<asrwt>0</asrwt>
<pdfrwt beam="1">  1       21 0.98926710E-02 0.45690264E+03</pdfrwt>
<pdfrwt beam="2">  1       21 0.11409220E+00 0.45690264E+03</pdfrwt>
<totfact> 0.45073199E+04</totfact>
</mgrwt>
</event>
<event>
 7    0  0.4748297E-002  0.4635917E+03  0.7546771E-02  0.1023745E+00
         21   -1    0    0  502  501  0.00000000000E+00  0.00000000000E+00  0.14955724199E+04  0.14955724199E+04  0.00000000000E+00 0. -1.
         21   -1    0    0  501  502 -0.00000000000E+00 -0.00000000000E+00 -0.35925580470E+02  0.35925580470E+02  0.00000000000E+00 0. -1.
      99926    2    1    2    0    0  0.00000000000E+00  0.00000000000E+00  0.14596468394E+04  0.15314980003E+04  0.46359166221E+03 0.  0.
      99925    2    3    3    0    0 -0.59877126025E+02 -0.92906667568E+02  0.74895847391E+03  0.80146897349E+03  0.26305284778E+03 0.  0.
         25    1    4    4    0    0 -0.58492872202E+01 -0.48619416983E+02  0.27051091375E+03  0.30202934365E+03  0.12509000000E+03 0.  0.
         25    1    3    3    0    0  0.59877126025E+02  0.92906667568E+02  0.71068836548E+03  0.73002902684E+03  0.12509000000E+03 0.  0.
         25    1    4    4    0    0 -0.54027838805E+02 -0.44287250585E+02  0.47844756016E+03  0.49943962983E+03  0.12509000000E+03 0.  0.
<mgrwt>
<rscale>  2 0.46359166E+03</rscale>
<asrwt>0</asrwt>
<pdfrwt beam="1">  1       21 0.21993708E+00 0.46359166E+03</pdfrwt>
<pdfrwt beam="2">  1       21 0.52831746E-02 0.46359166E+03</pdfrwt>
<totfact> 0.21543796E+04</totfact>
</mgrwt>
</event>
<event>
 7    0  0.4748297E-002  0.4544119E+03  0.7546771E-02  0.1026414E+00
         21   -1    0    0  502  501  0.00000000000E+00  0.00000000000E+00  0.49243146138E+03  0.49243146138E+03  0.00000000000E+00 0. -1.
         21   -1    0    0  501  502 -0.00000000000E+00 -0.00000000000E+00 -0.10483195725E+03  0.10483195725E+03  0.00000000000E+00 0. -1.
      99926    2    1    2    0    0 -0.71054273576E-14  0.00000000000E+00  0.38759950413E+03  0.59726341863E+03  0.45441194485E+03 0.  0.
      99925    2    3    3    0    0 -0.63425924896E+02  0.35090110911E+02  0.13069640335E+03  0.30247387484E+03  0.26297287176E+03 0.  0.
         25    1    4    4    0    0 -0.69061208103E+02  0.24865297417E+02  0.51228936639E+02  0.15381692212E+03  0.12509000000E+03 0.  0.
         25    1    3    3    0    0  0.63425924896E+02 -0.35090110911E+02  0.25690310078E+03  0.29478954379E+03  0.12509000000E+03 0.  0.
         25    1    4    4    0    0  0.56352832074E+01  0.10224813493E+02  0.79467466709E+02  0.14865695272E+03  0.12509000000E+03 0.  0.
<mgrwt>
<rscale>  2 0.45441194E+03</rscale>
<asrwt>0</asrwt>
<pdfrwt beam="1">  1       21 0.72416390E-01 0.45441194E+03</pdfrwt>
<pdfrwt beam="2">  1       21 0.15416465E-01 0.45441194E+03</pdfrwt>
<totfact> 0.59121269E+04</totfact>
</mgrwt>
</event>
<event>
 7    0  0.4748297E-002  0.4526081E+03  0.7546771E-02  0.1026947E+00
         21   -1    0    0  502  501  0.00000000000E+00  0.00000000000E+00  0.40172260186E+02  0.40172260186E+02  0.00000000000E+00 0. -1.
         21   -1    0    0  501  502 -0.00000000000E+00 -0.00000000000E+00 -0.12748480196E+04  0.12748480196E+04  0.00000000000E+00 0. -1.
      99926    2    1    2    0    0 -0.35527136788E-14  0.00000000000E+00 -0.12346757594E+04  0.13150202797E+04  0.45260811455E+03 0.  0.
      99925    2    3    3    0    0  0.24163464268E+02 -0.77314989856E+02 -0.99869852131E+03  0.10359248738E+04  0.26302115301E+03 0.  0.
         25    1    4    4    0    0  0.42890371505E+02 -0.63836636408E+02 -0.48722412635E+03  0.50887086527E+03  0.12509000000E+03 0.  0.
         25    1    4    4    0    0 -0.18726907236E+02 -0.13478353447E+02 -0.51147439496E+03  0.52705400849E+03  0.12509000000E+03 0.  0.
         25    1    3    3    0    0 -0.24163464268E+02  0.77314989856E+02 -0.23597723806E+03  0.27909540599E+03  0.12509000000E+03 0.  0.
<mgrwt>
<rscale>  2 0.45260811E+03</rscale>
<asrwt>0</asrwt>
<pdfrwt beam="1">  1       21 0.59076858E-02 0.45260811E+03</pdfrwt>
<pdfrwt beam="2">  1       21 0.18747764E+00 0.45260811E+03</pdfrwt>
<totfact> 0.29221324E+04</totfact>
</mgrwt>
</event>
<event>
 7    0  0.4748297E-002  0.4399394E+03  0.7546771E-02  0.1030765E+00
         21   -1    0    0  502  501  0.00000000000E+00  0.00000000000E+00  0.10471730547E+03  0.10471730547E+03  0.00000000000E+00 0.  1.
         21   -1    0    0  501  502 -0.00000000000E+00 -0.00000000000E+00 -0.46206938606E+03  0.46206938606E+03  0.00000000000E+00 0.  1.
      99926    2    1    2    0    0  0.71054273576E-14  0.00000000000E+00 -0.35735208059E+03  0.56678669153E+03  0.43993936422E+03 0.  0.
      99925    2    3    3    0    0 -0.62539065921E+02  0.71452579684E+02 -0.26118338104E+03  0.38263313391E+03  0.26301093271E+03 0.  0.
         25    1    4    4    0    0 -0.44181166326E+02  0.55879447529E+02 -0.18425823154E+03  0.23382277927E+03  0.12509000000E+03 0.  0.
         25    1    3    3    0    0  0.62539065921E+02 -0.71452579684E+02 -0.96168699551E+02  0.18415355762E+03  0.12509000000E+03 0.  0.
         25    1    4    4    0    0 -0.18357899595E+02  0.15573132155E+02 -0.76925149498E+02  0.14881035464E+03  0.12509000000E+03 0.  0.
<mgrwt>
<rscale>  2 0.43993936E+03</rscale>
<asrwt>0</asrwt>
<pdfrwt beam="1">  1       21 0.15399604E-01 0.43993936E+03</pdfrwt>
<pdfrwt beam="2">  1       21 0.67951379E-01 0.43993936E+03</pdfrwt>
<totfact> 0.68581139E+04</totfact>
</mgrwt>
</event>
<event>
 7    0  0.4748297E-002  0.4545916E+03  0.7546771E-02  0.1026362E+00
         21   -1    0    0  502  501  0.00000000000E+00  0.00000000000E+00  0.21784438180E+03  0.21784438180E+03  0.00000000000E+00 0. -1.
         21   -1    0    0  501  502 -0.00000000000E+00 -0.00000000000E+00 -0.23715725921E+03  0.23715725921E+03  0.00000000000E+00 0. -1.
      99926    2    1    2    0    0  0.00000000000E+00 -0.14210854715E-13 -0.19312877405E+02  0.45500164101E+03  0.45459158163E+03 0.  0.
      99925    2    3    3    0    0 -0.65372742615E+02  0.68680668528E+02 -0.73296961539E+02  0.28901242706E+03  0.26299260202E+03 0.  0.
         25    1    4    4    0    0  0.72253805642E+01  0.42165102798E+02 -0.27808395266E+02  0.13509595466E+03  0.12509000000E+03 0.  0.
         25    1    4    4    0    0 -0.72598123179E+02  0.26515565729E+02 -0.45488566273E+02  0.15391647240E+03  0.12509000000E+03 0.  0.
         25    1    3    3    0    0  0.65372742615E+02 -0.68680668528E+02  0.53984084134E+02  0.16598921395E+03  0.12509000000E+03 0.  0.
<mgrwt>
<rscale>  2 0.45459158E+03</rscale>
<asrwt>0</asrwt>
<pdfrwt beam="1">  1       21 0.32035939E-01 0.45459158E+03</pdfrwt>
<pdfrwt beam="2">  1       21 0.34876067E-01 0.45459158E+03</pdfrwt>
<totfact> 0.68769521E+04</totfact>
</mgrwt>
</event>
<event>
 7    0  0.4748297E-002  0.4578829E+03  0.7546771E-02  0.1025397E+00
         21   -1    0    0  502  501  0.00000000000E+00  0.00000000000E+00  0.60640861871E+02  0.60640861871E+02  0.00000000000E+00 0.  1.
         21   -1    0    0  501  502 -0.00000000000E+00 -0.00000000000E+00 -0.86433765315E+03  0.86433765315E+03  0.00000000000E+00 0.  1.
      99926    2    1    2    0    0  0.00000000000E+00  0.00000000000E+00 -0.80369679128E+03  0.92497851502E+03  0.45788286814E+03 0.  0.
      99925    2    3    3    0    0 -0.61905524867E+02 -0.70452091515E+02 -0.64121225068E+03  0.69949120886E+03  0.26332301388E+03 0.  0.
         25    1    3    3    0    0  0.61905524867E+02  0.70452091515E+02 -0.16248454060E+03  0.22548730617E+03  0.12509000000E+03 0.  0.
         25    1    4    4    0    0 -0.48273744831E+02 -0.32663177870E+02 -0.42124888782E+03  0.44327798414E+03  0.12509000000E+03 0.  0.
         25    1    4    4    0    0 -0.13631780036E+02 -0.37788913645E+02 -0.21996336286E+03  0.25621322472E+03  0.12509000000E+03 0.  0.
<mgrwt>
<rscale>  2 0.45788287E+03</rscale>
<asrwt>0</asrwt>
<pdfrwt beam="1">  1       21 0.89177750E-02 0.45788287E+03</pdfrwt>
<pdfrwt beam="2">  1       21 0.12710846E+00 0.45788287E+03</pdfrwt>
<totfact> 0.41233255E+04</totfact>
</mgrwt>
</event>
<event>
 7    0  0.4748297E-002  0.4531367E+03  0.7546771E-02  0.1026791E+00
         21   -1    0    0  502  501  0.00000000000E+00  0.00000000000E+00  0.34095843824E+03  0.34095843824E+03  0.00000000000E+00 0. -1.
         21   -1    0    0  501  502 -0.00000000000E+00 -0.00000000000E+00 -0.15055563931E+03  0.15055563931E+03  0.00000000000E+00 0. -1.
      99926    2    1    2    0    0  0.71054273576E-14  0.00000000000E+00  0.19040279893E+03  0.49151407756E+03  0.45313669306E+03 0.  0.
      99925    2    3    3    0    0  0.60420377511E+02 -0.77456336307E+02  0.17553047002E+03  0.33176802809E+03  0.26383512372E+03 0.  0.
         25    1    3    3    0    0 -0.60420377511E+02  0.77456336307E+02  0.14872328918E+02  0.15974604947E+03  0.12509000000E+03 0.  0.
         25    1    4    4    0    0  0.63419408502E+02 -0.28075522015E+02  0.11816930942E+03  0.18553099498E+03  0.12509000000E+03 0.  0.
         25    1    4    4    0    0 -0.29990309909E+01 -0.49380814291E+02  0.57361160598E+02  0.14623703311E+03  0.12509000000E+03 0.  0.
<mgrwt>
<rscale>  2 0.45313669E+03</rscale>
<asrwt>0</asrwt>
<pdfrwt beam="1">  1       21 0.50140947E-01 0.45313669E+03</pdfrwt>
<pdfrwt beam="2">  1       21 0.22140535E-01 0.45313669E+03</pdfrwt>
<totfact> 0.66854489E+04</totfact>
</mgrwt>
</event>
<event>
 7    0  0.4748297E-002  0.4539905E+03  0.7546771E-02  0.1026539E+00
         21   -1    0    0  502  501  0.00000000000E+00  0.00000000000E+00  0.13804501589E+04  0.13804501589E+04  0.00000000000E+00 0. -1.
         21   -1    0    0  501  502 -0.00000000000E+00 -0.00000000000E+00 -0.37326108507E+02  0.37326108507E+02  0.00000000000E+00 0. -1.
      99926    2    1    2    0    0  0.00000000000E+00  0.00000000000E+00  0.13431240504E+04  0.14177762674E+04  0.45399045109E+03 0.  0.
      99925    2    3    3    0    0 -0.10302731732E+03  0.48999138731E+01  0.98443346006E+03  0.10241456220E+04  0.26291896206E+03 0.  0.
         25    1    4    4    0    0 -0.47161986492E+02  0.29549510847E+02  0.59601658189E+03  0.61153961486E+03  0.12509000000E+03 0.  0.
         25    1    4    4    0    0 -0.55865330825E+02 -0.24649596974E+02  0.38841687817E+03  0.41260600719E+03  0.12509000000E+03 0.  0.
         25    1    3    3    0    0  0.10302731732E+03 -0.48999138731E+01  0.35869059032E+03  0.39363064535E+03  0.12509000000E+03 0.  0.
<mgrwt>
<rscale>  2 0.45399045E+03</rscale>
<asrwt>0</asrwt>
<pdfrwt beam="1">  1       21 0.20300734E+00 0.45399045E+03</pdfrwt>
<pdfrwt beam="2">  1       21 0.54891345E-02 0.45399045E+03</pdfrwt>
<totfact> 0.26066024E+04</totfact>
</mgrwt>
</event>
<event>
 7    0  0.4748297E-002  0.4347425E+03  0.7546771E-02  0.1032372E+00
         21   -1    0    0  502  501  0.00000000000E+00  0.00000000000E+00  0.28699432951E+03  0.28699432951E+03  0.00000000000E+00 0. -1.
         21   -1    0    0  501  502 -0.00000000000E+00 -0.00000000000E+00 -0.16463826880E+03  0.16463826880E+03  0.00000000000E+00 0. -1.
      99926    2    1    2    0    0  0.00000000000E+00  0.00000000000E+00  0.12235606072E+03  0.45163259831E+03  0.43474245050E+03 0.  0.
      99925    2    3    3    0    0 -0.29065635335E+02 -0.70660067261E+02  0.21212834145E+02  0.27354521346E+03  0.26180019712E+03 0.  0.
         25    1    3    3    0    0  0.29065635335E+02  0.70660067261E+02  0.10114322657E+03  0.17808738485E+03  0.12509000000E+03 0.  0.
         25    1    4    4    0    0 -0.88915008547E+01  0.32991190217E+01  0.18517162559E+02  0.12680826622E+03  0.12509000000E+03 0.  0.
         25    1    4    4    0    0 -0.20174134480E+02 -0.73959186283E+02  0.26956715864E+01  0.14673694723E+03  0.12509000000E+03 0.  0.
<mgrwt>
<rscale>  2 0.43474245E+03</rscale>
<asrwt>0</asrwt>
<pdfrwt beam="1">  1       21 0.42205049E-01 0.43474245E+03</pdfrwt>
<pdfrwt beam="2">  1       21 0.24211510E-01 0.43474245E+03</pdfrwt>
<totfact> 0.81095264E+04</totfact>
</mgrwt>
</event>
<event>
 7    0  0.4748297E-002  0.4417542E+03  0.7546771E-02  0.1030210E+00
         21   -1    0    0  502  501  0.00000000000E+00  0.00000000000E+00  0.60724609827E+03  0.60724609827E+03  0.00000000000E+00 0.  1.
         21   -1    0    0  501  502 -0.00000000000E+00 -0.00000000000E+00 -0.80340907523E+02  0.80340907523E+02  0.00000000000E+00 0.  1.
      99926    2    1    2    0    0  0.00000000000E+00  0.14210854715E-13  0.52690519075E+03  0.68758700579E+03  0.44175424220E+03 0.  0.
      99925    2    3    3    0    0  0.39094335807E+02 -0.81734491185E+02  0.26945179466E+03  0.38735600573E+03  0.26311881610E+03 0.  0.
         25    1    4    4    0    0  0.24308552181E+02 -0.53913866872E+01  0.15559726283E+03  0.20119142392E+03  0.12509000000E+03 0.  0.
         25    1    3    3    0    0 -0.39094335807E+02  0.81734491185E+02  0.25745339609E+03  0.30023100006E+03  0.12509000000E+03 0.  0.
         25    1    4    4    0    0  0.14785783626E+02 -0.76343104498E+02  0.11385453183E+03  0.18616458181E+03  0.12509000000E+03 0.  0.
<mgrwt>
<rscale>  2 0.44175424E+03</rscale>
<asrwt>0</asrwt>
<pdfrwt beam="1">  1       21 0.89300894E-01 0.44175424E+03</pdfrwt>
<pdfrwt beam="2">  1       21 0.11814840E-01 0.44175424E+03</pdfrwt>
<totfact> 0.59553395E+04</totfact>
</mgrwt>
</event>
<event>
 7    0  0.4748297E-002  0.4536262E+03  0.7546771E-02  0.1026646E+00
         21   -1    0    0  502  501  0.00000000000E+00  0.00000000000E+00  0.13769849789E+02  0.13769849789E+02  0.00000000000E+00 0. -1.
         21   -1    0    0  501  502 -0.00000000000E+00 -0.00000000000E+00 -0.37360011673E+04  0.37360011673E+04  0.00000000000E+00 0. -1.
      99926    2    1    2    0    0  0.14210854715E-13  0.00000000000E+00 -0.37222313175E+04  0.37497710170E+04  0.45362616716E+03 0.  0.
      99925    2    3    3    0    0 -0.10630441144E+03 -0.11277055984E+02 -0.20752476680E+04  0.20945881119E+04  0.26309442212E+03 0.  0.
         25    1    4    4    0    0 -0.17099732564E+02  0.22759988114E+01 -0.77419577275E+03  0.78442602179E+03  0.12509000000E+03 0.  0.
         25    1    3    3    0    0  0.10630441144E+03  0.11277055984E+02 -0.16469836495E+04  0.16551829052E+04  0.12509000000E+03 0.  0.
         25    1    4    4    0    0 -0.89204678873E+02 -0.13553054795E+02 -0.13010518953E+04  0.13101620901E+04  0.12509000000E+03 0.  0.
<mgrwt>
<rscale>  2 0.45362617E+03</rscale>
<asrwt>0</asrwt>
<pdfrwt beam="1">  1       21 0.20249786E-02 0.45362617E+03</pdfrwt>
<pdfrwt beam="2">  1       21 0.54941174E+00 0.45362617E+03</pdfrwt>
<totfact> 0.78216046E+02</totfact>
</mgrwt>
</event>
<event>
 7    0  0.4748297E-002  0.4519464E+03  0.7546771E-02  0.1027143E+00
         21   -1    0    0  502  501  0.00000000000E+00  0.00000000000E+00  0.39387027453E+03  0.39387027453E+03  0.00000000000E+00 0.  1.
         21   -1    0    0  501  502 -0.00000000000E+00 -0.00000000000E+00 -0.12964647682E+03  0.12964647682E+03  0.00000000000E+00 0.  1.
      99926    2    1    2    0    0  0.00000000000E+00  0.00000000000E+00  0.26422379772E+03  0.52351675135E+03  0.45194642787E+03 0.  0.
      99925    2    3    3    0    0  0.68834957205E+02 -0.85239674006E+02  0.18152712643E+03  0.33780110608E+03  0.26297040951E+03 0.  0.
         25    1    4    4    0    0  0.44557338749E+02 -0.77519866966E+02  0.12512571171E+03  0.19823884090E+03  0.12509000000E+03 0.  0.
         25    1    3    3    0    0 -0.68834957205E+02  0.85239674006E+02  0.82696671289E+02  0.18571564528E+03  0.12509000000E+03 0.  0.
         25    1    4    4    0    0  0.24277618455E+02 -0.77198070404E+01  0.56401414715E+02  0.13956226517E+03  0.12509000000E+03 0.  0.
<mgrwt>
<rscale>  2 0.45194643E+03</rscale>
<asrwt>0</asrwt>
<pdfrwt beam="1">  1       21 0.57922099E-01 0.45194643E+03</pdfrwt>
<pdfrwt beam="2">  1       21 0.19065658E-01 0.45194643E+03</pdfrwt>
<totfact> 0.65211820E+04</totfact>
</mgrwt>
</event>
<event>
 7    0  0.4748297E-002  0.4546960E+03  0.7546771E-02  0.1026331E+00
         21   -1    0    0  502  501  0.00000000000E+00  0.00000000000E+00  0.12408503824E+03  0.12408503824E+03  0.00000000000E+00 0.  1.
         21   -1    0    0  501  502 -0.00000000000E+00 -0.00000000000E+00 -0.41654584136E+03  0.41654584136E+03  0.00000000000E+00 0.  1.
      99926    2    1    2    0    0  0.00000000000E+00  0.00000000000E+00 -0.29246080312E+03  0.54063087960E+03  0.45469597163E+03 0.  0.
      99925    2    3    3    0    0  0.22696210024E+02  0.69292905797E+02 -0.81677670777E+02  0.28490903516E+03  0.26303097093E+03 0.  0.
         25    1    4    4    0    0 -0.23250125300E+02  0.18331608161E+02 -0.22741819388E+02  0.13054238635E+03  0.12509000000E+03 0.  0.
         25    1    3    3    0    0 -0.22696210024E+02 -0.69292905797E+02 -0.21078313235E+03  0.25572184444E+03  0.12509000000E+03 0.  0.
         25    1    4    4    0    0  0.45946335324E+02  0.50961297635E+02 -0.58935851389E+02  0.15436664881E+03  0.12509000000E+03 0.  0.
<mgrwt>
<rscale>  2 0.45469597E+03</rscale>
<asrwt>0</asrwt>
<pdfrwt beam="1">  1       21 0.18247800E-01 0.45469597E+03</pdfrwt>
<pdfrwt beam="2">  1       21 0.61256742E-01 0.45469597E+03</pdfrwt>
<totfact> 0.62640488E+04</totfact>
</mgrwt>
</event>
<event>
 7    0  0.4748297E-002  0.4497434E+03  0.7546771E-02  0.1027799E+00
         21   -1    0    0  502  501  0.00000000000E+00  0.00000000000E+00  0.62975481354E+03  0.62975481354E+03  0.00000000000E+00 0. -1.
         21   -1    0    0  501  502 -0.00000000000E+00 -0.00000000000E+00 -0.80296773376E+02  0.80296773376E+02  0.00000000000E+00 0. -1.
      99926    2    1    2    0    0  0.00000000000E+00  0.00000000000E+00  0.54945804016E+03  0.71005158691E+03  0.44974339148E+03 0.  0.
      99925    2    3    3    0    0  0.56184040452E+02  0.39851588083E+02  0.47902418491E+03  0.55082460572E+03  0.26305661190E+03 0.  0.
         25    1    3    3    0    0 -0.56184040452E+02 -0.39851588083E+02  0.70433855254E+02  0.15922698119E+03  0.12509000000E+03 0.  0.
         25    1    4    4    0    0 -0.22233374665E+01  0.13714299890E+02  0.28220271936E+03  0.30899661514E+03  0.12509000000E+03 0.  0.
         25    1    4    4    0    0  0.58407377919E+02  0.26137288194E+02  0.19682146555E+03  0.24182799058E+03  0.12509000000E+03 0.  0.
<mgrwt>
<rscale>  2 0.44974339E+03</rscale>
<asrwt>0</asrwt>
<pdfrwt beam="1">  1       21 0.92610999E-01 0.44974339E+03</pdfrwt>
<pdfrwt beam="2">  1       21 0.11808349E-01 0.44974339E+03</pdfrwt>
<totfact> 0.54583229E+04</totfact>
</mgrwt>
</event>
<event>
 7    0  0.4748297E-002  0.4547717E+03  0.7546771E-02  0.1026309E+00
         21   -1    0    0  502  501  0.00000000000E+00  0.00000000000E+00  0.14757831479E+04  0.14757831479E+04  0.00000000000E+00 0. -1.
         21   -1    0    0  501  502 -0.00000000000E+00 -0.00000000000E+00 -0.35035181774E+02  0.35035181774E+02  0.00000000000E+00 0. -1.
      99926    2    1    2    0    0 -0.17763568394E-14  0.00000000000E+00  0.14407479661E+04  0.15108183297E+04  0.45477172668E+03 0.  0.
      99925    2    3    3    0    0 -0.10755864202E+02  0.69162579786E+02  0.61240819751E+03  0.67016772959E+03  0.26302439876E+03 0.  0.
         25    1    4    4    0    0 -0.38329435490E+02  0.37400770679E+02  0.25256869678E+03  0.28689095135E+03  0.12509000000E+03 0.  0.
         25    1    4    4    0    0  0.27573571288E+02  0.31761809107E+02  0.35983950073E+03  0.38327677824E+03  0.12509000000E+03 0.  0.
         25    1    3    3    0    0  0.10755864202E+02 -0.69162579786E+02  0.82833976861E+03  0.84065060008E+03  0.12509000000E+03 0.  0.
<mgrwt>
<rscale>  2 0.45477173E+03</rscale>
<asrwt>0</asrwt>
<pdfrwt beam="1">  1       21 0.21702689E+00 0.45477173E+03</pdfrwt>
<pdfrwt beam="2">  1       21 0.51522336E-02 0.45477173E+03</pdfrwt>
<totfact> 0.23556963E+04</totfact>
</mgrwt>
</event>
<event>
 7    0  0.4748297E-002  0.4543594E+03  0.7546771E-02  0.1026430E+00
         21   -1    0    0  502  501  0.00000000000E+00  0.00000000000E+00  0.21512420061E+03  0.21512420061E+03  0.00000000000E+00 0.  1.
         21   -1    0    0  501  502 -0.00000000000E+00 -0.00000000000E+00 -0.23991079258E+03  0.23991079258E+03  0.00000000000E+00 0.  1.
      99926    2    1    2    0    0  0.35527136788E-14  0.00000000000E+00 -0.24786591973E+02  0.45503499319E+03  0.45435940608E+03 0.  0.
      99925    2    3    3    0    0  0.21863542190E+02 -0.17469804976E+02 -0.12476978192E+03  0.29247006790E+03  0.26303618302E+03 0.  0.
         25    1    4    4    0    0 -0.73183004734E+01 -0.44620453277E+02 -0.56795710887E+02  0.14462988366E+03  0.12509000000E+03 0.  0.
         25    1    3    3    0    0 -0.21863542190E+02  0.17469804976E+02  0.99983189945E+02  0.16256492529E+03  0.12509000000E+03 0.  0.
         25    1    4    4    0    0  0.29181842664E+02  0.27150648301E+02 -0.67974071031E+02  0.14784018424E+03  0.12509000000E+03 0.  0.
<mgrwt>
<rscale>  2 0.45435941E+03</rscale>
<asrwt>0</asrwt>
<pdfrwt beam="1">  1       21 0.31635912E-01 0.45435941E+03</pdfrwt>
<pdfrwt beam="2">  1       21 0.35280999E-01 0.45435941E+03</pdfrwt>
<totfact> 0.68894721E+04</totfact>
</mgrwt>
</event>
<event>
 7    0  0.4748297E-002  0.4298218E+03  0.7546771E-02  0.1033916E+00
         21   -1    0    0  502  501  0.00000000000E+00  0.00000000000E+00  0.75408269981E+03  0.75408269981E+03  0.00000000000E+00 0. -1.
         21   -1    0    0  501  502 -0.00000000000E+00 -0.00000000000E+00 -0.61248850488E+02  0.61248850488E+02  0.00000000000E+00 0. -1.
      99926    2    1    2    0    0  0.00000000000E+00  0.14210854715E-13  0.69283384932E+03  0.81533155030E+03  0.42982181674E+03 0.  0.
      99925    2    3    3    0    0 -0.51488473895E+02 -0.69422169408E+02  0.42063633619E+03  0.50354717801E+03  0.26297211374E+03 0.  0.
         25    1    4    4    0    0 -0.14190931510E+02  0.59816113364E+00  0.15804498521E+03  0.20205807528E+03  0.12509000000E+03 0.  0.
         25    1    3    3    0    0  0.51488473895E+02  0.69422169408E+02  0.27219751313E+03  0.31178437229E+03  0.12509000000E+03 0.  0.
         25    1    4    4    0    0 -0.37297542385E+02 -0.70020330542E+02  0.26259135098E+03  0.30148910273E+03  0.12509000000E+03 0.  0.
<mgrwt>
<rscale>  2 0.42982182E+03</rscale>
<asrwt>0</asrwt>
<pdfrwt beam="1">  1       21 0.11089451E+00 0.42982182E+03</pdfrwt>
<pdfrwt beam="2">  1       21 0.90071843E-02 0.42982182E+03</pdfrwt>
<totfact> 0.57596008E+04</totfact>
</mgrwt>
</event>
<event>
 7    0  0.4748297E-002  0.4552041E+03  0.7546771E-02  0.1026181E+00
         21   -1    0    0  502  501  0.00000000000E+00  0.00000000000E+00  0.25127677001E+03  0.25127677001E+03  0.00000000000E+00 0. -1.
         21   -1    0    0  501  502 -0.00000000000E+00 -0.00000000000E+00 -0.20615790221E+03  0.20615790221E+03  0.00000000000E+00 0. -1.
      99926    2    1    2    0    0  0.00000000000E+00  0.35527136788E-14  0.45118867805E+02  0.45743467222E+03  0.45520409391E+03 0.  0.
      99925    2    3    3    0    0 -0.65229790726E+02 -0.13983320163E+02  0.12062158149E+03  0.29681516308E+03  0.26286729784E+03 0.  0.
         25    1    4    4    0    0 -0.43319856765E+02 -0.45419387755E+02  0.70583305128E+02  0.15674514933E+03  0.12509000000E+03 0.  0.
         25    1    3    3    0    0  0.65229790726E+02  0.13983320163E+02 -0.75502713689E+02  0.16061950914E+03  0.12509000000E+03 0.  0.
         25    1    4    4    0    0 -0.21909933961E+02  0.31436067592E+02  0.50038276366E+02  0.14007001376E+03  0.12509000000E+03 0.  0.
<mgrwt>
<rscale>  2 0.45520409E+03</rscale>
<asrwt>0</asrwt>
<pdfrwt beam="1">  1       21 0.36952466E-01 0.45520409E+03</pdfrwt>
<pdfrwt beam="2">  1       21 0.30317338E-01 0.45520409E+03</pdfrwt>
<totfact> 0.68256576E+04</totfact>
</mgrwt>
</event>
<event>
 7    0  0.4748297E-002  0.4555456E+03  0.7546771E-02  0.1026081E+00
         21   -1    0    0  502  501  0.00000000000E+00  0.00000000000E+00  0.73617737014E+02  0.73617737014E+02  0.00000000000E+00 0.  1.
         21   -1    0    0  501  502 -0.00000000000E+00 -0.00000000000E+00 -0.70472747552E+03  0.70472747552E+03  0.00000000000E+00 0.  1.
      99926    2    1    2    0    0  0.00000000000E+00  0.00000000000E+00 -0.63110973851E+03  0.77834521253E+03  0.45554557163E+03 0.  0.
      99925    2    3    3    0    0  0.10597166016E+03 -0.38936652595E+02 -0.37739966937E+03  0.47377606939E+03  0.26322461476E+03 0.  0.
         25    1    4    4    0    0  0.69380194201E+02 -0.10330480542E+02 -0.13438417913E+03  0.19653739053E+03  0.12509000000E+03 0.  0.
         25    1    4    4    0    0  0.36591465962E+02 -0.28606172053E+02 -0.24301549024E+03  0.27723867886E+03  0.12509000000E+03 0.  0.
         25    1    3    3    0    0 -0.10597166016E+03  0.38936652595E+02 -0.25371006914E+03  0.30456914314E+03  0.12509000000E+03 0.  0.
<mgrwt>
<rscale>  2 0.45554557E+03</rscale>
<asrwt>0</asrwt>
<pdfrwt beam="1">  1       21 0.10826137E-01 0.45554557E+03</pdfrwt>
<pdfrwt beam="2">  1       21 0.10363640E+00 0.45554557E+03</pdfrwt>
<totfact> 0.48621544E+04</totfact>
</mgrwt>
</event>
<event>
 7    0  0.4748297E-002  0.4775165E+03  0.7546771E-02  0.1019820E+00
         21   -1    0    0  502  501  0.00000000000E+00  0.00000000000E+00  0.22736144944E+04  0.22736144944E+04  0.00000000000E+00 0.  1.
         21   -1    0    0  501  502 -0.00000000000E+00 -0.00000000000E+00 -0.25072631256E+02  0.25072631256E+02  0.00000000000E+00 0.  1.
      99926    2    1    2    0    0  0.14210854715E-13  0.14210854715E-13  0.22485418632E+04  0.22986871257E+04  0.47751648280E+03 0.  0.
      99925    2    3    3    0    0  0.76887461201E+02  0.81269757756E+02  0.17354075746E+04  0.17588068043E+04  0.26314533937E+03 0.  0.
         25    1    4    4    0    0  0.39771285572E+02  0.50738227131E+02  0.11310532259E+04  0.11397741139E+04  0.12509000000E+03 0.  0.
         25    1    3    3    0    0 -0.76887461201E+02 -0.81269757756E+02  0.51313428854E+03  0.53988032136E+03  0.12509000000E+03 0.  0.
         25    1    4    4    0    0  0.37116175629E+02  0.30531530625E+02  0.60435434874E+03  0.61903269041E+03  0.12509000000E+03 0.  0.
<mgrwt>
<rscale>  2 0.47751648E+03</rscale>
<asrwt>0</asrwt>
<pdfrwt beam="1">  1       21 0.33435493E+00 0.47751648E+03</pdfrwt>
<pdfrwt beam="2">  1       21 0.36871532E-02 0.47751648E+03</pdfrwt>
<totfact> 0.79357768E+03</totfact>
</mgrwt>
</event>
<event>
 6    0  0.4748297E-002  0.4443195E+03  0.7546771E-02  0.1029430E+00
         21   -1    0    0  502  501  0.00000000000E+00  0.00000000000E+00  0.99430599538E+02  0.99430599538E+02  0.00000000000E+00 0.  1.
         21   -1    0    0  501  502 -0.00000000000E+00 -0.00000000000E+00 -0.49637580988E+03  0.49637580988E+03  0.00000000000E+00 0.  1.
      99926    2    1    2    0    0 -0.14210854715E-13  0.00000000000E+00 -0.39694521035E+03  0.59580640942E+03  0.44431945432E+03 0.  0.
         25    1    3    3    0    0  0.79384328632E+02 -0.42629505567E+02 -0.99077161326E+02  0.18325648249E+03  0.12509000000E+03 0.  0.
         25    1    3    3    0    0  0.49837074456E+01  0.48226010726E+02 -0.13088074270E+03  0.18742428434E+03  0.12509000000E+03 0.  0.
         25    1    3    3    0    0 -0.84368036078E+02 -0.55965051587E+01 -0.16698730632E+03  0.22512564260E+03  0.12509000000E+03 0.  0.
<mgrwt>
<rscale>  2 0.44431945E+03</rscale>
<asrwt>0</asrwt>
<pdfrwt beam="1">  1       21 0.14622147E-01 0.44431945E+03</pdfrwt>
<pdfrwt beam="2">  1       21 0.72996444E-01 0.44431945E+03</pdfrwt>
<totfact> 0.64184982E+04</totfact>
</mgrwt>
</event>
<event>
 7    0  0.4748297E-002  0.4561017E+03  0.7546771E-02  0.1025918E+00
         21   -1    0    0  502  501  0.00000000000E+00  0.00000000000E+00  0.70112203484E+03  0.70112203484E+03  0.00000000000E+00 0.  1.
         21   -1    0    0  501  502 -0.00000000000E+00 -0.00000000000E+00 -0.74177099682E+02  0.74177099682E+02  0.00000000000E+00 0.  1.
      99926    2    1    2    0    0  0.00000000000E+00  0.00000000000E+00  0.62694493516E+03  0.77529913452E+03  0.45610173895E+03 0.  0.
      99925    2    3    3    0    0 -0.37243958329E+02  0.87260928818E+02  0.28661311429E+03  0.40049940330E+03  0.26315606136E+03 0.  0.
         25    1    4    4    0    0  0.12192638510E+02  0.18264794191E+02  0.10992146217E+03  0.16796576760E+03  0.12509000000E+03 0.  0.
         25    1    3    3    0    0  0.37243958329E+02 -0.87260928818E+02  0.34033182086E+03  0.37479973122E+03  0.12509000000E+03 0.  0.
         25    1    4    4    0    0 -0.49436596839E+02  0.68996134627E+02  0.17669165213E+03  0.23253363570E+03  0.12509000000E+03 0.  0.
<mgrwt>
<rscale>  2 0.45610174E+03</rscale>
<asrwt>0</asrwt>
<pdfrwt beam="1">  1       21 0.10310618E+00 0.45610174E+03</pdfrwt>
<pdfrwt beam="2">  1       21 0.10908397E-01 0.45610174E+03</pdfrwt>
<totfact> 0.48561453E+04</totfact>
</mgrwt>
</event>
<event>
 7    0  0.4748297E-002  0.4548817E+03  0.7546771E-02  0.1026276E+00
         21   -1    0    0  502  501  0.00000000000E+00  0.00000000000E+00  0.14999795249E+03  0.14999795249E+03  0.00000000000E+00 0.  1.
         21   -1    0    0  501  502 -0.00000000000E+00 -0.00000000000E+00 -0.34486704283E+03  0.34486704283E+03  0.00000000000E+00 0.  1.
      99926    2    1    2    0    0  0.00000000000E+00  0.00000000000E+00 -0.19486909034E+03  0.49486499532E+03  0.45488174422E+03 0.  0.
      99925    2    3    3    0    0 -0.51018120668E+02  0.79429722393E+02 -0.55137928219E+02  0.28490253390E+03  0.26309187228E+03 0.  0.
         25    1    4    4    0    0 -0.61194728730E+02  0.43926191926E+02 -0.50104418304E+02  0.15437702548E+03  0.12509000000E+03 0.  0.
         25    1    3    3    0    0  0.51018120668E+02 -0.79429722393E+02 -0.13973116213E+03  0.20996246142E+03  0.12509000000E+03 0.  0.
         25    1    4    4    0    0  0.10176608061E+02  0.35503530468E+02 -0.50335099148E+01  0.13052550842E+03  0.12509000000E+03 0.  0.
<mgrwt>
<rscale>  2 0.45488174E+03</rscale>
<asrwt>0</asrwt>
<pdfrwt beam="1">  1       21 0.22058523E-01 0.45488174E+03</pdfrwt>
<pdfrwt beam="2">  1       21 0.50715741E-01 0.45488174E+03</pdfrwt>
<totfact> 0.65694583E+04</totfact>
</mgrwt>
</event>
<event>
 7    0  0.4748297E-002  0.4577870E+03  0.7546771E-02  0.1025425E+00
         21   -1    0    0  502  501  0.00000000000E+00  0.00000000000E+00  0.25041741102E+03  0.25041741102E+03  0.00000000000E+00 0.  1.
         21   -1    0    0  501  502 -0.00000000000E+00 -0.00000000000E+00 -0.20921961851E+03  0.20921961851E+03  0.00000000000E+00 0.  1.
      99926    2    1    2    0    0 -0.71054273576E-14 -0.28421709430E-13  0.41197792508E+02  0.45963702952E+03  0.45778700375E+03 0.  0.
      99925    2    3    3    0    0  0.41918629965E+02  0.10142894736E+03 -0.10902573912E+02  0.28526111610E+03  0.26307800239E+03 0.  0.
         25    1    4    4    0    0 -0.31235595690E+01  0.22927073599E+02  0.17060538069E+02  0.12835099293E+03  0.12509000000E+03 0.  0.
         25    1    3    3    0    0 -0.41918629965E+02 -0.10142894736E+03  0.52100366420E+02  0.17437591342E+03  0.12509000000E+03 0.  0.
         25    1    4    4    0    0  0.45042189534E+02  0.78501873757E+02 -0.27963111981E+02  0.15691012317E+03  0.12509000000E+03 0.  0.
<mgrwt>
<rscale>  2 0.45778700E+03</rscale>
<asrwt>0</asrwt>
<pdfrwt beam="1">  1       21 0.36826090E-01 0.45778700E+03</pdfrwt>
<pdfrwt beam="2">  1       21 0.30767591E-01 0.45778700E+03</pdfrwt>
<totfact> 0.66711612E+04</totfact>
</mgrwt>
</event>
<event>
 7    0  0.4748297E-002  0.4551648E+03  0.7546771E-02  0.1026193E+00
         21   -1    0    0  502  501  0.00000000000E+00  0.00000000000E+00  0.31891316739E+03  0.31891316739E+03  0.00000000000E+00 0. -1.
         21   -1    0    0  501  502 -0.00000000000E+00 -0.00000000000E+00 -0.16240708094E+03  0.16240708094E+03  0.00000000000E+00 0. -1.
      99926    2    1    2    0    0  0.00000000000E+00  0.00000000000E+00  0.15650608644E+03  0.48132024833E+03  0.45516483427E+03 0.  0.
      99925    2    3    3    0    0 -0.45141539956E+02 -0.69015134357E+02  0.18067556272E+03  0.32955556507E+03  0.26298738393E+03 0.  0.
         25    1    4    4    0    0 -0.49861522496E+02 -0.43903022210E+01  0.87335730238E+02  0.16056302207E+03  0.12509000000E+03 0.  0.
         25    1    3    3    0    0  0.45141539956E+02  0.69015134357E+02 -0.24169476277E+02  0.15176468325E+03  0.12509000000E+03 0.  0.
         25    1    4    4    0    0  0.47199825402E+01 -0.64624832136E+02  0.93339832482E+02  0.16899254301E+03  0.12509000000E+03 0.  0.
<mgrwt>
<rscale>  2 0.45516483E+03</rscale>
<asrwt>0</asrwt>
<pdfrwt beam="1">  1       21 0.46898995E-01 0.45516483E+03</pdfrwt>
<pdfrwt beam="2">  1       21 0.23883394E-01 0.45516483E+03</pdfrwt>
<totfact> 0.66517046E+04</totfact>
</mgrwt>
</event>
<event>
 7    0  0.4748297E-002  0.4600209E+03  0.7546771E-02  0.1024775E+00
         21   -1    0    0  502  501  0.00000000000E+00  0.00000000000E+00  0.44278118803E+03  0.44278118803E+03  0.00000000000E+00 0. -1.
         21   -1    0    0  501  502 -0.00000000000E+00 -0.00000000000E+00 -0.11948298566E+03  0.11948298566E+03  0.00000000000E+00 0. -1.
      99926    2    1    2    0    0  0.00000000000E+00  0.00000000000E+00  0.32329820237E+03  0.56226417370E+03  0.46002094883E+03 0.  0.
      99925    2    3    3    0    0  0.60648956693E+02 -0.10083340162E+03  0.20706125732E+03  0.35488961806E+03  0.26310949411E+03 0.  0.
         25    1    4    4    0    0  0.33407956730E+02 -0.82591719585E+02  0.78225061454E+02  0.17234892531E+03  0.12509000000E+03 0.  0.
         25    1    4    4    0    0  0.27240999963E+02 -0.18241682038E+02  0.12883619587E+03  0.18254069274E+03  0.12509000000E+03 0.  0.
         25    1    3    3    0    0 -0.60648956693E+02  0.10083340162E+03  0.11623694505E+03  0.20737455564E+03  0.12509000000E+03 0.  0.
<mgrwt>
<rscale>  2 0.46002095E+03</rscale>
<asrwt>0</asrwt>
<pdfrwt beam="1">  1       21 0.65114880E-01 0.46002095E+03</pdfrwt>
<pdfrwt beam="2">  1       21 0.17571027E-01 0.46002095E+03</pdfrwt>
<totfact> 0.58697261E+04</totfact>
</mgrwt>
</event>
<event>
 7    0  0.4748297E-002  0.4388312E+03  0.7546771E-02  0.1031106E+00
         21   -1    0    0  502  501  0.00000000000E+00  0.00000000000E+00  0.32658255377E+03  0.32658255377E+03  0.00000000000E+00 0.  1.
         21   -1    0    0  501  502 -0.00000000000E+00 -0.00000000000E+00 -0.14741510588E+03  0.14741510588E+03  0.00000000000E+00 0.  1.
      99926    2    1    2    0    0  0.00000000000E+00  0.00000000000E+00  0.17916744789E+03  0.47399765965E+03  0.43883118277E+03 0.  0.
      99925    2    3    3    0    0 -0.40518146196E+02  0.66129789854E+02  0.51228002141E+02  0.27898258548E+03  0.26304392317E+03 0.  0.
         25    1    4    4    0    0 -0.46749272746E+02  0.55385958745E+02  0.50924226163E+02  0.15327714715E+03  0.12509000000E+03 0.  0.
         25    1    4    4    0    0  0.62311265496E+01  0.10743831109E+02  0.30377597798E+00  0.12570543833E+03  0.12509000000E+03 0.  0.
         25    1    3    3    0    0  0.40518146196E+02 -0.66129789854E+02  0.12793944574E+03  0.19501507417E+03  0.12509000000E+03 0.  0.
<mgrwt>
<rscale>  2 0.43883118E+03</rscale>
<asrwt>0</asrwt>
<pdfrwt beam="1">  1       21 0.48026846E-01 0.43883118E+03</pdfrwt>
<pdfrwt beam="2">  1       21 0.21678692E-01 0.43883118E+03</pdfrwt>
<totfact> 0.76496288E+04</totfact>
</mgrwt>
</event>
<event>
 7    0  0.4748297E-002  0.4604552E+03  0.7546771E-02  0.1024649E+00
         21   -1    0    0  502  501  0.00000000000E+00  0.00000000000E+00  0.42224117070E+03  0.42224117070E+03  0.00000000000E+00 0.  1.
         21   -1    0    0  501  502 -0.00000000000E+00 -0.00000000000E+00 -0.12553193727E+03  0.12553193727E+03  0.00000000000E+00 0.  1.
      99926    2    1    2    0    0  0.00000000000E+00  0.00000000000E+00  0.29670923343E+03  0.54777310797E+03  0.46045521889E+03 0.  0.
      99925    2    3    3    0    0 -0.11286477249E+03 -0.30834281849E+02  0.20588805722E+03  0.35390406981E+03  0.26299997855E+03 0.  0.
         25    1    4    4    0    0 -0.29201198831E+02  0.13498291060E+02  0.11279533512E+03  0.17147947282E+03  0.12509000000E+03 0.  0.
         25    1    4    4    0    0 -0.83663573660E+02 -0.44332572909E+02  0.93092722099E+02  0.18242459699E+03  0.12509000000E+03 0.  0.
         25    1    3    3    0    0  0.11286477249E+03  0.30834281849E+02  0.90821176210E+02  0.19386903815E+03  0.12509000000E+03 0.  0.
<mgrwt>
<rscale>  2 0.46045522E+03</rscale>
<asrwt>0</asrwt>
<pdfrwt beam="1">  1       21 0.62094290E-01 0.46045522E+03</pdfrwt>
<pdfrwt beam="2">  1       21 0.18460579E-01 0.46045522E+03</pdfrwt>
<totfact> 0.59407787E+04</totfact>
</mgrwt>
</event>
<event>
 7    0  0.4748297E-002  0.4692588E+03  0.7546771E-02  0.1022130E+00
         21   -1    0    0  502  501  0.00000000000E+00  0.00000000000E+00  0.37863829230E+03  0.37863829230E+03  0.00000000000E+00 0. -1.
         21   -1    0    0  501  502 -0.00000000000E+00 -0.00000000000E+00 -0.14539196055E+03  0.14539196055E+03  0.00000000000E+00 0. -1.
      99926    2    1    2    0    0  0.00000000000E+00  0.00000000000E+00  0.23324633175E+03  0.52403025285E+03  0.46925883543E+03 0.  0.
      99925    2    3    3    0    0 -0.11360039878E+03  0.50444068435E+02  0.16786527204E+03  0.33595620969E+03  0.26313147023E+03 0.  0.
         25    1    4    4    0    0 -0.92082718483E+02  0.37730543203E+02  0.66933714628E+02  0.17329296347E+03  0.12509000000E+03 0.  0.
         25    1    3    3    0    0  0.11360039878E+03 -0.50444068435E+02  0.65381059708E+02  0.18807404316E+03  0.12509000000E+03 0.  0.
         25    1    4    4    0    0 -0.21517680299E+02  0.12713525232E+02  0.10093155741E+03  0.16266324622E+03  0.12509000000E+03 0.  0.
<mgrwt>
<rscale>  2 0.46925884E+03</rscale>
<asrwt>0</asrwt>
<pdfrwt beam="1">  1       21 0.55682102E-01 0.46925884E+03</pdfrwt>
<pdfrwt beam="2">  1       21 0.21381171E-01 0.46925884E+03</pdfrwt>
<totfact> 0.56898190E+04</totfact>
</mgrwt>
</event>
<event>
 6    0  0.4748297E-002  0.4731021E+03  0.7546771E-02  0.1021048E+00
         21   -1    0    0  502  501  0.00000000000E+00  0.00000000000E+00  0.33135947604E+03  0.33135947604E+03  0.00000000000E+00 0. -1.
         21   -1    0    0  501  502 -0.00000000000E+00 -0.00000000000E+00 -0.16886919784E+03  0.16886919784E+03  0.00000000000E+00 0. -1.
      99926    2    1    2    0    0  0.00000000000E+00  0.00000000000E+00  0.16249027820E+03  0.50022867388E+03  0.47310214084E+03 0.  0.
         25    1    3    3    0    0 -0.19733323655E+02  0.33380416419E+01 -0.11745320440E+01  0.12668636158E+03  0.12509000000E+03 0.  0.
         25    1    3    3    0    0 -0.99051355303E+02 -0.89393315376E+01  0.52343634757E+02  0.16816196608E+03  0.12509000000E+03 0.  0.
         25    1    3    3    0    0  0.11878467896E+03  0.56012898957E+01  0.11132117549E+03  0.20538034622E+03  0.12509000000E+03 0.  0.
<mgrwt>
<rscale>  2 0.47310214E+03</rscale>
<asrwt>0</asrwt>
<pdfrwt beam="1">  1       21 0.48729335E-01 0.47310214E+03</pdfrwt>
<pdfrwt beam="2">  1       21 0.24833706E-01 0.47310214E+03</pdfrwt>
<totfact> 0.56663523E+04</totfact>
</mgrwt>
</event>
<event>
 7    0  0.4748297E-002  0.4567861E+03  0.7546771E-02  0.1025717E+00
         21   -1    0    0  502  501  0.00000000000E+00  0.00000000000E+00  0.85101035497E+02  0.85101035497E+02  0.00000000000E+00 0. -1.
         21   -1    0    0  501  502 -0.00000000000E+00 -0.00000000000E+00 -0.61295840496E+03  0.61295840496E+03  0.00000000000E+00 0. -1.
      99926    2    1    2    0    0  0.00000000000E+00 -0.71054273576E-14 -0.52785736946E+03  0.69805944046E+03  0.45678614243E+03 0.  0.
      99925    2    3    3    0    0 -0.67629450822E+02 -0.48786444069E+02 -0.21073713556E+03  0.34710843164E+03  0.26290732828E+03 0.  0.
         25    1    3    3    0    0  0.67629450822E+02  0.48786444069E+02 -0.31712023390E+03  0.35095100882E+03  0.12509000000E+03 0.  0.
         25    1    4    4    0    0 -0.34298238955E+02 -0.29541419177E+02 -0.55707566267E+02  0.14422172403E+03  0.12509000000E+03 0.  0.
         25    1    4    4    0    0 -0.33331211867E+02 -0.19245024892E+02 -0.15502956929E+03  0.20288670761E+03  0.12509000000E+03 0.  0.
<mgrwt>
<rscale>  2 0.45678614E+03</rscale>
<asrwt>0</asrwt>
<pdfrwt beam="1">  1       21 0.12514859E-01 0.45678614E+03</pdfrwt>
<pdfrwt beam="2">  1       21 0.90140937E-01 0.45678614E+03</pdfrwt>
<totfact> 0.52269791E+04</totfact>
</mgrwt>
</event>
<event>
 7    0  0.4748297E-002  0.4251459E+03  0.7546771E-02  0.1035404E+00
         21   -1    0    0  502  501  0.00000000000E+00  0.00000000000E+00  0.27949860202E+03  0.27949860202E+03  0.00000000000E+00 0. -1.
         21   -1    0    0  501  502 -0.00000000000E+00 -0.00000000000E+00 -0.16167257956E+03  0.16167257956E+03  0.00000000000E+00 0. -1.
      99926    2    1    2    0    0  0.00000000000E+00  0.00000000000E+00  0.11782602246E+03  0.44117118157E+03  0.42514590423E+03 0.  0.
      99925    2    3    3    0    0  0.44241329100E+02  0.82103383404E+01  0.14651251189E+03  0.30517438884E+03  0.26389540847E+03 0.  0.
         25    1    4    4    0    0  0.61237917150E+02  0.20873951912E+02  0.77309053203E+02  0.16065491643E+03  0.12509000000E+03 0.  0.
         25    1    4    4    0    0 -0.16996588050E+02 -0.12663613572E+02  0.69203458682E+02  0.14451947242E+03  0.12509000000E+03 0.  0.
         25    1    3    3    0    0 -0.44241329100E+02 -0.82103383404E+01 -0.28686489425E+02  0.13599679273E+03  0.12509000000E+03 0.  0.
<mgrwt>
<rscale>  2 0.42514590E+03</rscale>
<asrwt>0</asrwt>
<pdfrwt beam="1">  1       21 0.41102735E-01 0.42514590E+03</pdfrwt>
<pdfrwt beam="2">  1       21 0.23775379E-01 0.42514590E+03</pdfrwt>
<totfact> 0.88900923E+04</totfact>
</mgrwt>
</event>
<event>
 7    0  0.4748297E-002  0.4472100E+03  0.7546771E-02  0.1028557E+00
         21   -1    0    0  502  501  0.00000000000E+00  0.00000000000E+00  0.18819479833E+04  0.18819479833E+04  0.00000000000E+00 0.  1.
         21   -1    0    0  501  502 -0.00000000000E+00 -0.00000000000E+00 -0.26567789801E+02  0.26567789801E+02  0.00000000000E+00 0.  1.
      99926    2    1    2    0    0  0.35527136788E-14  0.00000000000E+00  0.18553801935E+04  0.19085157731E+04  0.44721001079E+03 0.  0.
      99925    2    3    3    0    0  0.20045542604E+02 -0.42898433028E+02  0.15794299802E+04  0.16018594058E+04  0.26289236203E+03 0.  0.
         25    1    3    3    0    0 -0.20045542604E+02  0.42898433028E+02  0.27595021330E+03  0.30665636738E+03  0.12509000000E+03 0.  0.
         25    1    4    4    0    0 -0.63823159554E+01 -0.40835261861E+01  0.96265838105E+03  0.97078116785E+03  0.12509000000E+03 0.  0.
         25    1    4    4    0    0  0.26427858559E+02 -0.38814906842E+02  0.61677159918E+03  0.63107823790E+03  0.12509000000E+03 0.  0.
<mgrwt>
<rscale>  2 0.44721001E+03</rscale>
<asrwt>0</asrwt>
<pdfrwt beam="1">  1       21 0.27675697E+00 0.44721001E+03</pdfrwt>
<pdfrwt beam="2">  1       21 0.39070292E-02 0.44721001E+03</pdfrwt>
<totfact> 0.16220091E+04</totfact>
</mgrwt>
</event>
<event>
 7    0  0.4748297E-002  0.4642181E+03  0.7546771E-02  0.1023565E+00
         21   -1    0    0  502  501  0.00000000000E+00  0.00000000000E+00  0.20501581272E+03  0.20501581272E+03  0.00000000000E+00 0. -1.
         21   -1    0    0  501  502 -0.00000000000E+00 -0.00000000000E+00 -0.26278270747E+03  0.26278270747E+03  0.00000000000E+00 0. -1.
      99926    2    1    2    0    0  0.00000000000E+00  0.00000000000E+00 -0.57766894754E+02  0.46779852020E+03  0.46421809677E+03 0.  0.
      99925    2    3    3    0    0  0.96998892049E+02  0.65803546698E+02 -0.68762899627E+02  0.29602159497E+03  0.26298584849E+03 0.  0.
         25    1    3    3    0    0 -0.96998892049E+02 -0.65803546698E+02  0.10996004873E+02  0.17177692523E+03  0.12509000000E+03 0.  0.
         25    1    4    4    0    0  0.65240240925E+02  0.62193254997E+02 -0.63675358438E+02  0.16681231782E+03  0.12509000000E+03 0.  0.
         25    1    4    4    0    0  0.31758651124E+02  0.36102917012E+01 -0.50875411889E+01  0.12920927715E+03  0.12509000000E+03 0.  0.
<mgrwt>
<rscale>  2 0.46421810E+03</rscale>
<asrwt>0</asrwt>
<pdfrwt beam="1">  1       21 0.30149384E-01 0.46421810E+03</pdfrwt>
<pdfrwt beam="2">  1       21 0.38644516E-01 0.46421810E+03</pdfrwt>
<totfact> 0.62865736E+04</totfact>
</mgrwt>
</event>
<event>
 7    0  0.4748297E-002  0.4616401E+03  0.7546771E-02  0.1024307E+00
         21   -1    0    0  502  501  0.00000000000E+00  0.00000000000E+00  0.32305305285E+03  0.32305305285E+03  0.00000000000E+00 0. -1.
         21   -1    0    0  501  502 -0.00000000000E+00 -0.00000000000E+00 -0.16491998065E+03  0.16491998065E+03  0.00000000000E+00 0. -1.
      99926    2    1    2    0    0  0.71054273576E-14  0.14210854715E-13  0.15813307221E+03  0.48797303350E+03  0.46164013354E+03 0.  0.
      99925    2    3    3    0    0 -0.52004674038E+02 -0.10551109916E+03  0.11984165839E+03  0.31204458600E+03  0.26300707670E+03 0.  0.
         25    1    4    4    0    0 -0.40530514494E+02 -0.89691416736E+02  0.86346243775E+02  0.18108134845E+03  0.12509000000E+03 0.  0.
         25    1    4    4    0    0 -0.11474159544E+02 -0.15819682426E+02  0.33495414611E+02  0.13096323755E+03  0.12509000000E+03 0.  0.
         25    1    3    3    0    0  0.52004674038E+02  0.10551109916E+03  0.38291413821E+02  0.17592844750E+03  0.12509000000E+03 0.  0.
<mgrwt>
<rscale>  2 0.46164013E+03</rscale>
<asrwt>0</asrwt>
<pdfrwt beam="1">  1       21 0.47507802E-01 0.46164013E+03</pdfrwt>
<pdfrwt beam="2">  1       21 0.24252938E-01 0.46164013E+03</pdfrwt>
<totfact> 0.62750702E+04</totfact>
</mgrwt>
</event>
<event>
 7    0  0.4748297E-002  0.4592426E+03  0.7546771E-02  0.1025001E+00
         21   -1    0    0  502  501  0.00000000000E+00  0.00000000000E+00  0.37581543416E+03  0.37581543416E+03  0.00000000000E+00 0.  1.
         21   -1    0    0  501  502 -0.00000000000E+00 -0.00000000000E+00 -0.14029746410E+03  0.14029746410E+03  0.00000000000E+00 0.  1.
      99926    2    1    2    0    0  0.14210854715E-13  0.00000000000E+00  0.23551797006E+03  0.51611289825E+03  0.45924264776E+03 0.  0.
      99925    2    3    3    0    0 -0.75605213563E+02 -0.90031487018E+02  0.15112607020E+03  0.32482432611E+03  0.26239271477E+03 0.  0.
         25    1    3    3    0    0  0.75605213563E+02  0.90031487018E+02  0.84391899856E+02  0.19128857215E+03  0.12509000000E+03 0.  0.
         25    1    4    4    0    0 -0.23085540421E+02 -0.74560274025E+02  0.10376518505E+03  0.18029669539E+03  0.12509000000E+03 0.  0.
         25    1    4    4    0    0 -0.52519673142E+02 -0.15471212993E+02  0.47360885153E+02  0.14452763072E+03  0.12509000000E+03 0.  0.
<mgrwt>
<rscale>  2 0.45924265E+03</rscale>
<asrwt>0</asrwt>
<pdfrwt beam="1">  1       21 0.55266975E-01 0.45924265E+03</pdfrwt>
<pdfrwt beam="2">  1       21 0.20631980E-01 0.45924265E+03</pdfrwt>
<totfact> 0.62037779E+04</totfact>
</mgrwt>
</event>
<event>
 7    0  0.4748297E-002  0.4591468E+03  0.7546771E-02  0.1025029E+00
         21   -1    0    0  502  501  0.00000000000E+00  0.00000000000E+00  0.15994503052E+04  0.15994503052E+04  0.00000000000E+00 0. -1.
         21   -1    0    0  501  502 -0.00000000000E+00 -0.00000000000E+00 -0.32951292877E+02  0.32951292877E+02  0.00000000000E+00 0. -1.
      99926    2    1    2    0    0  0.00000000000E+00 -0.17763568394E-14  0.15664990123E+04  0.16324015981E+04  0.45914684121E+03 0.  0.
      99925    2    3    3    0    0 -0.34263812054E+02  0.12182453352E+02  0.13771275722E+04  0.14025506215E+04  0.26333528976E+03 0.  0.
         25    1    4    4    0    0  0.98293314744E+01  0.73092589112E+01  0.50634671748E+03  0.52171308919E+03  0.12509000000E+03 0.  0.
         25    1    4    4    0    0 -0.44093143529E+02  0.48731944412E+01  0.87078085473E+03  0.88083753234E+03  0.12509000000E+03 0.  0.
         25    1    3    3    0    0  0.34263812054E+02 -0.12182453352E+02  0.18937144009E+03  0.22985097652E+03  0.12509000000E+03 0.  0.
<mgrwt>
<rscale>  2 0.45914684E+03</rscale>
<asrwt>0</asrwt>
<pdfrwt beam="1">  1       21 0.23521323E+00 0.45914684E+03</pdfrwt>
<pdfrwt beam="2">  1       21 0.48457794E-02 0.45914684E+03</pdfrwt>
<totfact> 0.20053879E+04</totfact>
</mgrwt>
</event>
<event>
 7    0  0.4748297E-002  0.4520107E+03  0.7546771E-02  0.1027124E+00
         21   -1    0    0  502  501  0.00000000000E+00  0.00000000000E+00  0.41938721782E+03  0.41938721782E+03  0.00000000000E+00 0.  1.
         21   -1    0    0  501  502 -0.00000000000E+00 -0.00000000000E+00 -0.12179295933E+03  0.12179295933E+03  0.00000000000E+00 0.  1.
      99926    2    1    2    0    0  0.00000000000E+00  0.00000000000E+00  0.29759425848E+03  0.54118017715E+03  0.45201066521E+03 0.  0.
      99925    2    3    3    0    0 -0.39124512520E+02 -0.10047758689E+03  0.21569213861E+03  0.35683827121E+03  0.26302847791E+03 0.  0.
         25    1    4    4    0    0  0.76461699853E+01 -0.17192857529E+02  0.10537390089E+03  0.16463664645E+03  0.12509000000E+03 0.  0.
         25    1    3    3    0    0  0.39124512520E+02  0.10047758689E+03  0.81902119869E+02  0.18434190594E+03  0.12509000000E+03 0.  0.
         25    1    4    4    0    0 -0.46770682505E+02 -0.83284729359E+02  0.11031823773E+03  0.19220162476E+03  0.12509000000E+03 0.  0.
<mgrwt>
<rscale>  2 0.45201067E+03</rscale>
<asrwt>0</asrwt>
<pdfrwt beam="1">  1       21 0.61674590E-01 0.45201067E+03</pdfrwt>
<pdfrwt beam="2">  1       21 0.17910729E-01 0.45201067E+03</pdfrwt>
<totfact> 0.63952644E+04</totfact>
</mgrwt>
</event>
<event>
 7    0  0.4748297E-002  0.4546091E+03  0.7546771E-02  0.1026356E+00
         21   -1    0    0  502  501  0.00000000000E+00  0.00000000000E+00  0.36883049205E+03  0.36883049205E+03  0.00000000000E+00 0.  1.
         21   -1    0    0  501  502 -0.00000000000E+00 -0.00000000000E+00 -0.14008432107E+03  0.14008432107E+03  0.00000000000E+00 0.  1.
      99926    2    1    2    0    0  0.35527136788E-14  0.14210854715E-13  0.22874617098E+03  0.50891481312E+03  0.45460914672E+03 0.  0.
      99925    2    3    3    0    0  0.20529218301E+02 -0.10919174002E+03  0.16578532188E+03  0.33015278832E+03  0.26300533416E+03 0.  0.
         25    1    4    4    0    0  0.20341947841E+02 -0.21052744627E+02  0.10335691848E+03  0.16488533469E+03  0.12509000000E+03 0.  0.
         25    1    4    4    0    0  0.18727045997E+00 -0.88138995390E+02  0.62428403395E+02  0.16526745363E+03  0.12509000000E+03 0.  0.
         25    1    3    3    0    0 -0.20529218301E+02  0.10919174002E+03  0.62960849099E+02  0.17876202480E+03  0.12509000000E+03 0.  0.
<mgrwt>
<rscale>  2 0.45460915E+03</rscale>
<asrwt>0</asrwt>
<pdfrwt beam="1">  1       21 0.54239778E-01 0.45460915E+03</pdfrwt>
<pdfrwt beam="2">  1       21 0.20600636E-01 0.45460915E+03</pdfrwt>
<totfact> 0.64849727E+04</totfact>
</mgrwt>
</event>
<event>
 7    0  0.4748297E-002  0.4624221E+03  0.7546771E-02  0.1024081E+00
         21   -1    0    0  502  501  0.00000000000E+00  0.00000000000E+00  0.44445647157E+03  0.44445647157E+03  0.00000000000E+00 0.  1.
         21   -1    0    0  501  502 -0.00000000000E+00 -0.00000000000E+00 -0.12027848220E+03  0.12027848220E+03  0.00000000000E+00 0.  1.
      99926    2    1    2    0    0  0.00000000000E+00  0.00000000000E+00  0.32417798937E+03  0.56473495378E+03  0.46242210071E+03 0.  0.
      99925    2    3    3    0    0  0.73051893793E+02 -0.15143461921E+02  0.87952755668E+02  0.28721779617E+03  0.26304461899E+03 0.  0.
         25    1    4    4    0    0  0.78014588555E+02 -0.15149132333E+02  0.49840188668E+02  0.15635640295E+03  0.12509000000E+03 0.  0.
         25    1    3    3    0    0 -0.73051893793E+02  0.15143461921E+02  0.23622523371E+03  0.27751715761E+03  0.12509000000E+03 0.  0.
         25    1    4    4    0    0 -0.49626947617E+01  0.56704118174E-02  0.38112567000E+02  0.13086139322E+03  0.12509000000E+03 0.  0.
<mgrwt>
<rscale>  2 0.46242210E+03</rscale>
<asrwt>0</asrwt>
<pdfrwt beam="1">  1       21 0.65361245E-01 0.46242210E+03</pdfrwt>
<pdfrwt beam="2">  1       21 0.17688012E-01 0.46242210E+03</pdfrwt>
<totfact> 0.57455428E+04</totfact>
</mgrwt>
</event>
<event>
 7    0  0.4748297E-002  0.4511601E+03  0.7546771E-02  0.1027377E+00
         21   -1    0    0  502  501  0.00000000000E+00  0.00000000000E+00  0.10879517549E+04  0.10879517549E+04  0.00000000000E+00 0.  1.
         21   -1    0    0  501  502 -0.00000000000E+00 -0.00000000000E+00 -0.46772615150E+02  0.46772615150E+02  0.00000000000E+00 0.  1.
      99926    2    1    2    0    0 -0.71054273576E-14  0.00000000000E+00  0.10411791398E+04  0.11347243701E+04  0.45116005468E+03 0.  0.
      99925    2    3    3    0    0 -0.43672152096E+02  0.59025707243E+02  0.86184365312E+03  0.90407308381E+03  0.26302541217E+03 0.  0.
         25    1    3    3    0    0  0.43672152096E+02 -0.59025707243E+02  0.17933548665E+03  0.23065128626E+03  0.12509000000E+03 0.  0.
         25    1    4    4    0    0 -0.26815315659E+02  0.40385909181E+02  0.56971039941E+03  0.58529268755E+03  0.12509000000E+03 0.  0.
         25    1    4    4    0    0 -0.16856836437E+02  0.18639798061E+02  0.29213325372E+03  0.31878039625E+03  0.12509000000E+03 0.  0.
<mgrwt>
<rscale>  2 0.45116005E+03</rscale>
<asrwt>0</asrwt>
<pdfrwt beam="1">  1       21 0.15999289E+00 0.45116005E+03</pdfrwt>
<pdfrwt beam="2">  1       21 0.68783265E-02 0.45116005E+03</pdfrwt>
<totfact> 0.35342588E+04</totfact>
</mgrwt>
</event>
<event>
 7    0  0.4748297E-002  0.4560292E+03  0.7546771E-02  0.1025939E+00
         21   -1    0    0  502  501  0.00000000000E+00  0.00000000000E+00  0.44435997989E+02  0.44435997989E+02  0.00000000000E+00 0. -1.
         21   -1    0    0  501  502 -0.00000000000E+00 -0.00000000000E+00 -0.11700121804E+04  0.11700121804E+04  0.00000000000E+00 0. -1.
      99926    2    1    2    0    0  0.00000000000E+00  0.71054273576E-14 -0.11255761824E+04  0.12144481784E+04  0.45602920475E+03 0.  0.
      99925    2    3    3    0    0  0.95133262920E+02 -0.46236217010E+02 -0.82192944189E+03  0.86943082143E+03  0.26297113972E+03 0.  0.
         25    1    3    3    0    0 -0.95133262920E+02  0.46236217010E+02 -0.30364674054E+03  0.34501735698E+03  0.12509000000E+03 0.  0.
         25    1    4    4    0    0  0.40208133440E+02 -0.55259565181E+02 -0.34632781942E+03  0.37451405867E+03  0.12509000000E+03 0.  0.
         25    1    4    4    0    0  0.54925129480E+02  0.90233481705E+01 -0.47560162247E+03  0.49491676276E+03  0.12509000000E+03 0.  0.
<mgrwt>
<rscale>  2 0.45602920E+03</rscale>
<asrwt>0</asrwt>
<pdfrwt beam="1">  1       21 0.65347050E-02 0.45602920E+03</pdfrwt>
<pdfrwt beam="2">  1       21 0.17206063E+00 0.45602920E+03</pdfrwt>
<totfact> 0.31448484E+04</totfact>
</mgrwt>
</event>
<event>
 7    0  0.4748297E-002  0.4532571E+03  0.7546771E-02  0.1026755E+00
         21   -1    0    0  502  501  0.00000000000E+00  0.00000000000E+00  0.10029046070E+04  0.10029046070E+04  0.00000000000E+00 0. -1.
         21   -1    0    0  501  502 -0.00000000000E+00 -0.00000000000E+00 -0.51211746943E+02  0.51211746943E+02  0.00000000000E+00 0. -1.
      99926    2    1    2    0    0  0.17763568394E-14  0.17763568394E-14  0.95169286004E+03  0.10541163539E+04  0.45325708794E+03 0.  0.
      99925    2    3    3    0    0  0.40642220949E+01 -0.14288356447E+02  0.85691306774E+03  0.89647311062E+03  0.26295124524E+03 0.  0.
         25    1    4    4    0    0 -0.12619394804E+02 -0.43433866278E+02  0.39846571083E+03  0.42008115963E+03  0.12509000000E+03 0.  0.
         25    1    4    4    0    0  0.16683616899E+02  0.29145509831E+02  0.45844735691E+03  0.47639195099E+03  0.12509000000E+03 0.  0.
         25    1    3    3    0    0 -0.40642220949E+01  0.14288356447E+02  0.94779792299E+02  0.15764324330E+03  0.12509000000E+03 0.  0.
<mgrwt>
<rscale>  2 0.45325709E+03</rscale>
<asrwt>0</asrwt>
<pdfrwt beam="1">  1       21 0.14748596E+00 0.45325709E+03</pdfrwt>
<pdfrwt beam="2">  1       21 0.75311399E-02 0.45325709E+03</pdfrwt>
<totfact> 0.37636080E+04</totfact>
</mgrwt>
</event>
<event>
 7    0  0.4748297E-002  0.4547364E+03  0.7546771E-02  0.1026319E+00
         21   -1    0    0  502  501  0.00000000000E+00  0.00000000000E+00  0.16725521203E+03  0.16725521203E+03  0.00000000000E+00 0.  1.
         21   -1    0    0  501  502 -0.00000000000E+00 -0.00000000000E+00 -0.30908634032E+03  0.30908634032E+03  0.00000000000E+00 0.  1.
      99926    2    1    2    0    0 -0.14210854715E-13 -0.88817841970E-15 -0.14183112829E+03  0.47634155236E+03  0.45473641326E+03 0.  0.
      99925    2    3    3    0    0  0.10037241875E+03  0.52260316008E+01 -0.35091842858E+02  0.28361709359E+03  0.26287883994E+03 0.  0.
         25    1    3    3    0    0 -0.10037241875E+03 -0.52260316008E+01 -0.10673928544E+03  0.19272445877E+03  0.12509000000E+03 0.  0.
         25    1    4    4    0    0  0.10275827637E+02 -0.12136611021E+02 -0.21153856795E+02  0.12785884294E+03  0.12509000000E+03 0.  0.
         25    1    4    4    0    0  0.90096591114E+02  0.17362642621E+02 -0.13937986064E+02  0.15575825065E+03  0.12509000000E+03 0.  0.
<mgrwt>
<rscale>  2 0.45473641E+03</rscale>
<asrwt>0</asrwt>
<pdfrwt beam="1">  1       21 0.24596355E-01 0.45473641E+03</pdfrwt>
<pdfrwt beam="2">  1       21 0.45453873E-01 0.45473641E+03</pdfrwt>
<totfact> 0.67107658E+04</totfact>
</mgrwt>
</event>
<event>
 7    0  0.4748297E-002  0.4622790E+03  0.7546771E-02  0.1024122E+00
         21   -1    0    0  502  501  0.00000000000E+00  0.00000000000E+00  0.15549058509E+04  0.15549058509E+04  0.00000000000E+00 0. -1.
         21   -1    0    0  501  502 -0.00000000000E+00 -0.00000000000E+00 -0.34359289641E+02  0.34359289641E+02  0.00000000000E+00 0. -1.
      99926    2    1    2    0    0  0.00000000000E+00  0.00000000000E+00  0.15205465613E+04  0.15892651406E+04  0.46227896555E+03 0.  0.
      99925    2    3    3    0    0  0.99944360736E+02  0.38903932197E+02  0.77074215213E+03  0.82156952949E+03  0.26349693647E+03 0.  0.
         25    1    4    4    0    0  0.43321900513E+02  0.60126614097E+02  0.40762693210E+03  0.43278079978E+03  0.12509000000E+03 0.  0.
         25    1    3    3    0    0 -0.99944360736E+02 -0.38903932197E+02  0.74980440916E+03  0.76769561108E+03  0.12509000000E+03 0.  0.
         25    1    4    4    0    0  0.56622460222E+02 -0.21222681900E+02  0.36311522003E+03  0.38878872971E+03  0.12509000000E+03 0.  0.
<mgrwt>
<rscale>  2 0.46227897E+03</rscale>
<asrwt>0</asrwt>
<pdfrwt beam="1">  1       21 0.22866258E+00 0.46227897E+03</pdfrwt>
<pdfrwt beam="2">  1       21 0.50528378E-02 0.46227897E+03</pdfrwt>
<totfact> 0.20490596E+04</totfact>
</mgrwt>
</event>
<event>
 7    0  0.4748297E-002  0.4537956E+03  0.7546771E-02  0.1026596E+00
         21   -1    0    0  502  501  0.00000000000E+00  0.00000000000E+00  0.75008201861E+02  0.75008201861E+02  0.00000000000E+00 0. -1.
         21   -1    0    0  501  502 -0.00000000000E+00 -0.00000000000E+00 -0.68635967118E+03  0.68635967118E+03  0.00000000000E+00 0. -1.
      99926    2    1    2    0    0  0.00000000000E+00  0.00000000000E+00 -0.61135146932E+03  0.76136787304E+03  0.45379556968E+03 0.  0.
      99925    2    3    3    0    0  0.54057485423E+02  0.88765647525E+02 -0.45539536464E+03  0.53604284870E+03  0.26297422989E+03 0.  0.
         25    1    4    4    0    0  0.60880574826E+02  0.24376560779E+02 -0.20950986672E+03  0.25267084014E+03  0.12509000000E+03 0.  0.
         25    1    3    3    0    0 -0.54057485423E+02 -0.88765647525E+02 -0.15595610468E+03  0.22532502435E+03  0.12509000000E+03 0.  0.
         25    1    4    4    0    0 -0.68230894032E+01  0.64389086747E+02 -0.24588549792E+03  0.28337200855E+03  0.12509000000E+03 0.  0.
<mgrwt>
<rscale>  2 0.45379557E+03</rscale>
<asrwt>0</asrwt>
<pdfrwt beam="1">  1       21 0.11030618E-01 0.45379557E+03</pdfrwt>
<pdfrwt beam="2">  1       21 0.10093524E+00 0.45379557E+03</pdfrwt>
<totfact> 0.50162455E+04</totfact>
</mgrwt>
</event>
<event>
 7    0  0.4748297E-002  0.4487588E+03  0.7546771E-02  0.1028093E+00
         21   -1    0    0  502  501  0.00000000000E+00  0.00000000000E+00  0.13594604809E+03  0.13594604809E+03  0.00000000000E+00 0. -1.
         21   -1    0    0  501  502 -0.00000000000E+00 -0.00000000000E+00 -0.37033894474E+03  0.37033894474E+03  0.00000000000E+00 0. -1.
      99926    2    1    2    0    0 -0.71054273576E-14  0.00000000000E+00 -0.23439289665E+03  0.50628499283E+03  0.44875880378E+03 0.  0.
      99925    2    3    3    0    0 -0.33511693436E+02  0.75028479045E+02 -0.22607146078E+03  0.35638815944E+03  0.26296750473E+03 0.  0.
         25    1    4    4    0    0  0.11008565573E+02  0.71321135079E+01 -0.91741454083E+02  0.15567934370E+03  0.12509000000E+03 0.  0.
         25    1    4    4    0    0 -0.44520259008E+02  0.67896365537E+02 -0.13433000670E+03  0.20070881574E+03  0.12509000000E+03 0.  0.
         25    1    3    3    0    0  0.33511693436E+02 -0.75028479045E+02 -0.83214358617E+01  0.14989683339E+03  0.12509000000E+03 0.  0.
<mgrwt>
<rscale>  2 0.44875880E+03</rscale>
<asrwt>0</asrwt>
<pdfrwt beam="1">  1       21 0.19992067E-01 0.44875880E+03</pdfrwt>
<pdfrwt beam="2">  1       21 0.54461607E-01 0.44875880E+03</pdfrwt>
<totfact> 0.68144641E+04</totfact>
</mgrwt>
</event>
<event>
 7    0  0.4748297E-002  0.4647177E+03  0.7546771E-02  0.1023422E+00
         21   -1    0    0  502  501  0.00000000000E+00  0.00000000000E+00  0.18600855166E+03  0.18600855166E+03  0.00000000000E+00 0.  1.
         21   -1    0    0  501  502 -0.00000000000E+00 -0.00000000000E+00 -0.29025887948E+03  0.29025887948E+03  0.00000000000E+00 0.  1.
      99926    2    1    2    0    0  0.00000000000E+00  0.00000000000E+00 -0.10425032783E+03  0.47626743114E+03  0.46471769400E+03 0.  0.
      99925    2    3    3    0    0 -0.86707827928E+02  0.84846299315E+02 -0.79130010117E+02  0.30021152981E+03  0.26296057156E+03 0.  0.
         25    1    3    3    0    0  0.86707827928E+02 -0.84846299315E+02 -0.25120317711E+02  0.17605590133E+03  0.12509000000E+03 0.  0.
         25    1    4    4    0    0 -0.57275284936E+02  0.14899516369E+02 -0.65994064382E+02  0.15331398660E+03  0.12509000000E+03 0.  0.
         25    1    4    4    0    0 -0.29432542992E+02  0.69946782946E+02 -0.13135945735E+02  0.14689754321E+03  0.12509000000E+03 0.  0.
<mgrwt>
<rscale>  2 0.46471769E+03</rscale>
<asrwt>0</asrwt>
<pdfrwt beam="1">  1       21 0.27354199E-01 0.46471769E+03</pdfrwt>
<pdfrwt beam="2">  1       21 0.42685129E-01 0.46471769E+03</pdfrwt>
<totfact> 0.62048826E+04</totfact>
</mgrwt>
</event>
<event>
 7    0  0.4748297E-002  0.4334553E+03  0.7546771E-02  0.1032774E+00
         21   -1    0    0  502  501  0.00000000000E+00  0.00000000000E+00  0.35706380721E+03  0.35706380721E+03  0.00000000000E+00 0. -1.
         21   -1    0    0  501  502 -0.00000000000E+00 -0.00000000000E+00 -0.13154754006E+03  0.13154754006E+03  0.00000000000E+00 0. -1.
      99926    2    1    2    0    0  0.00000000000E+00  0.00000000000E+00  0.22551626715E+03  0.48861134727E+03  0.43345525943E+03 0.  0.
      99925    2    3    3    0    0 -0.51542946346E+02 -0.60602098235E+02  0.19626028064E+03  0.33750638218E+03  0.26279872645E+03 0.  0.
         25    1    4    4    0    0 -0.63102521921E+02 -0.48106097460E+02  0.11236871075E+03  0.18593106287E+03  0.12509000000E+03 0.  0.
         25    1    4    4    0    0  0.11559575575E+02 -0.12496000774E+02  0.83891569894E+02  0.15157531930E+03  0.12509000000E+03 0.  0.
         25    1    3    3    0    0  0.51542946346E+02  0.60602098235E+02  0.29255986504E+02  0.15110496509E+03  0.12509000000E+03 0.  0.
<mgrwt>
<rscale>  2 0.43345526E+03</rscale>
<asrwt>0</asrwt>
<pdfrwt beam="1">  1       21 0.52509383E-01 0.43345526E+03</pdfrwt>
<pdfrwt beam="2">  1       21 0.19345227E-01 0.43345526E+03</pdfrwt>
<totfact> 0.78700605E+04</totfact>
</mgrwt>
</event>
<event>
 7    0  0.4748297E-002  0.4537339E+03  0.7546771E-02  0.1026614E+00
         21   -1    0    0  502  501  0.00000000000E+00  0.00000000000E+00  0.35749971891E+03  0.35749971891E+03  0.00000000000E+00 0.  1.
         21   -1    0    0  501  502 -0.00000000000E+00 -0.00000000000E+00 -0.14396824758E+03  0.14396824758E+03  0.00000000000E+00 0.  1.
      99926    2    1    2    0    0 -0.35527136788E-14  0.14210854715E-13  0.21353147133E+03  0.50146796649E+03  0.45373387814E+03 0.  0.
      99925    2    3    3    0    0  0.29829852289E+02 -0.69065497695E+02  0.42695029993E+02  0.27676269097E+03  0.26289704918E+03 0.  0.
         25    1    4    4    0    0 -0.59694383327E+01 -0.45307768347E+02  0.54665070472E+02  0.14395904312E+03  0.12509000000E+03 0.  0.
         25    1    3    3    0    0 -0.29829852289E+02  0.69065497695E+02  0.17083644133E+03  0.22470527552E+03  0.12509000000E+03 0.  0.
         25    1    4    4    0    0  0.35799290622E+02 -0.23757729348E+02 -0.11970040479E+02  0.13280364785E+03  0.12509000000E+03 0.  0.
<mgrwt>
<rscale>  2 0.45373388E+03</rscale>
<asrwt>0</asrwt>
<pdfrwt beam="1">  1       21 0.52573488E-01 0.45373388E+03</pdfrwt>
<pdfrwt beam="2">  1       21 0.21171801E-01 0.45373388E+03</pdfrwt>
<totfact> 0.65826741E+04</totfact>
</mgrwt>
</event>
<event>
 7    0  0.4748297E-002  0.4563005E+03  0.7546771E-02  0.1025860E+00
         21   -1    0    0  502  501  0.00000000000E+00  0.00000000000E+00  0.34041671119E+03  0.34041671119E+03  0.00000000000E+00 0. -1.
         21   -1    0    0  501  502 -0.00000000000E+00 -0.00000000000E+00 -0.15290826308E+03  0.15290826308E+03  0.00000000000E+00 0. -1.
      99926    2    1    2    0    0  0.28421709430E-13 -0.28421709430E-13  0.18750844810E+03  0.49332497427E+03  0.45630046255E+03 0.  0.
      99925    2    3    3    0    0  0.76029417522E+02 -0.84618877662E+02  0.10458664188E+03  0.30500513773E+03  0.26296186339E+03 0.  0.
         25    1    3    3    0    0 -0.76029417522E+02  0.84618877662E+02  0.82921806227E+02  0.18831983654E+03  0.12509000000E+03 0.  0.
         25    1    4    4    0    0  0.70666917034E+02 -0.66835360911E+02  0.42128349209E+02  0.16396061886E+03  0.12509000000E+03 0.  0.
         25    1    4    4    0    0  0.53625004883E+01 -0.17783516751E+02  0.62458292669E+02  0.14104451887E+03  0.12509000000E+03 0.  0.
<mgrwt>
<rscale>  2 0.45630046E+03</rscale>
<asrwt>0</asrwt>
<pdfrwt beam="1">  1       21 0.50061281E-01 0.45630046E+03</pdfrwt>
<pdfrwt beam="2">  1       21 0.22486509E-01 0.45630046E+03</pdfrwt>
<totfact> 0.65067833E+04</totfact>
</mgrwt>
</event>
<event>
 7    0  0.4748297E-002  0.4291051E+03  0.7546771E-02  0.1034143E+00
         21   -1    0    0  502  501  0.00000000000E+00  0.00000000000E+00  0.48060693657E+02  0.48060693657E+02  0.00000000000E+00 0. -1.
         21   -1    0    0  501  502 -0.00000000000E+00 -0.00000000000E+00 -0.95780539732E+03  0.95780539732E+03  0.00000000000E+00 0. -1.
      99926    2    1    2    0    0  0.71054273576E-14 -0.71054273576E-14 -0.90974470366E+03  0.10058660910E+04  0.42910507703E+03 0.  0.
      99925    2    3    3    0    0  0.63740685856E+02  0.58378982497E+02 -0.61300376595E+03  0.67243892825E+03  0.26254430964E+03 0.  0.
         25    1    3    3    0    0 -0.63740685856E+02 -0.58378982497E+02 -0.29674093771E+03  0.33342716273E+03  0.12509000000E+03 0.  0.
         25    1    4    4    0    0  0.49159200174E+02  0.56604097658E+02 -0.38924744418E+03  0.41567021993E+03  0.12509000000E+03 0.  0.
         25    1    4    4    0    0  0.14581485682E+02  0.17748848394E+01 -0.22375632177E+03  0.25676870832E+03  0.12509000000E+03 0.  0.
<mgrwt>
<rscale>  2 0.42910508E+03</rscale>
<asrwt>0</asrwt>
<pdfrwt beam="1">  1       21 0.70677497E-02 0.42910508E+03</pdfrwt>
<pdfrwt beam="2">  1       21 0.14085372E+00 0.42910508E+03</pdfrwt>
<totfact> 0.47920860E+04</totfact>
</mgrwt>
</event>
<event>
 7    0  0.4748297E-002  0.4496391E+03  0.7546771E-02  0.1027830E+00
         21   -1    0    0  502  501  0.00000000000E+00  0.00000000000E+00  0.95004693822E+02  0.95004693822E+02  0.00000000000E+00 0. -1.
         21   -1    0    0  501  502 -0.00000000000E+00 -0.00000000000E+00 -0.53201414457E+03  0.53201414457E+03  0.00000000000E+00 0. -1.
      99926    2    1    2    0    0  0.00000000000E+00  0.00000000000E+00 -0.43700945075E+03  0.62701883839E+03  0.44963914827E+03 0.  0.
      99925    2    3    3    0    0  0.60812366937E+02 -0.42680410434E+02 -0.16718839023E+03  0.32047247288E+03  0.26311762891E+03 0.  0.
         25    1    4    4    0    0 -0.66783947138E+01 -0.12708184559E+01 -0.80644801838E+02  0.14898761056E+03  0.12509000000E+03 0.  0.
         25    1    4    4    0    0  0.67490761651E+02 -0.41409591978E+02 -0.86543588390E+02  0.17148486233E+03  0.12509000000E+03 0.  0.
         25    1    3    3    0    0 -0.60812366937E+02  0.42680410434E+02 -0.26982106052E+03  0.30654636551E+03  0.12509000000E+03 0.  0.
<mgrwt>
<rscale>  2 0.44963915E+03</rscale>
<asrwt>0</asrwt>
<pdfrwt beam="1">  1       21 0.13971279E-01 0.44963915E+03</pdfrwt>
<pdfrwt beam="2">  1       21 0.78237372E-01 0.44963915E+03</pdfrwt>
<totfact> 0.59524705E+04</totfact>
</mgrwt>
</event>
<event>
 7    0  0.4748297E-002  0.4457222E+03  0.7546771E-02  0.1029005E+00
         21   -1    0    0  502  501  0.00000000000E+00  0.00000000000E+00  0.37167975140E+03  0.37167975140E+03  0.00000000000E+00 0.  1.
         21   -1    0    0  501  502 -0.00000000000E+00 -0.00000000000E+00 -0.13362863981E+03  0.13362863981E+03  0.00000000000E+00 0.  1.
      99926    2    1    2    0    0  0.00000000000E+00  0.71054273576E-14  0.23805111160E+03  0.50530839121E+03  0.44572215392E+03 0.  0.
      99925    2    3    3    0    0  0.13214550924E+02  0.50763543965E+02  0.25317713071E+03  0.36882444964E+03  0.26302329438E+03 0.  0.
         25    1    3    3    0    0 -0.13214550924E+02 -0.50763543965E+02 -0.15126019116E+02  0.13648394157E+03  0.12509000000E+03 0.  0.
         25    1    4    4    0    0  0.63981591948E+01  0.64025731224E+02  0.15330454345E+03  0.20806254311E+03  0.12509000000E+03 0.  0.
         25    1    4    4    0    0  0.68163917291E+01 -0.13262187258E+02  0.99872587260E+02  0.16076190654E+03  0.12509000000E+03 0.  0.
<mgrwt>
<rscale>  2 0.44572215E+03</rscale>
<asrwt>0</asrwt>
<pdfrwt beam="1">  1       21 0.54658787E-01 0.44572215E+03</pdfrwt>
<pdfrwt beam="2">  1       21 0.19651271E-01 0.44572215E+03</pdfrwt>
<totfact> 0.69906462E+04</totfact>
</mgrwt>
</event>
<event>
 7    0  0.4748297E-002  0.4551688E+03  0.7546771E-02  0.1026192E+00
         21   -1    0    0  502  501  0.00000000000E+00  0.00000000000E+00  0.88859584571E+02  0.88859584571E+02  0.00000000000E+00 0. -1.
         21   -1    0    0  501  502 -0.00000000000E+00 -0.00000000000E+00 -0.58288219537E+03  0.58288219537E+03  0.00000000000E+00 0. -1.
      99926    2    1    2    0    0  0.00000000000E+00  0.00000000000E+00 -0.49402261080E+03  0.67174177994E+03  0.45516884662E+03 0.  0.
      99925    2    3    3    0    0  0.97037307921E+02 -0.25019456975E+02 -0.38897632750E+03  0.48010555662E+03  0.26297632932E+03 0.  0.
         25    1    4    4    0    0  0.67208114207E+02 -0.38904603386E+02 -0.16238394154E+03  0.21919523569E+03  0.12509000000E+03 0.  0.
         25    1    3    3    0    0 -0.97037307921E+02  0.25019456975E+02 -0.10504628330E+03  0.19163622333E+03  0.12509000000E+03 0.  0.
         25    1    4    4    0    0  0.29829193714E+02  0.13885146412E+02 -0.22659238597E+03  0.26091032093E+03  0.12509000000E+03 0.  0.
<mgrwt>
<rscale>  2 0.45516885E+03</rscale>
<asrwt>0</asrwt>
<pdfrwt beam="1">  1       21 0.13067586E-01 0.45516885E+03</pdfrwt>
<pdfrwt beam="2">  1       21 0.85717968E-01 0.45516885E+03</pdfrwt>
<totfact> 0.54391966E+04</totfact>
</mgrwt>
</event>
<event>
 7    0  0.4748297E-002  0.4000054E+03  0.7546771E-02  0.1043778E+00
         21   -1    0    0  502  501  0.00000000000E+00  0.00000000000E+00  0.29335986822E+03  0.29335986822E+03  0.00000000000E+00 0. -1.
         21   -1    0    0  501  502 -0.00000000000E+00 -0.00000000000E+00 -0.13635499252E+03  0.13635499252E+03  0.00000000000E+00 0. -1.
      99926    2    1    2    0    0  0.71054273576E-14  0.35527136788E-14  0.15700487570E+03  0.42971486074E+03  0.40000541315E+03 0.  0.
      99925    2    3    3    0    0 -0.40641603153E+02  0.22266925094E+02  0.10722764549E+03  0.28733214898E+03  0.26251559958E+03 0.  0.
         25    1    4    4    0    0  0.60662130282E+01  0.40619899440E-01  0.21398882909E+02  0.12705204005E+03  0.12509000000E+03 0.  0.
         25    1    4    4    0    0 -0.46707816181E+02  0.22226305194E+02  0.85828762580E+02  0.16028010894E+03  0.12509000000E+03 0.  0.
         25    1    3    3    0    0  0.40641603153E+02 -0.22266925094E+02  0.49777230207E+02  0.14238271176E+03  0.12509000000E+03 0.  0.
<mgrwt>
<rscale>  2 0.40000541E+03</rscale>
<asrwt>0</asrwt>
<pdfrwt beam="1">  1       21 0.43141157E-01 0.40000541E+03</pdfrwt>
<pdfrwt beam="2">  1       21 0.20052205E-01 0.40000541E+03</pdfrwt>
<totfact> 0.11201804E+05</totfact>
</mgrwt>
</event>
<event>
 7    0  0.4748297E-002  0.4586524E+03  0.7546771E-02  0.1025173E+00
         21   -1    0    0  502  501  0.00000000000E+00  0.00000000000E+00  0.11040831208E+04  0.11040831208E+04  0.00000000000E+00 0. -1.
         21   -1    0    0  501  502 -0.00000000000E+00 -0.00000000000E+00 -0.47632738264E+02  0.47632738264E+02  0.00000000000E+00 0. -1.
      99926    2    1    2    0    0  0.00000000000E+00  0.00000000000E+00  0.10564503826E+04  0.11517158591E+04  0.45865238391E+03 0.  0.
      99925    2    3    3    0    0  0.56276853177E+01  0.11370451420E+03  0.60106566780E+03  0.66593490647E+03  0.26311399670E+03 0.  0.
         25    1    3    3    0    0 -0.56276853177E+01 -0.11370451420E+03  0.45538471477E+03  0.48578095262E+03  0.12509000000E+03 0.  0.
         25    1    4    4    0    0  0.22914204703E+02  0.18612200194E+02  0.26164291801E+03  0.29150643118E+03  0.12509000000E+03 0.  0.
         25    1    4    4    0    0 -0.17286519385E+02  0.95092314002E+02  0.33942274979E+03  0.37442847529E+03  0.12509000000E+03 0.  0.
<mgrwt>
<rscale>  2 0.45865238E+03</rscale>
<asrwt>0</asrwt>
<pdfrwt beam="1">  1       21 0.16236515E+00 0.45865238E+03</pdfrwt>
<pdfrwt beam="2">  1       21 0.70048152E-02 0.45865238E+03</pdfrwt>
<totfact> 0.32782001E+04</totfact>
</mgrwt>
</event>
<event>
 7    0  0.4748297E-002  0.4550307E+03  0.7546771E-02  0.1026232E+00
         21   -1    0    0  502  501  0.00000000000E+00  0.00000000000E+00  0.42510305683E+02  0.42510305683E+02  0.00000000000E+00 0.  1.
         21   -1    0    0  501  502 -0.00000000000E+00 -0.00000000000E+00 -0.12176632457E+04  0.12176632457E+04  0.00000000000E+00 0.  1.
      99926    2    1    2    0    0  0.00000000000E+00  0.00000000000E+00 -0.11751529400E+04  0.12601735514E+04  0.45503071014E+03 0.  0.
      99925    2    3    3    0    0  0.44866269187E+02 -0.89529463563E+02 -0.88564431115E+03  0.92927891370E+03  0.26299229384E+03 0.  0.
         25    1    4    4    0    0  0.48649321832E+02 -0.13455773291E+02 -0.41439222362E+03  0.43579380153E+03  0.12509000000E+03 0.  0.
         25    1    4    4    0    0 -0.37830526451E+01 -0.76073690272E+02 -0.47125208752E+03  0.49348511217E+03  0.12509000000E+03 0.  0.
         25    1    3    3    0    0 -0.44866269187E+02  0.89529463563E+02 -0.28950862885E+03  0.33089463767E+03  0.12509000000E+03 0.  0.
<mgrwt>
<rscale>  2 0.45503071E+03</rscale>
<asrwt>0</asrwt>
<pdfrwt beam="1">  1       21 0.62515160E-02 0.45503071E+03</pdfrwt>
<pdfrwt beam="2">  1       21 0.17906811E+00 0.45503071E+03</pdfrwt>
<totfact> 0.30286377E+04</totfact>
</mgrwt>
</event>
<event>
 7    0  0.4748297E-002  0.4745346E+03  0.7546771E-02  0.1020648E+00
         21   -1    0    0  502  501  0.00000000000E+00  0.00000000000E+00  0.78585369315E+03  0.78585369315E+03  0.00000000000E+00 0. -1.
         21   -1    0    0  501  502 -0.00000000000E+00 -0.00000000000E+00 -0.71636442967E+02  0.71636442967E+02  0.00000000000E+00 0. -1.
      99926    2    1    2    0    0  0.00000000000E+00  0.71054273576E-14  0.71421725018E+03  0.85749013612E+03  0.47453456468E+03 0.  0.
      99925    2    3    3    0    0  0.78515658248E+02 -0.63552632563E+02  0.29229291504E+03  0.40596904206E+03  0.26300583498E+03 0.  0.
         25    1    3    3    0    0 -0.78515658248E+02  0.63552632563E+02  0.42192433514E+03  0.45152109406E+03  0.12509000000E+03 0.  0.
         25    1    4    4    0    0  0.54061010703E+02 -0.46684200019E+02  0.20506808383E+03  0.25060413907E+03  0.12509000000E+03 0.  0.
         25    1    4    4    0    0  0.24454647545E+02 -0.16868432544E+02  0.87224831211E+02  0.15536490300E+03  0.12509000000E+03 0.  0.
<mgrwt>
<rscale>  2 0.47453456E+03</rscale>
<asrwt>0</asrwt>
<pdfrwt beam="1">  1       21 0.11556671E+00 0.47453456E+03</pdfrwt>
<pdfrwt beam="2">  1       21 0.10534771E-01 0.47453456E+03</pdfrwt>
<totfact> 0.38808604E+04</totfact>
</mgrwt>
</event>
<event>
 7    0  0.4748297E-002  0.4641923E+03  0.7546771E-02  0.1023572E+00
         21   -1    0    0  502  501  0.00000000000E+00  0.00000000000E+00  0.86518225746E+02  0.86518225746E+02  0.00000000000E+00 0.  1.
         21   -1    0    0  501  502 -0.00000000000E+00 -0.00000000000E+00 -0.62262733741E+03  0.62262733741E+03  0.00000000000E+00 0.  1.
      99926    2    1    2    0    0  0.00000000000E+00  0.14210854715E-13 -0.53610911166E+03  0.70914556316E+03  0.46419225557E+03 0.  0.
      99925    2    3    3    0    0  0.10116857219E+03 -0.67336150027E+02 -0.32898128391E+03  0.43837133575E+03  0.26300476372E+03 0.  0.
         25    1    3    3    0    0 -0.10116857219E+03  0.67336150027E+02 -0.20712782775E+03  0.27077422741E+03  0.12509000000E+03 0.  0.
         25    1    4    4    0    0  0.61345132070E+02  0.31188864789E+01 -0.13769095787E+03  0.19590625478E+03  0.12509000000E+03 0.  0.
         25    1    4    4    0    0  0.39823440122E+02 -0.70455036506E+02 -0.19129032604E+03  0.24246508097E+03  0.12509000000E+03 0.  0.
<mgrwt>
<rscale>  2 0.46419226E+03</rscale>
<asrwt>0</asrwt>
<pdfrwt beam="1">  1       21 0.12723268E-01 0.46419226E+03</pdfrwt>
<pdfrwt beam="2">  1       21 0.91562846E-01 0.46419226E+03</pdfrwt>
<totfact> 0.48783993E+04</totfact>
</mgrwt>
</event>
<event>
 7    0  0.4748297E-002  0.4584446E+03  0.7546771E-02  0.1025233E+00
         21   -1    0    0  502  501  0.00000000000E+00  0.00000000000E+00  0.34952966003E+02  0.34952966003E+02  0.00000000000E+00 0. -1.
         21   -1    0    0  501  502 -0.00000000000E+00 -0.00000000000E+00 -0.15032447226E+04  0.15032447226E+04  0.00000000000E+00 0. -1.
      99926    2    1    2    0    0  0.00000000000E+00  0.00000000000E+00 -0.14682917566E+04  0.15381976886E+04  0.45844459505E+03 0.  0.
      99925    2    3    3    0    0  0.78957954778E+02  0.70193436030E+02 -0.75522472498E+03  0.80657375736E+03  0.26274581588E+03 0.  0.
         25    1    4    4    0    0  0.53049416316E+01  0.86119428121E+01 -0.33183578397E+03  0.35477429950E+03  0.12509000000E+03 0.  0.
         25    1    4    4    0    0  0.73653013147E+02  0.61581493218E+02 -0.42338894101E+03  0.45179945786E+03  0.12509000000E+03 0.  0.
         25    1    3    3    0    0 -0.78957954778E+02 -0.70193436030E+02 -0.71306703162E+03  0.73162393125E+03  0.12509000000E+03 0.  0.
<mgrwt>
<rscale>  2 0.45844460E+03</rscale>
<asrwt>0</asrwt>
<pdfrwt beam="1">  1       21 0.51401423E-02 0.45844460E+03</pdfrwt>
<pdfrwt beam="2">  1       21 0.22106539E+00 0.45844460E+03</pdfrwt>
<totfact> 0.22256900E+04</totfact>
</mgrwt>
</event>
<event>
 7    0  0.4748297E-002  0.4554300E+03  0.7546771E-02  0.1026115E+00
         21   -1    0    0  502  501  0.00000000000E+00  0.00000000000E+00  0.89948273138E+02  0.89948273138E+02  0.00000000000E+00 0. -1.
         21   -1    0    0  501  502 -0.00000000000E+00 -0.00000000000E+00 -0.57648817057E+03  0.57648817057E+03  0.00000000000E+00 0. -1.
      99926    2    1    2    0    0 -0.71054273576E-14  0.00000000000E+00 -0.48653989743E+03  0.66643644371E+03  0.45542997454E+03 0.  0.
      99925    2    3    3    0    0  0.38261642836E+02 -0.10069383780E+03 -0.25295015193E+03  0.38040343934E+03  0.26290643776E+03 0.  0.
         25    1    4    4    0    0  0.41923825929E+02 -0.63811224760E+02 -0.91262650433E+02  0.17264373446E+03  0.12509000000E+03 0.  0.
         25    1    4    4    0    0 -0.36621830926E+01 -0.36882613041E+02 -0.16168750150E+03  0.20775970488E+03  0.12509000000E+03 0.  0.
         25    1    3    3    0    0 -0.38261642836E+02  0.10069383780E+03 -0.23358974550E+03  0.28603300437E+03  0.12509000000E+03 0.  0.
<mgrwt>
<rscale>  2 0.45542997E+03</rscale>
<asrwt>0</asrwt>
<pdfrwt beam="1">  1       21 0.13227688E-01 0.45542997E+03</pdfrwt>
<pdfrwt beam="2">  1       21 0.84777670E-01 0.45542997E+03</pdfrwt>
<totfact> 0.54578032E+04</totfact>
</mgrwt>
</event>
<event>
 7    0  0.4748297E-002  0.4509615E+03  0.7546771E-02  0.1027436E+00
         21   -1    0    0  502  501  0.00000000000E+00  0.00000000000E+00  0.75663773773E+02  0.75663773773E+02  0.00000000000E+00 0.  1.
         21   -1    0    0  501  502 -0.00000000000E+00 -0.00000000000E+00 -0.67194068568E+03  0.67194068568E+03  0.00000000000E+00 0.  1.
      99926    2    1    2    0    0  0.00000000000E+00  0.00000000000E+00 -0.59627691191E+03  0.74760445945E+03  0.45096149738E+03 0.  0.
      99925    2    3    3    0    0 -0.71625593500E+02 -0.24855803636E+02 -0.24604129722E+03  0.36805139265E+03  0.26301610422E+03 0.  0.
         25    1    4    4    0    0 -0.63765703078E+02 -0.29243568287E+02 -0.16553477301E+03  0.21902173488E+03  0.12509000000E+03 0.  0.
         25    1    4    4    0    0 -0.78598904216E+01  0.43877646510E+01 -0.80506524206E+02  0.14902965777E+03  0.12509000000E+03 0.  0.
         25    1    3    3    0    0  0.71625593500E+02  0.24855803636E+02 -0.35023561469E+03  0.37955306680E+03  0.12509000000E+03 0.  0.
<mgrwt>
<rscale>  2 0.45096150E+03</rscale>
<asrwt>0</asrwt>
<pdfrwt beam="1">  1       21 0.11127026E-01 0.45096150E+03</pdfrwt>
<pdfrwt beam="2">  1       21 0.98814805E-01 0.45096150E+03</pdfrwt>
<totfact> 0.52025211E+04</totfact>
</mgrwt>
</event>
<event>
 7    0  0.4748297E-002  0.4354072E+03  0.7546771E-02  0.1032165E+00
         21   -1    0    0  502  501  0.00000000000E+00  0.00000000000E+00  0.11658884952E+03  0.11658884952E+03  0.00000000000E+00 0. -1.
         21   -1    0    0  501  502 -0.00000000000E+00 -0.00000000000E+00 -0.40651285653E+03  0.40651285653E+03  0.00000000000E+00 0. -1.
      99926    2    1    2    0    0  0.00000000000E+00  0.00000000000E+00 -0.28992400701E+03  0.52310170605E+03  0.43540724044E+03 0.  0.
      99925    2    3    3    0    0  0.30596947954E+02  0.12940127819E+02 -0.29111395608E+03  0.39367008622E+03  0.26291668116E+03 0.  0.
         25    1    4    4    0    0  0.48964378884E+02  0.29322841616E+02 -0.14840649933E+03  0.20231000119E+03  0.12509000000E+03 0.  0.
         25    1    3    3    0    0 -0.30596947954E+02 -0.12940127819E+02  0.11899490691E+01  0.12943161983E+03  0.12509000000E+03 0.  0.
         25    1    4    4    0    0 -0.18367430931E+02 -0.16382713798E+02 -0.14270745675E+03  0.19136008503E+03  0.12509000000E+03 0.  0.
<mgrwt>
<rscale>  2 0.43540724E+03</rscale>
<asrwt>0</asrwt>
<pdfrwt beam="1">  1       21 0.17145419E-01 0.43540724E+03</pdfrwt>
<pdfrwt beam="2">  1       21 0.59781302E-01 0.43540724E+03</pdfrwt>
<totfact> 0.74594791E+04</totfact>
</mgrwt>
</event>
<event>
 7    0  0.4748297E-002  0.4863055E+03  0.7546771E-02  0.1017416E+00
         21   -1    0    0  502  501  0.00000000000E+00  0.00000000000E+00  0.20532480430E+03  0.20532480430E+03  0.00000000000E+00 0. -1.
         21   -1    0    0  501  502 -0.00000000000E+00 -0.00000000000E+00 -0.28794989910E+03  0.28794989910E+03  0.00000000000E+00 0. -1.
      99926    2    1    2    0    0 -0.14210854715E-13  0.77715611724E-15 -0.82625094797E+02  0.49327470341E+03  0.48630548705E+03 0.  0.
      99925    2    3    3    0    0 -0.11362116490E+03 -0.27628280238E+00  0.33210909450E+02  0.28839587721E+03  0.26298169525E+03 0.  0.
         25    1    4    4    0    0 -0.10016058976E+03  0.56203700297E+01  0.13527542047E+02  0.16091685678E+03  0.12509000000E+03 0.  0.
         25    1    3    3    0    0  0.11362116490E+03  0.27628280238E+00 -0.11583600425E+03  0.20487882620E+03  0.12509000000E+03 0.  0.
         25    1    4    4    0    0 -0.13460575138E+02 -0.58966528321E+01  0.19683367404E+02  0.12747902043E+03  0.12509000000E+03 0.  0.
<mgrwt>
<rscale>  2 0.48630549E+03</rscale>
<asrwt>0</asrwt>
<pdfrwt beam="1">  1       21 0.30194824E-01 0.48630549E+03</pdfrwt>
<pdfrwt beam="2">  1       21 0.42345573E-01 0.48630549E+03</pdfrwt>
<totfact> 0.51658253E+04</totfact>
</mgrwt>
</event>
<event>
 7    0  0.4748297E-002  0.4635750E+03  0.7546771E-02  0.1023749E+00
         21   -1    0    0  502  501  0.00000000000E+00  0.00000000000E+00  0.31992220177E+03  0.31992220177E+03  0.00000000000E+00 0. -1.
         21   -1    0    0  501  502 -0.00000000000E+00 -0.00000000000E+00 -0.16793287153E+03  0.16793287153E+03  0.00000000000E+00 0. -1.
      99926    2    1    2    0    0  0.00000000000E+00  0.00000000000E+00  0.15198933024E+03  0.48785507330E+03  0.46357503819E+03 0.  0.
      99925    2    3    3    0    0  0.36114135543E+02  0.11490643356E+03  0.82319104626E+02  0.30074770386E+03  0.26299244691E+03 0.  0.
         25    1    3    3    0    0 -0.36114135543E+02 -0.11490643356E+03  0.69670225611E+02  0.18710736943E+03  0.12509000000E+03 0.  0.
         25    1    4    4    0    0  0.51720899721E+02  0.34334244784E+02  0.40682023997E+02  0.14545249056E+03  0.12509000000E+03 0.  0.
         25    1    4    4    0    0 -0.15606764179E+02  0.80572188777E+02  0.41637080629E+02  0.15529521331E+03  0.12509000000E+03 0.  0.
<mgrwt>
<rscale>  2 0.46357504E+03</rscale>
<asrwt>0</asrwt>
<pdfrwt beam="1">  1       21 0.47047383E-01 0.46357504E+03</pdfrwt>
<pdfrwt beam="2">  1       21 0.24696010E-01 0.46357504E+03</pdfrwt>
<totfact> 0.61816464E+04</totfact>
</mgrwt>
</event>
<event>
 7    0  0.4748297E-002  0.4533712E+03  0.7546771E-02  0.1026721E+00
         21   -1    0    0  502  501  0.00000000000E+00  0.00000000000E+00  0.20070593377E+04  0.20070593377E+04  0.00000000000E+00 0. -1.
         21   -1    0    0  501  502 -0.00000000000E+00 -0.00000000000E+00 -0.25602805578E+02  0.25602805578E+02  0.00000000000E+00 0. -1.
      99926    2    1    2    0    0  0.00000000000E+00  0.14210854715E-13  0.19814565321E+04  0.20326621432E+04  0.45337115041E+03 0.  0.
      99925    2    3    3    0    0 -0.21437995550E+02 -0.10210521378E+03  0.10691077091E+04  0.11058865796E+04  0.26288547145E+03 0.  0.
         25    1    3    3    0    0  0.21437995550E+02  0.10210521378E+03  0.91234882304E+03  0.92677556362E+03  0.12509000000E+03 0.  0.
         25    1    4    4    0    0 -0.16966825551E+02 -0.74864670409E+02  0.69886743536E+03  0.71411189064E+03  0.12509000000E+03 0.  0.
         25    1    4    4    0    0 -0.44711699995E+01 -0.27240543366E+02  0.37024027370E+03  0.39177468899E+03  0.12509000000E+03 0.  0.
<mgrwt>
<rscale>  2 0.45337115E+03</rscale>
<asrwt>0</asrwt>
<pdfrwt beam="1">  1       21 0.29515568E+00 0.45337115E+03</pdfrwt>
<pdfrwt beam="2">  1       21 0.37651198E-02 0.45337115E+03</pdfrwt>
<totfact> 0.13351761E+04</totfact>
</mgrwt>
</event>
<event>
 7    0  0.4748297E-002  0.4534864E+03  0.7546771E-02  0.1026687E+00
         21   -1    0    0  502  501  0.00000000000E+00  0.00000000000E+00  0.10286177693E+03  0.10286177693E+03  0.00000000000E+00 0.  1.
         21   -1    0    0  501  502 -0.00000000000E+00 -0.00000000000E+00 -0.49982111659E+03  0.49982111659E+03  0.00000000000E+00 0.  1.
      99926    2    1    2    0    0 -0.14210854715E-13  0.00000000000E+00 -0.39695933966E+03  0.60268289352E+03  0.45348644170E+03 0.  0.
      99925    2    3    3    0    0 -0.81242377586E+02  0.30113963319E+02 -0.15605929968E+03  0.31774866942E+03  0.26287361450E+03 0.  0.
         25    1    4    4    0    0 -0.53500197691E+02  0.53269055981E+02 -0.73242433441E+02  0.16343752823E+03  0.12509000000E+03 0.  0.
         25    1    4    4    0    0 -0.27742179894E+02 -0.23155092662E+02 -0.82816866241E+02  0.15431114119E+03  0.12509000000E+03 0.  0.
         25    1    3    3    0    0  0.81242377586E+02 -0.30113963319E+02 -0.24090003998E+03  0.28493422410E+03  0.12509000000E+03 0.  0.
<mgrwt>
<rscale>  2 0.45348644E+03</rscale>
<asrwt>0</asrwt>
<pdfrwt beam="1">  1       21 0.15126732E-01 0.45348644E+03</pdfrwt>
<pdfrwt beam="2">  1       21 0.73503103E-01 0.45348644E+03</pdfrwt>
<totfact> 0.59218395E+04</totfact>
</mgrwt>
</event>
<event>
 7    0  0.4748297E-002  0.4476225E+03  0.7546771E-02  0.1028433E+00
         21   -1    0    0  502  501  0.00000000000E+00  0.00000000000E+00  0.89424865769E+02  0.89424865769E+02  0.00000000000E+00 0. -1.
         21   -1    0    0  501  502 -0.00000000000E+00 -0.00000000000E+00 -0.56015159252E+03  0.56015159252E+03  0.00000000000E+00 0. -1.
      99926    2    1    2    0    0  0.00000000000E+00  0.00000000000E+00 -0.47072672675E+03  0.64957645829E+03  0.44762252388E+03 0.  0.
      99925    2    3    3    0    0  0.69845874334E+02  0.73410874792E+02 -0.34423677247E+03  0.44484536800E+03  0.26290843122E+03 0.  0.
         25    1    3    3    0    0 -0.69845874334E+02 -0.73410874792E+02 -0.12648995428E+03  0.20473109029E+03  0.12509000000E+03 0.  0.
         25    1    4    4    0    0  0.91537772058E+01  0.51314714384E+02 -0.12538550966E+03  0.18462401166E+03  0.12509000000E+03 0.  0.
         25    1    4    4    0    0  0.60692097128E+02  0.22096160408E+02 -0.21885126281E+03  0.26022135633E+03  0.12509000000E+03 0.  0.
<mgrwt>
<rscale>  2 0.44762252E+03</rscale>
<asrwt>0</asrwt>
<pdfrwt beam="1">  1       21 0.13150716E-01 0.44762252E+03</pdfrwt>
<pdfrwt beam="2">  1       21 0.82375233E-01 0.44762252E+03</pdfrwt>
<totfact> 0.59090467E+04</totfact>
</mgrwt>
</event>
<event>
 7    0  0.4748297E-002  0.4405892E+03  0.7546771E-02  0.1030566E+00
         21   -1    0    0  502  501  0.00000000000E+00  0.00000000000E+00  0.36102523503E+03  0.36102523503E+03  0.00000000000E+00 0.  1.
         21   -1    0    0  501  502 -0.00000000000E+00 -0.00000000000E+00 -0.13442194442E+03  0.13442194442E+03  0.00000000000E+00 0.  1.
      99926    2    1    2    0    0  0.71054273576E-14 -0.14210854715E-13  0.22660329060E+03  0.49544717945E+03  0.44058921493E+03 0.  0.
      99925    2    3    3    0    0  0.50247433346E+02 -0.84540378766E+02  0.15762891382E+03  0.32202038523E+03  0.26301782038E+03 0.  0.
         25    1    4    4    0    0  0.45364458513E+02 -0.80357715682E+02  0.82931309836E+02  0.17618287890E+03  0.12509000000E+03 0.  0.
         25    1    3    3    0    0 -0.50247433346E+02  0.84540378766E+02  0.68974376785E+02  0.17342679422E+03  0.12509000000E+03 0.  0.
         25    1    4    4    0    0  0.48829748335E+01 -0.41826630837E+01  0.74697603982E+02  0.14583750634E+03  0.12509000000E+03 0.  0.
<mgrwt>
<rscale>  2 0.44058921E+03</rscale>
<asrwt>0</asrwt>
<pdfrwt beam="1">  1       21 0.53091946E-01 0.44058921E+03</pdfrwt>
<pdfrwt beam="2">  1       21 0.19767933E-01 0.44058921E+03</pdfrwt>
<totfact> 0.73663946E+04</totfact>
</mgrwt>
</event>
<event>
 7    0  0.4748297E-002  0.4494398E+03  0.7546771E-02  0.1027889E+00
         21   -1    0    0  502  501  0.00000000000E+00  0.00000000000E+00  0.32840266187E+03  0.32840266187E+03  0.00000000000E+00 0.  1.
         21   -1    0    0  501  502 -0.00000000000E+00 -0.00000000000E+00 -0.15377171464E+03  0.15377171464E+03  0.00000000000E+00 0.  1.
      99926    2    1    2    0    0 -0.71054273576E-14  0.00000000000E+00  0.17463094723E+03  0.48217437652E+03  0.44943983094E+03 0.  0.
      99925    2    3    3    0    0  0.62053467316E+02  0.87325607278E+02  0.11793744337E+03  0.30799614604E+03  0.26358298681E+03 0.  0.
         25    1    4    4    0    0  0.61652916834E+02  0.46649472119E+02  0.30887384951E+02  0.15026241730E+03  0.12509000000E+03 0.  0.
         25    1    4    4    0    0  0.40055048179E+00  0.40676135159E+02  0.87050058416E+02  0.15773372874E+03  0.12509000000E+03 0.  0.
         25    1    3    3    0    0 -0.62053467316E+02 -0.87325607278E+02  0.56693503859E+02  0.17417823048E+03  0.12509000000E+03 0.  0.
<mgrwt>
<rscale>  2 0.44943983E+03</rscale>
<asrwt>0</asrwt>
<pdfrwt beam="1">  1       21 0.48294509E-01 0.44943983E+03</pdfrwt>
<pdfrwt beam="2">  1       21 0.22613487E-01 0.44943983E+03</pdfrwt>
<totfact> 0.69562220E+04</totfact>
</mgrwt>
</event>
<event>
 7    0  0.4748297E-002  0.4475771E+03  0.7546771E-02  0.1028447E+00
         21   -1    0    0  502  501  0.00000000000E+00  0.00000000000E+00  0.30191071730E+03  0.30191071730E+03  0.00000000000E+00 0. -1.
         21   -1    0    0  501  502 -0.00000000000E+00 -0.00000000000E+00 -0.16588121025E+03  0.16588121025E+03  0.00000000000E+00 0. -1.
      99926    2    1    2    0    0  0.00000000000E+00  0.00000000000E+00  0.13602950705E+03  0.46779192755E+03  0.44757710027E+03 0.  0.
      99925    2    3    3    0    0 -0.84240763105E+02 -0.64496390483E+02  0.84856002549E+02  0.29597072334E+03  0.26294835491E+03 0.  0.
         25    1    4    4    0    0 -0.23356080630E+02 -0.45614647305E+02  0.76502698216E+02  0.15532666701E+03  0.12509000000E+03 0.  0.
         25    1    4    4    0    0 -0.60884682475E+02 -0.18881743179E+02  0.83533043330E+01  0.14064405632E+03  0.12509000000E+03 0.  0.
         25    1    3    3    0    0  0.84240763105E+02  0.64496390483E+02  0.51173504501E+02  0.17182120421E+03  0.12509000000E+03 0.  0.
<mgrwt>
<rscale>  2 0.44757710E+03</rscale>
<asrwt>0</asrwt>
<pdfrwt beam="1">  1       21 0.44398635E-01 0.44757710E+03</pdfrwt>
<pdfrwt beam="2">  1       21 0.24394296E-01 0.44757710E+03</pdfrwt>
<totfact> 0.71732828E+04</totfact>
</mgrwt>
</event>
<event>
 7    0  0.4748297E-002  0.4531396E+03  0.7546771E-02  0.1026790E+00
         21   -1    0    0  502  501  0.00000000000E+00  0.00000000000E+00  0.82567504254E+03  0.82567504254E+03  0.00000000000E+00 0.  1.
         21   -1    0    0  501  502 -0.00000000000E+00 -0.00000000000E+00 -0.62172003158E+02  0.62172003158E+02  0.00000000000E+00 0.  1.
      99926    2    1    2    0    0  0.71054273576E-14  0.00000000000E+00  0.76350303938E+03  0.88784704570E+03  0.45313958711E+03 0.  0.
      99925    2    3    3    0    0 -0.51554565509E+02 -0.97822212910E+02  0.50856258159E+03  0.58310255652E+03  0.26295557318E+03 0.  0.
         25    1    4    4    0    0 -0.58481032905E+02 -0.25043760477E+02  0.25474555018E+03  0.29084364285E+03  0.12509000000E+03 0.  0.
         25    1    4    4    0    0  0.69264673955E+01 -0.72778452433E+02  0.25381703141E+03  0.29225891367E+03  0.12509000000E+03 0.  0.
         25    1    3    3    0    0  0.51554565509E+02  0.97822212910E+02  0.25494045780E+03  0.30474448918E+03  0.12509000000E+03 0.  0.
<mgrwt>
<rscale>  2 0.45313959E+03</rscale>
<asrwt>0</asrwt>
<pdfrwt beam="1">  1       21 0.12142279E+00 0.45313959E+03</pdfrwt>
<pdfrwt beam="2">  1       21 0.91429421E-02 0.45313959E+03</pdfrwt>
<totfact> 0.44406742E+04</totfact>
</mgrwt>
</event>
<event>
 7    0  0.4748297E-002  0.4552923E+03  0.7546771E-02  0.1026155E+00
         21   -1    0    0  502  501  0.00000000000E+00  0.00000000000E+00  0.61529915801E+03  0.61529915801E+03  0.00000000000E+00 0.  1.
         21   -1    0    0  501  502 -0.00000000000E+00 -0.00000000000E+00 -0.84223707678E+02  0.84223707678E+02  0.00000000000E+00 0.  1.
      99926    2    1    2    0    0 -0.71054273576E-14  0.00000000000E+00  0.53107545033E+03  0.69952286569E+03  0.45529232991E+03 0.  0.
      99925    2    3    3    0    0 -0.41588089925E+02  0.56324692158E+02  0.19705671836E+03  0.33604238261E+03  0.26304199757E+03 0.  0.
         25    1    4    4    0    0 -0.19679367528E+02  0.56446898303E+02  0.13929143560E+03  0.19652771297E+03  0.12509000000E+03 0.  0.
         25    1    3    3    0    0  0.41588089925E+02 -0.56324692158E+02  0.33401873198E+03  0.36348048308E+03  0.12509000000E+03 0.  0.
         25    1    4    4    0    0 -0.21908722398E+02 -0.12220614541E+00  0.57765282757E+02  0.13951466964E+03  0.12509000000E+03 0.  0.
<mgrwt>
<rscale>  2 0.45529233E+03</rscale>
<asrwt>0</asrwt>
<pdfrwt beam="1">  1       21 0.90485168E-01 0.45529233E+03</pdfrwt>
<pdfrwt beam="2">  1       21 0.12385840E-01 0.45529233E+03</pdfrwt>
<totfact> 0.52807278E+04</totfact>
</mgrwt>
</event>
<event>
 7    0  0.4748297E-002  0.4479696E+03  0.7546771E-02  0.1028329E+00
         21   -1    0    0  502  501  0.00000000000E+00  0.00000000000E+00  0.33567441234E+02  0.33567441234E+02  0.00000000000E+00 0.  1.
         21   -1    0    0  501  502 -0.00000000000E+00 -0.00000000000E+00 -0.14945788026E+04  0.14945788026E+04  0.00000000000E+00 0.  1.
      99926    2    1    2    0    0  0.00000000000E+00 -0.62172489379E-14 -0.14610113613E+04  0.15281462438E+04  0.44796957988E+03 0.  0.
      99925    2    3    3    0    0  0.50726841808E+02 -0.75047725048E+01 -0.12441519776E+04  0.12725977464E+04  0.26260492530E+03 0.  0.
         25    1    3    3    0    0 -0.50726841808E+02  0.75047725048E+01 -0.21685938374E+03  0.25554849737E+03  0.12509000000E+03 0.  0.
         25    1    4    4    0    0  0.30350742883E+02 -0.43395639781E+02 -0.63532969453E+03  0.64968890863E+03  0.12509000000E+03 0.  0.
         25    1    4    4    0    0  0.20376098925E+02  0.35890867276E+02 -0.60882228305E+03  0.62290883780E+03  0.12509000000E+03 0.  0.
<mgrwt>
<rscale>  2 0.44796958E+03</rscale>
<asrwt>0</asrwt>
<pdfrwt beam="1">  1       21 0.49363897E-02 0.44796958E+03</pdfrwt>
<pdfrwt beam="2">  1       21 0.21979094E+00 0.44796958E+03</pdfrwt>
<totfact> 0.24403239E+04</totfact>
</mgrwt>
</event>
<event>
 7    0  0.4748297E-002  0.4503588E+03  0.7546771E-02  0.1027615E+00
         21   -1    0    0  502  501  0.00000000000E+00  0.00000000000E+00  0.60707260374E+02  0.60707260374E+02  0.00000000000E+00 0.  1.
         21   -1    0    0  501  502 -0.00000000000E+00 -0.00000000000E+00 -0.83525028900E+03  0.83525028900E+03  0.00000000000E+00 0.  1.
      99926    2    1    2    0    0  0.14210854715E-13  0.71054273576E-14 -0.77454302862E+03  0.89595754937E+03  0.45035877596E+03 0.  0.
      99925    2    3    3    0    0  0.95002282721E+02  0.49834724269E+02 -0.52453391945E+03  0.59652308870E+03  0.26304948059E+03 0.  0.
         25    1    3    3    0    0 -0.95002282721E+02 -0.49834724269E+02 -0.25000910918E+03  0.29943446067E+03  0.12509000000E+03 0.  0.
         25    1    4    4    0    0  0.36352308590E+02  0.33037093464E+02 -0.33842028370E+03  0.36412736288E+03  0.12509000000E+03 0.  0.
         25    1    4    4    0    0  0.58649974131E+02  0.16797630805E+02 -0.18611363575E+03  0.23239572582E+03  0.12509000000E+03 0.  0.
<mgrwt>
<rscale>  2 0.45035878E+03</rscale>
<asrwt>0</asrwt>
<pdfrwt beam="1">  1       21 0.89275385E-02 0.45035878E+03</pdfrwt>
<pdfrwt beam="2">  1       21 0.12283092E+00 0.45035878E+03</pdfrwt>
<totfact> 0.45022907E+04</totfact>
</mgrwt>
</event>
<event>
 7    0  0.4748297E-002  0.4500520E+03  0.7546771E-02  0.1027707E+00
         21   -1    0    0  502  501  0.00000000000E+00  0.00000000000E+00  0.28081827499E+03  0.28081827499E+03  0.00000000000E+00 0.  1.
         21   -1    0    0  501  502 -0.00000000000E+00 -0.00000000000E+00 -0.18031840019E+03  0.18031840019E+03  0.00000000000E+00 0.  1.
      99926    2    1    2    0    0  0.00000000000E+00  0.00000000000E+00  0.10049987480E+03  0.46113667519E+03  0.45005200629E+03 0.  0.
      99925    2    3    3    0    0 -0.95346480267E+02  0.45118144833E+01  0.11640896647E+03  0.30298511792E+03  0.26294034767E+03 0.  0.
         25    1    3    3    0    0  0.95346480267E+02 -0.45118144833E+01 -0.15909091671E+02  0.15815155727E+03  0.12509000000E+03 0.  0.
         25    1    4    4    0    0 -0.30059201286E+02 -0.26719196836E+02  0.30600341940E+02  0.13491241636E+03  0.12509000000E+03 0.  0.
         25    1    4    4    0    0 -0.65287278980E+02  0.31231011319E+02  0.85808624529E+02  0.16807270156E+03  0.12509000000E+03 0.  0.
<mgrwt>
<rscale>  2 0.45005201E+03</rscale>
<asrwt>0</asrwt>
<pdfrwt beam="1">  1       21 0.41296805E-01 0.45005201E+03</pdfrwt>
<pdfrwt beam="2">  1       21 0.26517412E-01 0.45005201E+03</pdfrwt>
<totfact> 0.70840813E+04</totfact>
</mgrwt>
</event>
<event>
 7    0  0.4748297E-002  0.4567440E+03  0.7546771E-02  0.1025730E+00
         21   -1    0    0  502  501  0.00000000000E+00  0.00000000000E+00  0.37206131497E+03  0.37206131497E+03  0.00000000000E+00 0. -1.
         21   -1    0    0  501  502 -0.00000000000E+00 -0.00000000000E+00 -0.14017519222E+03  0.14017519222E+03  0.00000000000E+00 0. -1.
      99926    2    1    2    0    0  0.14210854715E-13  0.00000000000E+00  0.23188612275E+03  0.51223650719E+03  0.45674398231E+03 0.  0.
      99925    2    3    3    0    0 -0.86441077613E+02  0.74070770816E+02  0.16237230205E+03  0.32937530749E+03  0.26299199555E+03 0.  0.
         25    1    4    4    0    0 -0.15401730485E+02  0.25530634688E+02  0.10858193745E+03  0.16830499651E+03  0.12509000000E+03 0.  0.
         25    1    4    4    0    0 -0.71039347128E+02  0.48540136128E+02  0.53790364590E+02  0.16107031098E+03  0.12509000000E+03 0.  0.
         25    1    3    3    0    0  0.86441077613E+02 -0.74070770816E+02  0.69513820702E+02  0.18286119970E+03  0.12509000000E+03 0.  0.
<mgrwt>
<rscale>  2 0.45674398E+03</rscale>
<asrwt>0</asrwt>
<pdfrwt beam="1">  1       21 0.54714899E-01 0.45674398E+03</pdfrwt>
<pdfrwt beam="2">  1       21 0.20613999E-01 0.45674398E+03</pdfrwt>
<totfact> 0.63535368E+04</totfact>
</mgrwt>
</event>
<event>
 7    0  0.4748297E-002  0.4822691E+03  0.7546771E-02  0.1018513E+00
         21   -1    0    0  502  501  0.00000000000E+00  0.00000000000E+00  0.59687793165E+03  0.59687793165E+03  0.00000000000E+00 0. -1.
         21   -1    0    0  501  502 -0.00000000000E+00 -0.00000000000E+00 -0.97416682961E+02  0.97416682961E+02  0.00000000000E+00 0. -1.
      99926    2    1    2    0    0  0.00000000000E+00  0.00000000000E+00  0.49946124869E+03  0.69429461461E+03  0.48226908768E+03 0.  0.
      99925    2    3    3    0    0  0.35852701879E+02  0.47219917374E+02  0.12881228919E+03  0.29863908754E+03  0.26282610587E+03 0.  0.
         25    1    4    4    0    0 -0.21354483188E+02  0.23444107179E+02  0.73331772962E+02  0.14842741371E+03  0.12509000000E+03 0.  0.
         25    1    4    4    0    0  0.57207185067E+02  0.23775810195E+02  0.55480516232E+02  0.15021167383E+03  0.12509000000E+03 0.  0.
         25    1    3    3    0    0 -0.35852701879E+02 -0.47219917374E+02  0.37064895949E+03  0.39565552707E+03  0.12509000000E+03 0.  0.
<mgrwt>
<rscale>  2 0.48226909E+03</rscale>
<asrwt>0</asrwt>
<pdfrwt beam="1">  1       21 0.87776164E-01 0.48226909E+03</pdfrwt>
<pdfrwt beam="2">  1       21 0.14325983E-01 0.48226909E+03</pdfrwt>
<totfact> 0.43166539E+04</totfact>
</mgrwt>
</event>
<event>
 7    0  0.4748297E-002  0.4575932E+03  0.7546771E-02  0.1025482E+00
         21   -1    0    0  502  501  0.00000000000E+00  0.00000000000E+00  0.16652811945E+03  0.16652811945E+03  0.00000000000E+00 0.  1.
         21   -1    0    0  501  502 -0.00000000000E+00 -0.00000000000E+00 -0.31434866580E+03  0.31434866580E+03  0.00000000000E+00 0.  1.
      99926    2    1    2    0    0  0.00000000000E+00  0.35527136788E-14 -0.14782054635E+03  0.48087678525E+03  0.45759323495E+03 0.  0.
      99925    2    3    3    0    0  0.79872690341E+02  0.27324928276E+02 -0.97415372372E+01  0.27632943321E+03  0.26293869959E+03 0.  0.
         25    1    4    4    0    0  0.62550603145E+02  0.11047062107E+02 -0.39141446533E+02  0.14565087185E+03  0.12509000000E+03 0.  0.
         25    1    4    4    0    0  0.17322087196E+02  0.16277866169E+02  0.29399909296E+02  0.13067856136E+03  0.12509000000E+03 0.  0.
         25    1    3    3    0    0 -0.79872690341E+02 -0.27324928276E+02 -0.13807900912E+03  0.20454735204E+03  0.12509000000E+03 0.  0.
<mgrwt>
<rscale>  2 0.45759323E+03</rscale>
<asrwt>0</asrwt>
<pdfrwt beam="1">  1       21 0.24489430E-01 0.45759323E+03</pdfrwt>
<pdfrwt beam="2">  1       21 0.46227744E-01 0.45759323E+03</pdfrwt>
<totfact> 0.65282227E+04</totfact>
</mgrwt>
</event>
<event>
 7    0  0.4748297E-002  0.4526144E+03  0.7546771E-02  0.1026945E+00
         21   -1    0    0  502  501  0.00000000000E+00  0.00000000000E+00  0.59510650872E+03  0.59510650872E+03  0.00000000000E+00 0. -1.
         21   -1    0    0  501  502 -0.00000000000E+00 -0.00000000000E+00 -0.86060150095E+02  0.86060150095E+02  0.00000000000E+00 0. -1.
      99926    2    1    2    0    0  0.00000000000E+00  0.00000000000E+00  0.50904635862E+03  0.68116665881E+03  0.45261442956E+03 0.  0.
      99925    2    3    3    0    0  0.83561951644E+02  0.72911459519E+02  0.32950301670E+03  0.43584645903E+03  0.26285208225E+03 0.  0.
         25    1    3    3    0    0 -0.83561951644E+02 -0.72911459519E+02  0.17954334192E+03  0.24532019978E+03  0.12509000000E+03 0.  0.
         25    1    4    4    0    0  0.29619827207E+02  0.75133829994E+02  0.17911953026E+03  0.23292432418E+03  0.12509000000E+03 0.  0.
         25    1    4    4    0    0  0.53942124437E+02 -0.22223704756E+01  0.15038348643E+03  0.20292213485E+03  0.12509000000E+03 0.  0.
<mgrwt>
<rscale>  2 0.45261443E+03</rscale>
<asrwt>0</asrwt>
<pdfrwt beam="1">  1       21 0.87515661E-01 0.45261443E+03</pdfrwt>
<pdfrwt beam="2">  1       21 0.12655905E-01 0.45261443E+03</pdfrwt>
<totfact> 0.54962986E+04</totfact>
</mgrwt>
</event>
<event>
 7    0  0.4748297E-002  0.4575016E+03  0.7546771E-02  0.1025508E+00
         21   -1    0    0  502  501  0.00000000000E+00  0.00000000000E+00  0.43976004240E+03  0.43976004240E+03  0.00000000000E+00 0. -1.
         21   -1    0    0  501  502 -0.00000000000E+00 -0.00000000000E+00 -0.11898970534E+03  0.11898970534E+03  0.00000000000E+00 0. -1.
      99926    2    1    2    0    0  0.00000000000E+00  0.00000000000E+00  0.32077033706E+03  0.55874974774E+03  0.45750155350E+03 0.  0.
      99925    2    3    3    0    0 -0.10445524156E+03 -0.47442616424E+02  0.21772106481E+03  0.36018399049E+03  0.26299875589E+03 0.  0.
         25    1    4    4    0    0 -0.20538542391E+02 -0.19277177142E+02  0.13440972031E+03  0.18576038947E+03  0.12509000000E+03 0.  0.
         25    1    4    4    0    0 -0.83916699166E+02 -0.28165439282E+02  0.83311344505E+02  0.17442360102E+03  0.12509000000E+03 0.  0.
         25    1    3    3    0    0  0.10445524156E+03  0.47442616424E+02  0.10304927224E+03  0.19856575725E+03  0.12509000000E+03 0.  0.
<mgrwt>
<rscale>  2 0.45750155E+03</rscale>
<asrwt>0</asrwt>
<pdfrwt beam="1">  1       21 0.64670594E-01 0.45750155E+03</pdfrwt>
<pdfrwt beam="2">  1       21 0.17498486E-01 0.45750155E+03</pdfrwt>
<totfact> 0.60094016E+04</totfact>
</mgrwt>
</event>
<event>
 7    0  0.4748297E-002  0.4626662E+03  0.7546771E-02  0.1024011E+00
         21   -1    0    0  502  501  0.00000000000E+00  0.00000000000E+00  0.71658030404E+02  0.71658030404E+02  0.00000000000E+00 0.  1.
         21   -1    0    0  501  502 -0.00000000000E+00 -0.00000000000E+00 -0.74681106561E+03  0.74681106561E+03  0.00000000000E+00 0.  1.
      99926    2    1    2    0    0 -0.14210854715E-13 -0.44408920985E-15 -0.67515303521E+03  0.81846909602E+03  0.46266622978E+03 0.  0.
      99925    2    3    3    0    0 -0.10009068424E+03  0.33846906065E+00 -0.30380053003E+03  0.41403312972E+03  0.26288859014E+03 0.  0.
         25    1    4    4    0    0 -0.67298904707E+02  0.30120968652E+02 -0.12654370591E+03  0.19260641976E+03  0.12509000000E+03 0.  0.
         25    1    4    4    0    0 -0.32791779530E+02 -0.29782499591E+02 -0.17725682412E+03  0.22142670996E+03  0.12509000000E+03 0.  0.
         25    1    3    3    0    0  0.10009068424E+03 -0.33846906065E+00 -0.37135250517E+03  0.40443596629E+03  0.12509000000E+03 0.  0.
<mgrwt>
<rscale>  2 0.46266623E+03</rscale>
<asrwt>0</asrwt>
<pdfrwt beam="1">  1       21 0.10537946E-01 0.46266623E+03</pdfrwt>
<pdfrwt beam="2">  1       21 0.10982515E+00 0.46266623E+03</pdfrwt>
<totfact> 0.44167009E+04</totfact>
</mgrwt>
</event>
<event>
 7    0  0.4748297E-002  0.4545544E+03  0.7546771E-02  0.1026373E+00
         21   -1    0    0  502  501  0.00000000000E+00  0.00000000000E+00  0.17500317826E+04  0.17500317826E+04  0.00000000000E+00 0. -1.
         21   -1    0    0  501  502 -0.00000000000E+00 -0.00000000000E+00 -0.29516564005E+02  0.29516564005E+02  0.00000000000E+00 0. -1.
      99926    2    1    2    0    0  0.71054273576E-14  0.35527136788E-14  0.17205152186E+04  0.17795483466E+04  0.45455439772E+03 0.  0.
      99925    2    3    3    0    0 -0.47706541349E+02 -0.66724097013E+01  0.68407324279E+03  0.73447422844E+03  0.26301284305E+03 0.  0.
         25    1    4    4    0    0 -0.19300318948E+00  0.30011433004E+02  0.32995897472E+03  0.35414849492E+03  0.12509000000E+03 0.  0.
         25    1    4    4    0    0 -0.47513538159E+02 -0.36683842706E+02  0.35411426807E+03  0.38032573352E+03  0.12509000000E+03 0.  0.
         25    1    3    3    0    0  0.47706541349E+02  0.66724097013E+01  0.10364419758E+04  0.10450741181E+04  0.12509000000E+03 0.  0.
<mgrwt>
<rscale>  2 0.45455440E+03</rscale>
<asrwt>0</asrwt>
<pdfrwt beam="1">  1       21 0.25735755E+00 0.45455440E+03</pdfrwt>
<pdfrwt beam="2">  1       21 0.43406724E-02 0.45455440E+03</pdfrwt>
<totfact> 0.17716964E+04</totfact>
</mgrwt>
</event>
<event>
 7    0  0.4748297E-002  0.4602017E+03  0.7546771E-02  0.1024723E+00
         21   -1    0    0  502  501  0.00000000000E+00  0.00000000000E+00  0.43995624516E+03  0.43995624516E+03  0.00000000000E+00 0. -1.
         21   -1    0    0  501  502 -0.00000000000E+00 -0.00000000000E+00 -0.12034471314E+03  0.12034471314E+03  0.00000000000E+00 0. -1.
      99926    2    1    2    0    0 -0.14210854715E-13  0.71054273576E-14  0.31961153202E+03  0.56030095830E+03  0.46020173019E+03 0.  0.
      99925    2    3    3    0    0 -0.98851845041E+02 -0.53952544298E+02  0.24264152083E+03  0.37522136724E+03  0.26312278977E+03 0.  0.
         25    1    3    3    0    0  0.98851845041E+02  0.53952544298E+02  0.76970011189E+02  0.18507959106E+03  0.12509000000E+03 0.  0.
         25    1    4    4    0    0 -0.33116275527E+02  0.12543488897E+02  0.10753116256E+03  0.16871421351E+03  0.12509000000E+03 0.  0.
         25    1    4    4    0    0 -0.65735569514E+02 -0.66496033195E+02  0.13511035827E+03  0.20650715373E+03  0.12509000000E+03 0.  0.
<mgrwt>
<rscale>  2 0.46020173E+03</rscale>
<asrwt>0</asrwt>
<pdfrwt beam="1">  1       21 0.64699447E-01 0.46020173E+03</pdfrwt>
<pdfrwt beam="2">  1       21 0.17697752E-01 0.46020173E+03</pdfrwt>
<totfact> 0.58736606E+04</totfact>
</mgrwt>
</event>
<event>
 7    0  0.4748297E-002  0.4538889E+03  0.7546771E-02  0.1026569E+00
         21   -1    0    0  502  501  0.00000000000E+00  0.00000000000E+00  0.44357213796E+03  0.44357213796E+03  0.00000000000E+00 0. -1.
         21   -1    0    0  501  502 -0.00000000000E+00 -0.00000000000E+00 -0.11611138672E+03  0.11611138672E+03  0.00000000000E+00 0. -1.
      99926    2    1    2    0    0  0.35527136788E-14  0.35527136788E-14  0.32746075124E+03  0.55968352468E+03  0.45388886767E+03 0.  0.
      99925    2    3    3    0    0 -0.30491785506E+02 -0.29373266244E+02  0.78238210329E+02  0.27763402414E+03  0.26299600007E+03 0.  0.
         25    1    4    4    0    0 -0.32887828831E+02 -0.51397330711E+02  0.35999727807E+02  0.14375946366E+03  0.12509000000E+03 0.  0.
         25    1    3    3    0    0  0.30491785506E+02  0.29373266244E+02  0.24922254091E+03  0.28204950054E+03  0.12509000000E+03 0.  0.
         25    1    4    4    0    0  0.23960433254E+01  0.22024064466E+02  0.42238482521E+02  0.13387456048E+03  0.12509000000E+03 0.  0.
<mgrwt>
<rscale>  2 0.45388887E+03</rscale>
<asrwt>0</asrwt>
<pdfrwt beam="1">  1       21 0.65231196E-01 0.45388887E+03</pdfrwt>
<pdfrwt beam="2">  1       21 0.17075204E-01 0.45388887E+03</pdfrwt>
<totfact> 0.61772244E+04</totfact>
</mgrwt>
</event>
<event>
 7    0  0.4748297E-002  0.4545316E+03  0.7546771E-02  0.1026379E+00
         21   -1    0    0  502  501  0.00000000000E+00  0.00000000000E+00  0.23240674784E+03  0.23240674784E+03  0.00000000000E+00 0. -1.
         21   -1    0    0  501  502 -0.00000000000E+00 -0.00000000000E+00 -0.22223853479E+03  0.22223853479E+03  0.00000000000E+00 0. -1.
      99926    2    1    2    0    0  0.00000000000E+00  0.00000000000E+00  0.10168213052E+02  0.45464528263E+03  0.45453156157E+03 0.  0.
      99925    2    3    3    0    0 -0.68550602089E+02  0.45743456798E+02 -0.70591899669E+02  0.28446492891E+03  0.26295518742E+03 0.  0.
         25    1    3    3    0    0  0.68550602089E+02 -0.45743456798E+02  0.80760112720E+02  0.17018035372E+03  0.12509000000E+03 0.  0.
         25    1    4    4    0    0 -0.49290689145E+02  0.60611359846E+02 -0.47602089636E+02  0.15497346875E+03  0.12509000000E+03 0.  0.
         25    1    4    4    0    0 -0.19259912943E+02 -0.14867903048E+02 -0.22989810032E+02  0.12949146015E+03  0.12509000000E+03 0.  0.
<mgrwt>
<rscale>  2 0.45453156E+03</rscale>
<asrwt>0</asrwt>
<pdfrwt beam="1">  1       21 0.34177463E-01 0.45453156E+03</pdfrwt>
<pdfrwt beam="2">  1       21 0.32682138E-01 0.45453156E+03</pdfrwt>
<totfact> 0.68828689E+04</totfact>
</mgrwt>
</event>
<event>
 7    0  0.4748297E-002  0.4448171E+03  0.7546771E-02  0.1029279E+00
         21   -1    0    0  502  501  0.00000000000E+00  0.00000000000E+00  0.70479909253E+03  0.70479909253E+03  0.00000000000E+00 0.  1.
         21   -1    0    0  501  502 -0.00000000000E+00 -0.00000000000E+00 -0.70183904642E+02  0.70183904642E+02  0.00000000000E+00 0.  1.
      99926    2    1    2    0    0  0.00000000000E+00  0.00000000000E+00  0.63461518789E+03  0.77498299718E+03  0.44481705139E+03 0.  0.
      99925    2    3    3    0    0 -0.65878433000E+02 -0.34642470031E+02  0.52800694484E+03  0.59455879079E+03  0.26299953087E+03 0.  0.
         25    1    3    3    0    0  0.65878433000E+02  0.34642470031E+02  0.10660824305E+03  0.18042420639E+03  0.12509000000E+03 0.  0.
         25    1    4    4    0    0 -0.12810384470E+02 -0.12505415243E+02  0.17666431668E+03  0.21720561744E+03  0.12509000000E+03 0.  0.
         25    1    4    4    0    0 -0.53068048529E+02 -0.22137054788E+02  0.35134262817E+03  0.37735317335E+03  0.12509000000E+03 0.  0.
<mgrwt>
<rscale>  2 0.44481705E+03</rscale>
<asrwt>0</asrwt>
<pdfrwt beam="1">  1       21 0.10364692E+00 0.44481705E+03</pdfrwt>
<pdfrwt beam="2">  1       21 0.10321163E-01 0.44481705E+03</pdfrwt>
<totfact> 0.53119120E+04</totfact>
</mgrwt>
</event>
<event>
 7    0  0.4748297E-002  0.4666762E+03  0.7546771E-02  0.1022863E+00
         21   -1    0    0  502  501  0.00000000000E+00  0.00000000000E+00  0.14234584456E+03  0.14234584456E+03  0.00000000000E+00 0. -1.
         21   -1    0    0  501  502 -0.00000000000E+00 -0.00000000000E+00 -0.38249566142E+03  0.38249566142E+03  0.00000000000E+00 0. -1.
      99926    2    1    2    0    0  0.00000000000E+00  0.00000000000E+00 -0.24014981687E+03  0.52484150598E+03  0.46667619594E+03 0.  0.
      99925    2    3    3    0    0 -0.71754758239E+02 -0.14873161331E+02 -0.26179590797E+03  0.37826041027E+03  0.26300928556E+03 0.  0.
         25    1    4    4    0    0 -0.18357157865E+02 -0.66717972100E+01 -0.17753521120E+03  0.21805448273E+03  0.12509000000E+03 0.  0.
         25    1    4    4    0    0 -0.53397600375E+02 -0.82013641213E+01 -0.84260696774E+02  0.16020592754E+03  0.12509000000E+03 0.  0.
         25    1    3    3    0    0  0.71754758239E+02  0.14873161331E+02  0.21646091107E+02  0.14658109571E+03  0.12509000000E+03 0.  0.
<mgrwt>
<rscale>  2 0.46667620E+03</rscale>
<asrwt>0</asrwt>
<pdfrwt beam="1">  1       21 0.20933213E-01 0.46667620E+03</pdfrwt>
<pdfrwt beam="2">  1       21 0.56249362E-01 0.46667620E+03</pdfrwt>
<totfact> 0.57996482E+04</totfact>
</mgrwt>
</event>
<event>
 7    0  0.4748297E-002  0.4541641E+03  0.7546771E-02  0.1026488E+00
         21   -1    0    0  502  501  0.00000000000E+00  0.00000000000E+00  0.11926317845E+03  0.11926317845E+03  0.00000000000E+00 0.  1.
         21   -1    0    0  501  502 -0.00000000000E+00 -0.00000000000E+00 -0.43237357560E+03  0.43237357560E+03  0.00000000000E+00 0.  1.
      99926    2    1    2    0    0  0.00000000000E+00  0.00000000000E+00 -0.31311039715E+03  0.55163675406E+03  0.45416405364E+03 0.  0.
      99925    2    3    3    0    0 -0.29077997013E+02  0.35314613933E+02 -0.32188514994E+03  0.41815583312E+03  0.26296691646E+03 0.  0.
         25    1    4    4    0    0  0.16101968578E+02  0.44039545768E+02 -0.16480836666E+03  0.21215103301E+03  0.12509000000E+03 0.  0.
         25    1    4    4    0    0 -0.45179965590E+02 -0.87249318343E+01 -0.15707678327E+03  0.20600480011E+03  0.12509000000E+03 0.  0.
         25    1    3    3    0    0  0.29077997013E+02 -0.35314613933E+02  0.87747527873E+01  0.13348092094E+03  0.12509000000E+03 0.  0.
<mgrwt>
<rscale>  2 0.45416405E+03</rscale>
<asrwt>0</asrwt>
<pdfrwt beam="1">  1       21 0.17538703E-01 0.45416405E+03</pdfrwt>
<pdfrwt beam="2">  1       21 0.63584350E-01 0.45416405E+03</pdfrwt>
<totfact> 0.62168625E+04</totfact>
</mgrwt>
</event>
<event>
 7    0  0.4748297E-002  0.4540306E+03  0.7546771E-02  0.1026527E+00
         21   -1    0    0  502  501  0.00000000000E+00  0.00000000000E+00  0.46592183704E+02  0.46592183704E+02  0.00000000000E+00 0. -1.
         21   -1    0    0  501  502 -0.00000000000E+00 -0.00000000000E+00 -0.11061070054E+04  0.11061070054E+04  0.00000000000E+00 0. -1.
      99926    2    1    2    0    0 -0.71054273576E-14  0.17763568394E-14 -0.10595148217E+04  0.11526991891E+04  0.45403057515E+03 0.  0.
      99925    2    3    3    0    0 -0.36758043752E+02 -0.14493813921E+02 -0.40060002505E+03  0.48085289585E+03  0.26301692522E+03 0.  0.
         25    1    4    4    0    0 -0.55575486493E+02  0.57048264735E+01 -0.22639406313E+03  0.26461851724E+03  0.12509000000E+03 0.  0.
         25    1    3    3    0    0  0.36758043752E+02  0.14493813921E+02 -0.65891479667E+03  0.67184629328E+03  0.12509000000E+03 0.  0.
         25    1    4    4    0    0  0.18817442742E+02 -0.20198640395E+02 -0.17420596191E+03  0.21623437861E+03  0.12509000000E+03 0.  0.
<mgrwt>
<rscale>  2 0.45403058E+03</rscale>
<asrwt>0</asrwt>
<pdfrwt beam="1">  1       21 0.68517912E-02 0.45403058E+03</pdfrwt>
<pdfrwt beam="2">  1       21 0.16266281E+00 0.45403058E+03</pdfrwt>
<totfact> 0.33948129E+04</totfact>
</mgrwt>
</event>
<event>
 7    0  0.4748297E-002  0.4410945E+03  0.7546771E-02  0.1030412E+00
         21   -1    0    0  502  501  0.00000000000E+00  0.00000000000E+00  0.45661312247E+02  0.45661312247E+02  0.00000000000E+00 0. -1.
         21   -1    0    0  501  502 -0.00000000000E+00 -0.00000000000E+00 -0.10652582910E+04  0.10652582910E+04  0.00000000000E+00 0. -1.
      99926    2    1    2    0    0  0.14210854715E-13  0.00000000000E+00 -0.10195969788E+04  0.11109196033E+04  0.44109450892E+03 0.  0.
      99925    2    3    3    0    0  0.95816825763E+02 -0.27415260928E+02 -0.64120922458E+03  0.70011884711E+03  0.26283962747E+03 0.  0.
         25    1    4    4    0    0  0.29603247765E+02  0.20645039872E+02 -0.26346745060E+03  0.29387952561E+03  0.12509000000E+03 0.  0.
         25    1    4    4    0    0  0.66213577998E+02 -0.48060300800E+02 -0.37774177398E+03  0.40623932150E+03  0.12509000000E+03 0.  0.
         25    1    3    3    0    0 -0.95816825763E+02  0.27415260928E+02 -0.37838775419E+03  0.41080075614E+03  0.12509000000E+03 0.  0.
<mgrwt>
<rscale>  2 0.44109451E+03</rscale>
<asrwt>0</asrwt>
<pdfrwt beam="1">  1       21 0.67148998E-02 0.44109451E+03</pdfrwt>
<pdfrwt beam="2">  1       21 0.15665561E+00 0.44109451E+03</pdfrwt>
<totfact> 0.39194388E+04</totfact>
</mgrwt>
</event>
<event>
 7    0  0.4748297E-002  0.4458847E+03  0.7546771E-02  0.1028956E+00
         21   -1    0    0  502  501  0.00000000000E+00  0.00000000000E+00  0.44719201288E+03  0.44719201288E+03  0.00000000000E+00 0. -1.
         21   -1    0    0  501  502 -0.00000000000E+00 -0.00000000000E+00 -0.11114528252E+03  0.11114528252E+03  0.00000000000E+00 0. -1.
      99926    2    1    2    0    0  0.71054273576E-14  0.00000000000E+00  0.33604673036E+03  0.55833729540E+03  0.44588466048E+03 0.  0.
      99925    2    3    3    0    0 -0.48849861751E+02 -0.73082170687E+02  0.28369161631E+03  0.39673321522E+03  0.26303801669E+03 0.  0.
         25    1    3    3    0    0  0.48849861751E+02  0.73082170687E+02  0.52355114051E+02  0.16160408019E+03  0.12509000000E+03 0.  0.
         25    1    4    4    0    0  0.62739628250E+01 -0.37182695843E+02  0.97722621362E+02  0.16315371374E+03  0.12509000000E+03 0.  0.
         25    1    4    4    0    0 -0.55123824576E+02 -0.35899474845E+02  0.18596899495E+03  0.23357950148E+03  0.12509000000E+03 0.  0.
<mgrwt>
<rscale>  2 0.44588466E+03</rscale>
<asrwt>0</asrwt>
<pdfrwt beam="1">  1       21 0.65763531E-01 0.44588466E+03</pdfrwt>
<pdfrwt beam="2">  1       21 0.16344895E-01 0.44588466E+03</pdfrwt>
<totfact> 0.65946810E+04</totfact>
</mgrwt>
</event>
<event>
 7    0  0.4748297E-002  0.4556331E+03  0.7546771E-02  0.1026055E+00
         21   -1    0    0  502  501  0.00000000000E+00  0.00000000000E+00  0.13537867078E+03  0.13537867078E+03  0.00000000000E+00 0.  1.
         21   -1    0    0  501  502 -0.00000000000E+00 -0.00000000000E+00 -0.38337184219E+03  0.38337184219E+03  0.00000000000E+00 0.  1.
      99926    2    1    2    0    0  0.00000000000E+00 -0.17763568394E-14 -0.24799317141E+03  0.51875051297E+03  0.45563305591E+03 0.  0.
      99925    2    3    3    0    0  0.40097987825E+02  0.12414701181E+02 -0.35667458886E+02  0.26876713406E+03  0.26306202936E+03 0.  0.
         25    1    4    4    0    0 -0.19530340520E+01  0.15234176719E+02 -0.50843155657E+02  0.13589859845E+03  0.12509000000E+03 0.  0.
         25    1    3    3    0    0 -0.40097987825E+02 -0.12414701181E+02 -0.21232571252E+03  0.24998337891E+03  0.12509000000E+03 0.  0.
         25    1    4    4    0    0  0.42051021877E+02 -0.28194755378E+01  0.15175696771E+02  0.13286853561E+03  0.12509000000E+03 0.  0.
<mgrwt>
<rscale>  2 0.45563306E+03</rscale>
<asrwt>0</asrwt>
<pdfrwt beam="1">  1       21 0.19908628E-01 0.45563306E+03</pdfrwt>
<pdfrwt beam="2">  1       21 0.56378212E-01 0.45563306E+03</pdfrwt>
<totfact> 0.63652168E+04</totfact>
</mgrwt>
</event>
<event>
 7    0  0.4748297E-002  0.4623959E+03  0.7546771E-02  0.1024089E+00
         21   -1    0    0  502  501  0.00000000000E+00  0.00000000000E+00  0.22871246195E+03  0.22871246195E+03  0.00000000000E+00 0. -1.
         21   -1    0    0  501  502 -0.00000000000E+00 -0.00000000000E+00 -0.23371046031E+03  0.23371046031E+03  0.00000000000E+00 0. -1.
      99926    2    1    2    0    0 -0.35527136788E-14  0.00000000000E+00 -0.49979983542E+01  0.46242292226E+03  0.46239591158E+03 0.  0.
      99925    2    3    3    0    0 -0.18269058354E+02 -0.44316820061E+02 -0.11265130530E+03  0.29056693130E+03  0.26351676597E+03 0.  0.
         25    1    3    3    0    0  0.18269058354E+02  0.44316820061E+02  0.10765330694E+03  0.17185599096E+03  0.12509000000E+03 0.  0.
         25    1    4    4    0    0 -0.24797561183E+02 -0.10959625354E+02 -0.95746668825E+02  0.15984356452E+03  0.12509000000E+03 0.  0.
         25    1    4    4    0    0  0.65285028294E+01 -0.33357194706E+02 -0.16904636472E+02  0.13072336678E+03  0.12509000000E+03 0.  0.
<mgrwt>
<rscale>  2 0.46239591E+03</rscale>
<asrwt>0</asrwt>
<pdfrwt beam="1">  1       21 0.33634186E-01 0.46239591E+03</pdfrwt>
<pdfrwt beam="2">  1       21 0.34369185E-01 0.46239591E+03</pdfrwt>
<totfact> 0.64136210E+04</totfact>
</mgrwt>
</event>
<event>
 7    0  0.4748297E-002  0.4572499E+03  0.7546771E-02  0.1025582E+00
         21   -1    0    0  502  501  0.00000000000E+00  0.00000000000E+00  0.14239332398E+04  0.14239332398E+04  0.00000000000E+00 0.  1.
         21   -1    0    0  501  502 -0.00000000000E+00 -0.00000000000E+00 -0.36707736786E+02  0.36707736786E+02  0.00000000000E+00 0.  1.
      99926    2    1    2    0    0  0.00000000000E+00  0.00000000000E+00  0.13872255030E+04  0.14606409765E+04  0.45724989476E+03 0.  0.
      99925    2    3    3    0    0  0.66221076923E+02 -0.92604706202E+02  0.81319957487E+03  0.86221459271E+03  0.26298211473E+03 0.  0.
         25    1    3    3    0    0 -0.66221076923E+02  0.92604706202E+02  0.57402592810E+03  0.59842638384E+03  0.12509000000E+03 0.  0.
         25    1    4    4    0    0  0.38924999430E+02 -0.42919884953E+02  0.28706507638E+03  0.31845115525E+03  0.12509000000E+03 0.  0.
         25    1    4    4    0    0  0.27296077493E+02 -0.49684821249E+02  0.52613449849E+03  0.54376343745E+03  0.12509000000E+03 0.  0.
<mgrwt>
<rscale>  2 0.45724989E+03</rscale>
<asrwt>0</asrwt>
<pdfrwt beam="1">  1       21 0.20940191E+00 0.45724989E+03</pdfrwt>
<pdfrwt beam="2">  1       21 0.53981975E-02 0.45724989E+03</pdfrwt>
<totfact> 0.24331664E+04</totfact>
</mgrwt>
</event>
<event>
 7    0  0.4748297E-002  0.4040400E+03  0.7546771E-02  0.1042390E+00
         21   -1    0    0  502  501  0.00000000000E+00  0.00000000000E+00  0.21644398750E+02  0.21644398750E+02  0.00000000000E+00 0. -1.
         21   -1    0    0  501  502 -0.00000000000E+00 -0.00000000000E+00 -0.18855719463E+04  0.18855719463E+04  0.00000000000E+00 0. -1.
      99926    2    1    2    0    0  0.00000000000E+00  0.00000000000E+00 -0.18639275476E+04  0.19072163451E+04  0.40403995385E+03 0.  0.
      99925    2    3    3    0    0  0.29650797828E+02  0.43578035271E+02 -0.12328157461E+04  0.12616717463E+04  0.26306409212E+03 0.  0.
         25    1    4    4    0    0 -0.87304128762E+00  0.55669981189E+02 -0.55602208866E+03  0.57263250011E+03  0.12509000000E+03 0.  0.
         25    1    3    3    0    0 -0.29650797828E+02 -0.43578035271E+02 -0.63111180148E+03  0.64554459880E+03  0.12509000000E+03 0.  0.
         25    1    4    4    0    0  0.30523839116E+02 -0.12091945918E+02 -0.67679365743E+03  0.68903924616E+03  0.12509000000E+03 0.  0.
<mgrwt>
<rscale>  2 0.40403995E+03</rscale>
<asrwt>0</asrwt>
<pdfrwt beam="1">  1       21 0.31829991E-02 0.40403995E+03</pdfrwt>
<pdfrwt beam="2">  1       21 0.27729005E+00 0.40403995E+03</pdfrwt>
<totfact> 0.23192115E+04</totfact>
</mgrwt>
</event>
<event>
 7    0  0.4748297E-002  0.4565555E+03  0.7546771E-02  0.1025785E+00
         21   -1    0    0  502  501  0.00000000000E+00  0.00000000000E+00  0.21050099536E+03  0.21050099536E+03  0.00000000000E+00 0. -1.
         21   -1    0    0  501  502 -0.00000000000E+00 -0.00000000000E+00 -0.24755574599E+03  0.24755574599E+03  0.00000000000E+00 0. -1.
      99926    2    1    2    0    0  0.00000000000E+00 -0.35527136788E-14 -0.37054750629E+02  0.45805674135E+03  0.45655549910E+03 0.  0.
      99925    2    3    3    0    0  0.22526460698E+02  0.29408427298E+02 -0.13208948382E+03  0.29665226298E+03  0.26302592338E+03 0.  0.
         25    1    4    4    0    0  0.40287304270E+02  0.37147364094E+02 -0.48323468009E+02  0.14486427857E+03  0.12509000000E+03 0.  0.
         25    1    4    4    0    0 -0.17760843572E+02 -0.77389367960E+01 -0.83766015808E+02  0.15178798441E+03  0.12509000000E+03 0.  0.
         25    1    3    3    0    0 -0.22526460698E+02 -0.29408427298E+02  0.95034733189E+02  0.16140447838E+03  0.12509000000E+03 0.  0.
<mgrwt>
<rscale>  2 0.45655550E+03</rscale>
<asrwt>0</asrwt>
<pdfrwt beam="1">  1       21 0.30956029E-01 0.45655550E+03</pdfrwt>
<pdfrwt beam="2">  1       21 0.36405257E-01 0.45655550E+03</pdfrwt>
<totfact> 0.67481073E+04</totfact>
</mgrwt>
</event>
<event>
 7    0  0.4748297E-002  0.4540239E+03  0.7546771E-02  0.1026529E+00
         21   -1    0    0  502  501  0.00000000000E+00  0.00000000000E+00  0.72742967206E+02  0.72742967206E+02  0.00000000000E+00 0. -1.
         21   -1    0    0  501  502 -0.00000000000E+00 -0.00000000000E+00 -0.70844531571E+03  0.70844531571E+03  0.00000000000E+00 0. -1.
      99926    2    1    2    0    0  0.00000000000E+00  0.88817841970E-15 -0.63570234850E+03  0.78118828291E+03  0.45402385121E+03 0.  0.
      99925    2    3    3    0    0 -0.66772057619E+02 -0.68157499471E+01 -0.55516805213E+03  0.61797601892E+03  0.26301678982E+03 0.  0.
         25    1    4    4    0    0 -0.39419654221E+02  0.74320725838E+01 -0.19205166158E+03  0.23268109863E+03  0.12509000000E+03 0.  0.
         25    1    4    4    0    0 -0.27352403399E+02 -0.14247822531E+02 -0.36311639055E+03  0.38529492029E+03  0.12509000000E+03 0.  0.
         25    1    3    3    0    0  0.66772057619E+02  0.68157499471E+01 -0.80534296371E+02  0.16321226399E+03  0.12509000000E+03 0.  0.
<mgrwt>
<rscale>  2 0.45402385E+03</rscale>
<asrwt>0</asrwt>
<pdfrwt beam="1">  1       21 0.10697495E-01 0.45402385E+03</pdfrwt>
<pdfrwt beam="2">  1       21 0.10418314E+00 0.45402385E+03</pdfrwt>
<totfact> 0.49063045E+04</totfact>
</mgrwt>
</event>
<event>
 7    0  0.4748297E-002  0.4504729E+03  0.7546771E-02  0.1027581E+00
         21   -1    0    0  502  501  0.00000000000E+00  0.00000000000E+00  0.17665172647E+03  0.17665172647E+03  0.00000000000E+00 0.  1.
         21   -1    0    0  501  502 -0.00000000000E+00 -0.00000000000E+00 -0.28718348465E+03  0.28718348465E+03  0.00000000000E+00 0.  1.
      99926    2    1    2    0    0  0.00000000000E+00 -0.35527136788E-14 -0.11053175818E+03  0.46383521113E+03  0.45047289987E+03 0.  0.
      99925    2    3    3    0    0  0.86816741074E+02  0.27041501928E+02 -0.13165488781E+03  0.30775163075E+03  0.26288717616E+03 0.  0.
         25    1    3    3    0    0 -0.86816741074E+02 -0.27041501928E+02  0.21123129625E+02  0.15608358037E+03  0.12509000000E+03 0.  0.
         25    1    4    4    0    0  0.78978752678E+02  0.84083502448E+01 -0.47351861028E+02  0.15555722603E+03  0.12509000000E+03 0.  0.
         25    1    4    4    0    0  0.78379883960E+01  0.18633151683E+02 -0.84303026779E+02  0.15219440472E+03  0.12509000000E+03 0.  0.
<mgrwt>
<rscale>  2 0.45047290E+03</rscale>
<asrwt>0</asrwt>
<pdfrwt beam="1">  1       21 0.25978195E-01 0.45047290E+03</pdfrwt>
<pdfrwt beam="2">  1       21 0.42232865E-01 0.45047290E+03</pdfrwt>
<totfact> 0.70391121E+04</totfact>
</mgrwt>
</event>
<event>
 7    0  0.4748297E-002  0.4511601E+03  0.7546771E-02  0.1027377E+00
         21   -1    0    0  502  501  0.00000000000E+00  0.00000000000E+00  0.16078390949E+04  0.16078390949E+04  0.00000000000E+00 0. -1.
         21   -1    0    0  501  502 -0.00000000000E+00 -0.00000000000E+00 -0.31648918494E+02  0.31648918494E+02  0.00000000000E+00 0. -1.
      99926    2    1    2    0    0  0.00000000000E+00  0.00000000000E+00  0.15761901764E+04  0.16394880134E+04  0.45116014215E+03 0.  0.
      99925    2    3    3    0    0  0.82967045031E+02  0.45970105590E+02  0.11946978634E+04  0.12269584094E+04  0.26292046796E+03 0.  0.
         25    1    4    4    0    0  0.21376838084E+02  0.29139158072E+02  0.42304569371E+03  0.44262989823E+03  0.12509000000E+03 0.  0.
         25    1    3    3    0    0 -0.82967045031E+02 -0.45970105590E+02  0.38149231301E+03  0.41252960398E+03  0.12509000000E+03 0.  0.
         25    1    4    4    0    0  0.61590206948E+02  0.16830947518E+02  0.77165216969E+03  0.78432851120E+03  0.12509000000E+03 0.  0.
<mgrwt>
<rscale>  2 0.45116014E+03</rscale>
<asrwt>0</asrwt>
<pdfrwt beam="1">  1       21 0.23644687E+00 0.45116014E+03</pdfrwt>
<pdfrwt beam="2">  1       21 0.46542538E-02 0.45116014E+03</pdfrwt>
<totfact> 0.21176344E+04</totfact>
</mgrwt>
</event>
<event>
 7    0  0.4748297E-002  0.4545441E+03  0.7546771E-02  0.1026376E+00
         21   -1    0    0  502  501  0.00000000000E+00  0.00000000000E+00  0.92341735629E+03  0.92341735629E+03  0.00000000000E+00 0.  1.
         21   -1    0    0  501  502 -0.00000000000E+00 -0.00000000000E+00 -0.55936342222E+02  0.55936342222E+02  0.00000000000E+00 0.  1.
      99926    2    1    2    0    0  0.00000000000E+00  0.00000000000E+00  0.86748101407E+03  0.97935369851E+03  0.45454412000E+03 0.  0.
      99925    2    3    3    0    0 -0.83493389527E+02 -0.64585769556E+02  0.46209891224E+03  0.54217567493E+03  0.26320446437E+03 0.  0.
         25    1    3    3    0    0  0.83493389527E+02  0.64585769556E+02  0.40538210183E+03  0.43717802358E+03  0.12509000000E+03 0.  0.
         25    1    4    4    0    0 -0.75172989638E+02 -0.11173444821E+02  0.26134759363E+03  0.29954281336E+03  0.12509000000E+03 0.  0.
         25    1    4    4    0    0 -0.83203998896E+01 -0.53412324736E+02  0.20075131861E+03  0.24263286157E+03  0.12509000000E+03 0.  0.
<mgrwt>
<rscale>  2 0.45454412E+03</rscale>
<asrwt>0</asrwt>
<pdfrwt beam="1">  1       21 0.13579666E+00 0.45454412E+03</pdfrwt>
<pdfrwt beam="2">  1       21 0.82259333E-02 0.45454412E+03</pdfrwt>
<totfact> 0.40117150E+04</totfact>
</mgrwt>
</event>
<event>
 7    0  0.4748297E-002  0.4596916E+03  0.7546771E-02  0.1024871E+00
         21   -1    0    0  502  501  0.00000000000E+00  0.00000000000E+00  0.64021572395E+02  0.64021572395E+02  0.00000000000E+00 0.  1.
         21   -1    0    0  501  502 -0.00000000000E+00 -0.00000000000E+00 -0.82517651086E+03  0.82517651086E+03  0.00000000000E+00 0.  1.
      99926    2    1    2    0    0  0.71054273576E-14  0.00000000000E+00 -0.76115493847E+03  0.88919808326E+03  0.45969162589E+03 0.  0.
      99925    2    3    3    0    0  0.62177746140E+02 -0.98725493233E+02 -0.45221013641E+03  0.53605902573E+03  0.26315865266E+03 0.  0.
         25    1    4    4    0    0  0.16282618079E+02 -0.42209630116E+02 -0.14687757981E+03  0.19815980439E+03  0.12509000000E+03 0.  0.
         25    1    4    4    0    0  0.45895128061E+02 -0.56515863118E+02 -0.30533255660E+03  0.33789922134E+03  0.12509000000E+03 0.  0.
         25    1    3    3    0    0 -0.62177746140E+02  0.98725493233E+02 -0.30894480206E+03  0.35313905753E+03  0.12509000000E+03 0.  0.
<mgrwt>
<rscale>  2 0.45969163E+03</rscale>
<asrwt>0</asrwt>
<pdfrwt beam="1">  1       21 0.94149377E-02 0.45969163E+03</pdfrwt>
<pdfrwt beam="2">  1       21 0.12134948E+00 0.45969163E+03</pdfrwt>
<totfact> 0.42134580E+04</totfact>
</mgrwt>
</event>
<event>
 7    0  0.4748297E-002  0.4506082E+03  0.7546771E-02  0.1027541E+00
         21   -1    0    0  502  501  0.00000000000E+00  0.00000000000E+00  0.23202366956E+03  0.23202366956E+03  0.00000000000E+00 0. -1.
         21   -1    0    0  501  502 -0.00000000000E+00 -0.00000000000E+00 -0.21877909598E+03  0.21877909598E+03  0.00000000000E+00 0. -1.
      99926    2    1    2    0    0  0.00000000000E+00 -0.14210854715E-13  0.13244573579E+02  0.45080276554E+03  0.45060816092E+03 0.  0.
      99925    2    3    3    0    0 -0.41941154934E+02 -0.73430752499E+02 -0.60356877019E+02  0.28282711993E+03  0.26305340004E+03 0.  0.
         25    1    4    4    0    0  0.14243153509E+02 -0.53703289298E+02 -0.18605444928E+02  0.13813247766E+03  0.12509000000E+03 0.  0.
         25    1    3    3    0    0  0.41941154934E+02  0.73430752499E+02  0.73601450599E+02  0.16797564562E+03  0.12509000000E+03 0.  0.
         25    1    4    4    0    0 -0.56184308443E+02 -0.19727463201E+02 -0.41751432091E+02  0.14469464227E+03  0.12509000000E+03 0.  0.
<mgrwt>
<rscale>  2 0.45060816E+03</rscale>
<asrwt>0</asrwt>
<pdfrwt beam="1">  1       21 0.34121128E-01 0.45060816E+03</pdfrwt>
<pdfrwt beam="2">  1       21 0.32173396E-01 0.45060816E+03</pdfrwt>
<totfact> 0.71321057E+04</totfact>
</mgrwt>
</event>
<event>
 7    0  0.4748297E-002  0.4578288E+03  0.7546771E-02  0.1025413E+00
         21   -1    0    0  502  501  0.00000000000E+00  0.00000000000E+00  0.33214141281E+02  0.33214141281E+02  0.00000000000E+00 0. -1.
         21   -1    0    0  501  502 -0.00000000000E+00 -0.00000000000E+00 -0.15776952825E+04  0.15776952825E+04  0.00000000000E+00 0. -1.
      99926    2    1    2    0    0 -0.14210854715E-13  0.00000000000E+00 -0.15444811412E+04  0.16109094238E+04  0.45782876280E+03 0.  0.
      99925    2    3    3    0    0 -0.70867004277E+02 -0.63532325149E+02 -0.12014502505E+04  0.12335817297E+04  0.26302602684E+03 0.  0.
         25    1    4    4    0    0 -0.20371840372E+02 -0.43144833108E+02 -0.43683360887E+03  0.45688904390E+03  0.12509000000E+03 0.  0.
         25    1    3    3    0    0  0.70867004277E+02  0.63532325149E+02 -0.34303089077E+03  0.37732769413E+03  0.12509000000E+03 0.  0.
         25    1    4    4    0    0 -0.50495163905E+02 -0.20387492040E+02 -0.76461664161E+03  0.77669268577E+03  0.12509000000E+03 0.  0.
<mgrwt>
<rscale>  2 0.45782876E+03</rscale>
<asrwt>0</asrwt>
<pdfrwt beam="1">  1       21 0.48844309E-02 0.45782876E+03</pdfrwt>
<pdfrwt beam="2">  1       21 0.23201409E+00 0.45782876E+03</pdfrwt>
<totfact> 0.20725392E+04</totfact>
</mgrwt>
</event>
<event>
 7    0  0.4748297E-002  0.4555073E+03  0.7546771E-02  0.1026092E+00
         21   -1    0    0  502  501  0.00000000000E+00  0.00000000000E+00  0.23724727705E+03  0.23724727705E+03  0.00000000000E+00 0. -1.
         21   -1    0    0  501  502 -0.00000000000E+00 -0.00000000000E+00 -0.21863994033E+03  0.21863994033E+03  0.00000000000E+00 0. -1.
      99926    2    1    2    0    0  0.35527136788E-14  0.00000000000E+00  0.18607336723E+02  0.45588721737E+03  0.45550732375E+03 0.  0.
      99925    2    3    3    0    0  0.28681753353E+02 -0.72338642204E+02  0.94602515948E+02  0.29012142628E+03  0.26299293495E+03 0.  0.
         25    1    4    4    0    0 -0.24108214511E+02 -0.31978703747E+02  0.31571605734E+02  0.13508559468E+03  0.12509000000E+03 0.  0.
         25    1    3    3    0    0 -0.28681753353E+02  0.72338642204E+02 -0.75995179225E+02  0.16576579109E+03  0.12509000000E+03 0.  0.
         25    1    4    4    0    0  0.52789967864E+02 -0.40359938457E+02  0.63030910214E+02  0.15503583161E+03  0.12509000000E+03 0.  0.
<mgrwt>
<rscale>  2 0.45550732E+03</rscale>
<asrwt>0</asrwt>
<pdfrwt beam="1">  1       21 0.34889306E-01 0.45550732E+03</pdfrwt>
<pdfrwt beam="2">  1       21 0.32152932E-01 0.45550732E+03</pdfrwt>
<totfact> 0.68204362E+04</totfact>
</mgrwt>
</event>
<event>
 7    0  0.4748297E-002  0.4530591E+03  0.7546771E-02  0.1026814E+00
         21   -1    0    0  502  501  0.00000000000E+00  0.00000000000E+00  0.99751154878E+02  0.99751154878E+02  0.00000000000E+00 0. -1.
         21   -1    0    0  501  502 -0.00000000000E+00 -0.00000000000E+00 -0.51443661235E+03  0.51443661235E+03  0.00000000000E+00 0. -1.
      99926    2    1    2    0    0  0.00000000000E+00  0.17763568394E-14 -0.41468545747E+03  0.61418776723E+03  0.45305914048E+03 0.  0.
      99925    2    3    3    0    0  0.59772936060E+02  0.27744755256E+01 -0.13294291516E+03  0.30017045903E+03  0.26238899402E+03 0.  0.
         25    1    4    4    0    0  0.11069150584E+02  0.29487589962E+02 -0.41263518386E+02  0.13543348960E+03  0.12509000000E+03 0.  0.
         25    1    4    4    0    0  0.48703785476E+02 -0.26713114437E+02 -0.91679396769E+02  0.16473696942E+03  0.12509000000E+03 0.  0.
         25    1    3    3    0    0 -0.59772936060E+02 -0.27744755256E+01 -0.28174254232E+03  0.31401730820E+03  0.12509000000E+03 0.  0.
<mgrwt>
<rscale>  2 0.45305914E+03</rscale>
<asrwt>0</asrwt>
<pdfrwt beam="1">  1       21 0.14669288E-01 0.45305914E+03</pdfrwt>
<pdfrwt beam="2">  1       21 0.75652442E-01 0.45305914E+03</pdfrwt>
<totfact> 0.58708117E+04</totfact>
</mgrwt>
</event>
<event>
 7    0  0.4748297E-002  0.4532360E+03  0.7546771E-02  0.1026761E+00
         21   -1    0    0  502  501  0.00000000000E+00  0.00000000000E+00  0.77920082460E+03  0.77920082460E+03  0.00000000000E+00 0.  1.
         21   -1    0    0  501  502 -0.00000000000E+00 -0.00000000000E+00 -0.65908204204E+02  0.65908204204E+02  0.00000000000E+00 0.  1.
      99926    2    1    2    0    0  0.71054273576E-14  0.71054273576E-14  0.71329262040E+03  0.84510902880E+03  0.45323604033E+03 0.  0.
      99925    2    3    3    0    0  0.49809114224E+02  0.36853444116E+02  0.62246640262E+03  0.67856764014E+03  0.26296481827E+03 0.  0.
         25    1    3    3    0    0 -0.49809114224E+02 -0.36853444116E+02  0.90826217778E+02  0.16654138867E+03  0.12509000000E+03 0.  0.
         25    1    4    4    0    0  0.14052983215E+02 -0.20730454886E+02  0.31078338733E+03  0.33594800198E+03  0.12509000000E+03 0.  0.
         25    1    4    4    0    0  0.35756131009E+02  0.57583899002E+02  0.31168301529E+03  0.34261963816E+03  0.12509000000E+03 0.  0.
<mgrwt>
<rscale>  2 0.45323604E+03</rscale>
<asrwt>0</asrwt>
<pdfrwt beam="1">  1       21 0.11458835E+00 0.45323604E+03</pdfrwt>
<pdfrwt beam="2">  1       21 0.96923834E-02 0.45323604E+03</pdfrwt>
<totfact> 0.46296305E+04</totfact>
</mgrwt>
</event>
<event>
 7    0  0.4748297E-002  0.4509367E+03  0.7546771E-02  0.1027443E+00
         21   -1    0    0  502  501  0.00000000000E+00  0.00000000000E+00  0.85259763249E+03  0.85259763249E+03  0.00000000000E+00 0.  1.
         21   -1    0    0  501  502 -0.00000000000E+00 -0.00000000000E+00 -0.59624822922E+02  0.59624822922E+02  0.00000000000E+00 0.  1.
      99926    2    1    2    0    0  0.00000000000E+00  0.00000000000E+00  0.79297280957E+03  0.91222245541E+03  0.45093672665E+03 0.  0.
      99925    2    3    3    0    0  0.16993104617E+02  0.10507957571E+03  0.55011893382E+03  0.61903992540E+03  0.26315224692E+03 0.  0.
         25    1    3    3    0    0 -0.16993104617E+02 -0.10507957571E+03  0.24285387575E+03  0.29318253001E+03  0.12509000000E+03 0.  0.
         25    1    4    4    0    0  0.68163290881E+01  0.19284421017E+02  0.30911793449E+03  0.33409543062E+03  0.12509000000E+03 0.  0.
         25    1    4    4    0    0  0.10176775528E+02  0.85795154698E+02  0.24100099933E+03  0.28494449478E+03  0.12509000000E+03 0.  0.
<mgrwt>
<rscale>  2 0.45093673E+03</rscale>
<asrwt>0</asrwt>
<pdfrwt beam="1">  1       21 0.12538200E+00 0.45093673E+03</pdfrwt>
<pdfrwt beam="2">  1       21 0.87683568E-02 0.45093673E+03</pdfrwt>
<totfact> 0.44094760E+04</totfact>
</mgrwt>
</event>
<event>
 7    0  0.4748297E-002  0.4561374E+03  0.7546771E-02  0.1025907E+00
         21   -1    0    0  502  501  0.00000000000E+00  0.00000000000E+00  0.16063725299E+02  0.16063725299E+02  0.00000000000E+00 0. -1.
         21   -1    0    0  501  502 -0.00000000000E+00 -0.00000000000E+00 -0.32380611681E+04  0.32380611681E+04  0.00000000000E+00 0. -1.
      99926    2    1    2    0    0 -0.17763568394E-14  0.14210854715E-13 -0.32219974428E+04  0.32541248934E+04  0.45613737013E+03 0.  0.
      99925    2    3    3    0    0  0.69778027817E+01 -0.89439160800E+02 -0.25299613307E+04  0.25451752889E+04  0.26299213486E+03 0.  0.
         25    1    4    4    0    0  0.29379752484E+02 -0.66069550253E+02 -0.15529395464E+04  0.15596464658E+04  0.12509000000E+03 0.  0.
         25    1    3    3    0    0 -0.69778027817E+01  0.89439160800E+02 -0.69203611204E+03  0.70894960447E+03  0.12509000000E+03 0.  0.
         25    1    4    4    0    0 -0.22401949702E+02 -0.23369610547E+02 -0.97702178431E+03  0.98552882310E+03  0.12509000000E+03 0.  0.
<mgrwt>
<rscale>  2 0.45613737E+03</rscale>
<asrwt>0</asrwt>
<pdfrwt beam="1">  1       21 0.23623115E-02 0.45613737E+03</pdfrwt>
<pdfrwt beam="2">  1       21 0.47618567E+00 0.45613737E+03</pdfrwt>
<totfact> 0.20455600E+03</totfact>
</mgrwt>
</event>
<event>
 7    0  0.4748297E-002  0.4521965E+03  0.7546771E-02  0.1027069E+00
         21   -1    0    0  502  501  0.00000000000E+00  0.00000000000E+00  0.78689924695E+03  0.78689924695E+03  0.00000000000E+00 0. -1.
         21   -1    0    0  501  502 -0.00000000000E+00 -0.00000000000E+00 -0.64964380803E+02  0.64964380803E+02  0.00000000000E+00 0. -1.
      99926    2    1    2    0    0  0.35527136788E-14  0.14210854715E-13  0.72193486615E+03  0.85186362775E+03  0.45219651627E+03 0.  0.
      99925    2    3    3    0    0 -0.17363792403E+02 -0.96565285694E+02  0.55257221125E+03  0.61957593401E+03  0.26251082583E+03 0.  0.
         25    1    4    4    0    0 -0.30822130536E+02 -0.63531330157E+02  0.35573701517E+03  0.38364380055E+03  0.12509000000E+03 0.  0.
         25    1    3    3    0    0  0.17363792403E+02  0.96565285694E+02  0.16936265490E+03  0.23228769374E+03  0.12509000000E+03 0.  0.
         25    1    4    4    0    0  0.13458338132E+02 -0.33033955536E+02  0.19683519608E+03  0.23593213346E+03  0.12509000000E+03 0.  0.
<mgrwt>
<rscale>  2 0.45219652E+03</rscale>
<asrwt>0</asrwt>
<pdfrwt beam="1">  1       21 0.11572047E+00 0.45219652E+03</pdfrwt>
<pdfrwt beam="2">  1       21 0.95535859E-02 0.45219652E+03</pdfrwt>
<totfact> 0.46367430E+04</totfact>
</mgrwt>
</event>
<event>
 7    0  0.4748297E-002  0.4614304E+03  0.7546771E-02  0.1024367E+00
         21   -1    0    0  502  501  0.00000000000E+00  0.00000000000E+00  0.94522683235E+03  0.94522683235E+03  0.00000000000E+00 0.  1.
         21   -1    0    0  501  502 -0.00000000000E+00 -0.00000000000E+00 -0.56314009741E+02  0.56314009741E+02  0.00000000000E+00 0.  1.
      99926    2    1    2    0    0 -0.14210854715E-13 -0.35527136788E-14  0.88891282261E+03  0.10015408421E+04  0.46143044132E+03 0.  0.
      99925    2    3    3    0    0 -0.11229870466E+03 -0.28079164265E+02  0.49567533594E+03  0.57295868246E+03  0.26303645110E+03 0.  0.
         25    1    4    4    0    0 -0.91094617336E+02  0.72452245682E+01  0.24695800371E+03  0.29152441799E+03  0.12509000000E+03 0.  0.
         25    1    3    3    0    0  0.11229870466E+03  0.28079164265E+02  0.39323748667E+03  0.42858215963E+03  0.12509000000E+03 0.  0.
         25    1    4    4    0    0 -0.21204087325E+02 -0.35324388834E+02  0.24871733224E+03  0.28143426447E+03  0.12509000000E+03 0.  0.
<mgrwt>
<rscale>  2 0.46143044E+03</rscale>
<asrwt>0</asrwt>
<pdfrwt beam="1">  1       21 0.13900394E+00 0.46143044E+03</pdfrwt>
<pdfrwt beam="2">  1       21 0.82814726E-02 0.46143044E+03</pdfrwt>
<totfact> 0.37203170E+04</totfact>
</mgrwt>
</event>
<event>
 7    0  0.4748297E-002  0.4553617E+03  0.7546771E-02  0.1026135E+00
         21   -1    0    0  502  501  0.00000000000E+00  0.00000000000E+00  0.35610358562E+02  0.35610358562E+02  0.00000000000E+00 0.  1.
         21   -1    0    0  501  502 -0.00000000000E+00 -0.00000000000E+00 -0.14557159368E+04  0.14557159368E+04  0.00000000000E+00 0.  1.
      99926    2    1    2    0    0  0.00000000000E+00  0.00000000000E+00 -0.14201055783E+04  0.14913262954E+04  0.45536168691E+03 0.  0.
      99925    2    3    3    0    0 -0.17604218552E+02  0.62826038207E+02 -0.59103461213E+03  0.65033688132E+03  0.26336120991E+03 0.  0.
         25    1    3    3    0    0  0.17604218552E+02 -0.62826038207E+02 -0.82907096615E+03  0.84098941409E+03  0.12509000000E+03 0.  0.
         25    1    4    4    0    0 -0.16209367818E+02  0.43545579991E+02 -0.39554779832E+03  0.41745003293E+03  0.12509000000E+03 0.  0.
         25    1    4    4    0    0 -0.13948507338E+01  0.19280458216E+02 -0.19548681381E+03  0.23288684839E+03  0.12509000000E+03 0.  0.
<mgrwt>
<rscale>  2 0.45536169E+03</rscale>
<asrwt>0</asrwt>
<pdfrwt beam="1">  1       21 0.52368177E-02 0.45536169E+03</pdfrwt>
<pdfrwt beam="2">  1       21 0.21407586E+00 0.45536169E+03</pdfrwt>
<totfact> 0.23925220E+04</totfact>
</mgrwt>
</event>
<event>
 7    0  0.4748297E-002  0.4573357E+03  0.7546771E-02  0.1025557E+00
         21   -1    0    0  502  501  0.00000000000E+00  0.00000000000E+00  0.12486454392E+03  0.12486454392E+03  0.00000000000E+00 0. -1.
         21   -1    0    0  501  502 -0.00000000000E+00 -0.00000000000E+00 -0.41876570913E+03  0.41876570913E+03  0.00000000000E+00 0. -1.
      99926    2    1    2    0    0  0.00000000000E+00  0.00000000000E+00 -0.29390116522E+03  0.54363025305E+03  0.45733571599E+03 0.  0.
      99925    2    3    3    0    0 -0.57845088120E+02 -0.62419666643E+02 -0.92320957987E+02  0.29158986532E+03  0.26317146743E+03 0.  0.
         25    1    4    4    0    0 -0.11487801345E+02  0.75196327516E+01 -0.46344927544E+02  0.13410397036E+03  0.12509000000E+03 0.  0.
         25    1    4    4    0    0 -0.46357286775E+02 -0.69939299395E+02 -0.45976030444E+02  0.15748589496E+03  0.12509000000E+03 0.  0.
         25    1    3    3    0    0  0.57845088120E+02  0.62419666643E+02 -0.20158020723E+03  0.25204038773E+03  0.12509000000E+03 0.  0.
<mgrwt>
<rscale>  2 0.45733572E+03</rscale>
<asrwt>0</asrwt>
<pdfrwt beam="1">  1       21 0.18362433E-01 0.45733572E+03</pdfrwt>
<pdfrwt beam="2">  1       21 0.61583192E-01 0.45733572E+03</pdfrwt>
<totfact> 0.61151278E+04</totfact>
</mgrwt>
</event>
<event>
 7    0  0.4748297E-002  0.4548060E+03  0.7546771E-02  0.1026298E+00
         21   -1    0    0  502  501  0.00000000000E+00  0.00000000000E+00  0.43413676813E+03  0.43413676813E+03  0.00000000000E+00 0. -1.
         21   -1    0    0  501  502 -0.00000000000E+00 -0.00000000000E+00 -0.11911480821E+03  0.11911480821E+03  0.00000000000E+00 0. -1.
      99926    2    1    2    0    0  0.00000000000E+00  0.00000000000E+00  0.31502195992E+03  0.55325157633E+03  0.45480597125E+03 0.  0.
      99925    2    3    3    0    0 -0.59191831857E+02 -0.98647324111E+00  0.81297461269E+02  0.28162813210E+03  0.26305984394E+03 0.  0.
         25    1    4    4    0    0 -0.35159189240E+02 -0.23832990390E+01 -0.10146244121E+01  0.12996301884E+03  0.12509000000E+03 0.  0.
         25    1    3    3    0    0  0.59191831857E+02  0.98647324111E+00  0.23372449865E+03  0.27162344423E+03  0.12509000000E+03 0.  0.
         25    1    4    4    0    0 -0.24032642617E+02  0.13968257979E+01  0.82312085681E+02  0.15166511327E+03  0.12509000000E+03 0.  0.
<mgrwt>
<rscale>  2 0.45480597E+03</rscale>
<asrwt>0</asrwt>
<pdfrwt beam="1">  1       21 0.63843642E-01 0.45480597E+03</pdfrwt>
<pdfrwt beam="2">  1       21 0.17516884E-01 0.45480597E+03</pdfrwt>
<totfact> 0.61746883E+04</totfact>
</mgrwt>
</event>
<event>
 7    0  0.4748297E-002  0.4573611E+03  0.7546771E-02  0.1025549E+00
         21   -1    0    0  502  501  0.00000000000E+00  0.00000000000E+00  0.17433962362E+03  0.17433962362E+03  0.00000000000E+00 0.  1.
         21   -1    0    0  501  502 -0.00000000000E+00 -0.00000000000E+00 -0.29995928088E+03  0.29995928088E+03  0.00000000000E+00 0.  1.
      99926    2    1    2    0    0  0.00000000000E+00  0.88817841970E-15 -0.12561965725E+03  0.47429890450E+03  0.45736107456E+03 0.  0.
      99925    2    3    3    0    0 -0.29904608682E+02  0.67291362793E+00 -0.19440095361E+03  0.32844585084E+03  0.26304031581E+03 0.  0.
         25    1    4    4    0    0 -0.22431862537E+02 -0.24965309655E+02 -0.59443022677E+02  0.14250416200E+03  0.12509000000E+03 0.  0.
         25    1    3    3    0    0  0.29904608682E+02 -0.67291362793E+00  0.68781296354E+02  0.14585305366E+03  0.12509000000E+03 0.  0.
         25    1    4    4    0    0 -0.74727461449E+01  0.25638223283E+02 -0.13495793093E+03  0.18594168884E+03  0.12509000000E+03 0.  0.
<mgrwt>
<rscale>  2 0.45736107E+03</rscale>
<asrwt>0</asrwt>
<pdfrwt beam="1">  1       21 0.25638180E-01 0.45736107E+03</pdfrwt>
<pdfrwt beam="2">  1       21 0.44111659E-01 0.45736107E+03</pdfrwt>
<totfact> 0.65874708E+04</totfact>
</mgrwt>
</event>
<event>
 7    0  0.4748297E-002  0.4476056E+03  0.7546771E-02  0.1028438E+00
         21   -1    0    0  502  501  0.00000000000E+00  0.00000000000E+00  0.99039454948E+02  0.99039454948E+02  0.00000000000E+00 0. -1.
         21   -1    0    0  501  502 -0.00000000000E+00 -0.00000000000E+00 -0.50573477399E+03  0.50573477399E+03  0.00000000000E+00 0. -1.
      99926    2    1    2    0    0  0.00000000000E+00  0.00000000000E+00 -0.40669531905E+03  0.60477422894E+03  0.44760561375E+03 0.  0.
      99925    2    3    3    0    0  0.99306019666E+02  0.36462427218E+01 -0.30358876294E+03  0.41463362139E+03  0.26434810833E+03 0.  0.
         25    1    3    3    0    0 -0.99306019666E+02 -0.36462427218E+01 -0.10310655610E+03  0.19014060755E+03  0.12509000000E+03 0.  0.
         25    1    4    4    0    0  0.54903608898E+02 -0.24549324899E+02 -0.10468152943E+03  0.17384707742E+03  0.12509000000E+03 0.  0.
         25    1    4    4    0    0  0.44402410768E+02  0.28195567621E+02 -0.19890723351E+03  0.24078654397E+03  0.12509000000E+03 0.  0.
<mgrwt>
<rscale>  2 0.44760561E+03</rscale>
<asrwt>0</asrwt>
<pdfrwt beam="1">  1       21 0.14564626E-01 0.44760561E+03</pdfrwt>
<pdfrwt beam="2">  1       21 0.74372762E-01 0.44760561E+03</pdfrwt>
<totfact> 0.61924127E+04</totfact>
</mgrwt>
</event>
<event>
 7    0  0.4748297E-002  0.4584186E+03  0.7546771E-02  0.1025241E+00
         21   -1    0    0  502  501  0.00000000000E+00  0.00000000000E+00  0.26932855238E+03  0.26932855238E+03  0.00000000000E+00 0.  1.
         21   -1    0    0  501  502 -0.00000000000E+00 -0.00000000000E+00 -0.19506620106E+03  0.19506620106E+03  0.00000000000E+00 0.  1.
      99926    2    1    2    0    0  0.71054273576E-14  0.00000000000E+00  0.74262351318E+02  0.46439475344E+03  0.45841857533E+03 0.  0.
      99925    2    3    3    0    0  0.33457458599E+02  0.83653793389E+02  0.12108636523E+03  0.30328188908E+03  0.26306014087E+03 0.  0.
         25    1    3    3    0    0 -0.33457458599E+02 -0.83653793389E+02 -0.46824013911E+02  0.16111286436E+03  0.12509000000E+03 0.  0.
         25    1    4    4    0    0  0.51909358429E+02  0.61392354420E+02  0.52297299716E+02  0.15762651532E+03  0.12509000000E+03 0.  0.
         25    1    4    4    0    0 -0.18451899830E+02  0.22261438969E+02  0.68789065513E+02  0.14565537376E+03  0.12509000000E+03 0.  0.
<mgrwt>
<rscale>  2 0.45841858E+03</rscale>
<asrwt>0</asrwt>
<pdfrwt beam="1">  1       21 0.39607140E-01 0.45841858E+03</pdfrwt>
<pdfrwt beam="2">  1       21 0.28686206E-01 0.45841858E+03</pdfrwt>
<totfact> 0.66041978E+04</totfact>
</mgrwt>
</event>
<event>
 7    0  0.4748297E-002  0.4527795E+03  0.7546771E-02  0.1026896E+00
         21   -1    0    0  502  501  0.00000000000E+00  0.00000000000E+00  0.62813616840E+02  0.62813616840E+02  0.00000000000E+00 0. -1.
         21   -1    0    0  501  502 -0.00000000000E+00 -0.00000000000E+00 -0.81594269410E+03  0.81594269410E+03  0.00000000000E+00 0. -1.
      99926    2    1    2    0    0  0.00000000000E+00  0.00000000000E+00 -0.75312907726E+03  0.87875631094E+03  0.45277946840E+03 0.  0.
      99925    2    3    3    0    0  0.52788388734E+02 -0.92884881044E+02 -0.41559192966E+03  0.50326589932E+03  0.26295569647E+03 0.  0.
         25    1    4    4    0    0  0.23302682702E+02 -0.34285709630E+02 -0.26985426429E+03  0.30031209926E+03  0.12509000000E+03 0.  0.
         25    1    4    4    0    0  0.29485706033E+02 -0.58599171413E+02 -0.14573766537E+03  0.20295380006E+03  0.12509000000E+03 0.  0.
         25    1    3    3    0    0 -0.52788388734E+02  0.92884881044E+02 -0.33753714760E+03  0.37549041162E+03  0.12509000000E+03 0.  0.
<mgrwt>
<rscale>  2 0.45277947E+03</rscale>
<asrwt>0</asrwt>
<pdfrwt beam="1">  1       21 0.92372972E-02 0.45277947E+03</pdfrwt>
<pdfrwt beam="2">  1       21 0.11999157E+00 0.45277947E+03</pdfrwt>
<totfact> 0.44941479E+04</totfact>
</mgrwt>
</event>
<event>
 7    0  0.4748297E-002  0.4548528E+03  0.7546771E-02  0.1026285E+00
         21   -1    0    0  502  501  0.00000000000E+00  0.00000000000E+00  0.17495589508E+03  0.17495589508E+03  0.00000000000E+00 0. -1.
         21   -1    0    0  501  502 -0.00000000000E+00 -0.00000000000E+00 -0.29563323099E+03  0.29563323099E+03  0.00000000000E+00 0. -1.
      99926    2    1    2    0    0  0.00000000000E+00  0.00000000000E+00 -0.12067733592E+03  0.47058912607E+03  0.45485284013E+03 0.  0.
      99925    2    3    3    0    0 -0.67838539648E+02 -0.87476834777E+02 -0.10388916319E+03  0.30270936277E+03  0.26188878555E+03 0.  0.
         25    1    4    4    0    0 -0.23312433694E+02 -0.81961776757E+02 -0.58779163507E+02  0.16236902591E+03  0.12509000000E+03 0.  0.
         25    1    4    4    0    0 -0.44526105955E+02 -0.55150580194E+01 -0.45109999683E+02  0.14034033685E+03  0.12509000000E+03 0.  0.
         25    1    3    3    0    0  0.67838539648E+02  0.87476834777E+02 -0.16788172727E+02  0.16787976331E+03  0.12509000000E+03 0.  0.
<mgrwt>
<rscale>  2 0.45485284E+03</rscale>
<asrwt>0</asrwt>
<pdfrwt beam="1">  1       21 0.25728808E-01 0.45485284E+03</pdfrwt>
<pdfrwt beam="2">  1       21 0.43475475E-01 0.45485284E+03</pdfrwt>
<totfact> 0.67470653E+04</totfact>
</mgrwt>
</event>
<event>
 7    0  0.4748297E-002  0.4380375E+03  0.7546771E-02  0.1031351E+00
         21   -1    0    0  502  501  0.00000000000E+00  0.00000000000E+00  0.68174274273E+03  0.68174274273E+03  0.00000000000E+00 0.  1.
         21   -1    0    0  501  502 -0.00000000000E+00 -0.00000000000E+00 -0.70362633481E+02  0.70362633481E+02  0.00000000000E+00 0.  1.
      99926    2    1    2    0    0  0.00000000000E+00  0.00000000000E+00  0.61138010925E+03  0.75210537621E+03  0.43803750860E+03 0.  0.
      99925    2    3    3    0    0 -0.93967124732E+02 -0.12848450222E+02  0.36131612358E+03  0.45685225051E+03  0.26300139627E+03 0.  0.
         25    1    4    4    0    0 -0.55067348671E+02 -0.11873825996E+02  0.24900640867E+03  0.28429755590E+03  0.12509000000E+03 0.  0.
         25    1    3    3    0    0  0.93967124732E+02  0.12848450222E+02  0.25006398567E+03  0.29525312570E+03  0.12509000000E+03 0.  0.
         25    1    4    4    0    0 -0.38899776061E+02 -0.97462422650E+00  0.11230971491E+03  0.17255469461E+03  0.12509000000E+03 0.  0.
<mgrwt>
<rscale>  2 0.43803751E+03</rscale>
<asrwt>0</asrwt>
<pdfrwt beam="1">  1       21 0.10025628E+00 0.43803751E+03</pdfrwt>
<pdfrwt beam="2">  1       21 0.10347447E-01 0.43803751E+03</pdfrwt>
<totfact> 0.57445564E+04</totfact>
</mgrwt>
</event>
<event>
 7    0  0.4748297E-002  0.4555983E+03  0.7546771E-02  0.1026066E+00
         21   -1    0    0  502  501  0.00000000000E+00  0.00000000000E+00  0.11808558048E+03  0.11808558048E+03  0.00000000000E+00 0. -1.
         21   -1    0    0  501  502 -0.00000000000E+00 -0.00000000000E+00 -0.43944782758E+03  0.43944782758E+03  0.00000000000E+00 0. -1.
      99926    2    1    2    0    0  0.00000000000E+00 -0.17763568394E-14 -0.32136224710E+03  0.55753340806E+03  0.45559829592E+03 0.  0.
      99925    2    3    3    0    0 -0.11289838217E+03 -0.12558760746E+02 -0.19422566781E+03  0.34607422746E+03  0.26294484917E+03 0.  0.
         25    1    3    3    0    0  0.11289838217E+03  0.12558760746E+02 -0.12713657929E+03  0.21145918060E+03  0.12509000000E+03 0.  0.
         25    1    4    4    0    0 -0.86153427293E+02  0.21003198539E+01 -0.13926433339E+03  0.20607980744E+03  0.12509000000E+03 0.  0.
         25    1    4    4    0    0 -0.26744954881E+02 -0.14659080600E+02 -0.54961334416E+02  0.13999442002E+03  0.12509000000E+03 0.  0.
<mgrwt>
<rscale>  2 0.45559830E+03</rscale>
<asrwt>0</asrwt>
<pdfrwt beam="1">  1       21 0.17365527E-01 0.45559830E+03</pdfrwt>
<pdfrwt beam="2">  1       21 0.64624681E-01 0.45559830E+03</pdfrwt>
<totfact> 0.61081827E+04</totfact>
</mgrwt>
</event>
<event>
 7    0  0.4748297E-002  0.4538912E+03  0.7546771E-02  0.1026568E+00
         21   -1    0    0  502  501  0.00000000000E+00  0.00000000000E+00  0.28614491232E+02  0.28614491232E+02  0.00000000000E+00 0.  1.
         21   -1    0    0  501  502 -0.00000000000E+00 -0.00000000000E+00 -0.17999379730E+04  0.17999379730E+04  0.00000000000E+00 0.  1.
      99926    2    1    2    0    0  0.00000000000E+00  0.00000000000E+00 -0.17713234817E+04  0.18285524642E+04  0.45389121757E+03 0.  0.
      99925    2    3    3    0    0  0.37318142809E+02 -0.65488697305E+02 -0.14502935029E+04  0.14758639775E+04  0.26294832610E+03 0.  0.
         25    1    3    3    0    0 -0.37318142809E+02  0.65488697305E+02 -0.32102997885E+03  0.35268848674E+03  0.12509000000E+03 0.  0.
         25    1    4    4    0    0  0.32562093043E+02 -0.39025537965E+02 -0.54009187810E+03  0.55671359550E+03  0.12509000000E+03 0.  0.
         25    1    4    4    0    0  0.47560497662E+01 -0.26463159339E+02 -0.91020162479E+03  0.91915038197E+03  0.12509000000E+03 0.  0.
<mgrwt>
<rscale>  2 0.45389122E+03</rscale>
<asrwt>0</asrwt>
<pdfrwt beam="1">  1       21 0.42080138E-02 0.45389122E+03</pdfrwt>
<pdfrwt beam="2">  1       21 0.26469673E+00 0.45389122E+03</pdfrwt>
<totfact> 0.16861895E+04</totfact>
</mgrwt>
</event>
<event>
 7    0  0.4748297E-002  0.4520515E+03  0.7546771E-02  0.1027112E+00
         21   -1    0    0  502  501  0.00000000000E+00  0.00000000000E+00  0.50921419004E+03  0.50921419004E+03  0.00000000000E+00 0. -1.
         21   -1    0    0  501  502 -0.00000000000E+00 -0.00000000000E+00 -0.10032643474E+03  0.10032643474E+03  0.00000000000E+00 0. -1.
      99926    2    1    2    0    0 -0.88817841970E-15  0.00000000000E+00  0.40888775530E+03  0.60954062478E+03  0.45205152010E+03 0.  0.
      99925    2    3    3    0    0 -0.56216966422E+01 -0.95218419075E+02  0.18268695083E+03  0.33401846079E+03  0.26286053212E+03 0.  0.
         25    1    4    4    0    0  0.19234840742E+01 -0.74668574884E+02  0.60388611544E+02  0.15771299366E+03  0.12509000000E+03 0.  0.
         25    1    3    3    0    0  0.56216966422E+01  0.95218419075E+02  0.22620080447E+03  0.27552216399E+03  0.12509000000E+03 0.  0.
         25    1    4    4    0    0 -0.75451807164E+01 -0.20549844190E+02  0.12229833928E+03  0.17630546713E+03  0.12509000000E+03 0.  0.
<mgrwt>
<rscale>  2 0.45205152E+03</rscale>
<asrwt>0</asrwt>
<pdfrwt beam="1">  1       21 0.74884438E-01 0.45205152E+03</pdfrwt>
<pdfrwt beam="2">  1       21 0.14753888E-01 0.45205152E+03</pdfrwt>
<totfact> 0.59467765E+04</totfact>
</mgrwt>
</event>
<event>
 7    0  0.4748297E-002  0.4358168E+03  0.7546771E-02  0.1032038E+00
         21   -1    0    0  502  501  0.00000000000E+00  0.00000000000E+00  0.84098899982E+02  0.84098899982E+02  0.00000000000E+00 0.  1.
         21   -1    0    0  501  502 -0.00000000000E+00 -0.00000000000E+00 -0.56462169447E+03  0.56462169447E+03  0.00000000000E+00 0.  1.
      99926    2    1    2    0    0  0.35527136788E-14  0.00000000000E+00 -0.48052279448E+03  0.64872059445E+03  0.43581676613E+03 0.  0.
      99925    2    3    3    0    0  0.24489672891E+02  0.78072095229E+02 -0.37736560115E+03  0.46710586275E+03  0.26284614122E+03 0.  0.
         25    1    4    4    0    0  0.32597169163E+02  0.47950643051E+02 -0.25216278964E+03  0.28739418954E+03  0.12509000000E+03 0.  0.
         25    1    4    4    0    0 -0.81074962717E+01  0.30121452178E+02 -0.12520281151E+03  0.17971167321E+03  0.12509000000E+03 0.  0.
         25    1    3    3    0    0 -0.24489672891E+02 -0.78072095229E+02 -0.10315719334E+03  0.18161473170E+03  0.12509000000E+03 0.  0.
<mgrwt>
<rscale>  2 0.43581677E+03</rscale>
<asrwt>0</asrwt>
<pdfrwt beam="1">  1       21 0.12367486E-01 0.43581677E+03</pdfrwt>
<pdfrwt beam="2">  1       21 0.83032601E-01 0.43581677E+03</pdfrwt>
<totfact> 0.65074292E+04</totfact>
</mgrwt>
</event>
<event>
 7    0  0.4748297E-002  0.4453906E+03  0.7546771E-02  0.1029106E+00
         21   -1    0    0  502  501  0.00000000000E+00  0.00000000000E+00  0.60692192995E+02  0.60692192995E+02  0.00000000000E+00 0. -1.
         21   -1    0    0  501  502 -0.00000000000E+00 -0.00000000000E+00 -0.81712633952E+03  0.81712633952E+03  0.00000000000E+00 0. -1.
      99926    2    1    2    0    0 -0.71054273576E-14  0.00000000000E+00 -0.75643414652E+03  0.87781853251E+03  0.44539056792E+03 0.  0.
      99925    2    3    3    0    0  0.38231994702E+02  0.67333703413E+02 -0.34385522937E+03  0.43979526371E+03  0.26303600929E+03 0.  0.
         25    1    3    3    0    0 -0.38231994702E+02 -0.67333703413E+02 -0.41257891715E+03  0.43802326880E+03  0.12509000000E+03 0.  0.
         25    1    4    4    0    0 -0.16768140456E+02  0.48475435033E+02 -0.15094067793E+03  0.20263670617E+03  0.12509000000E+03 0.  0.
         25    1    4    4    0    0  0.55000135158E+02  0.18858268380E+02 -0.19291455145E+03  0.23715855754E+03  0.12509000000E+03 0.  0.
<mgrwt>
<rscale>  2 0.44539057E+03</rscale>
<asrwt>0</asrwt>
<pdfrwt beam="1">  1       21 0.89253237E-02 0.44539057E+03</pdfrwt>
<pdfrwt beam="2">  1       21 0.12016562E+00 0.44539057E+03</pdfrwt>
<totfact> 0.47696356E+04</totfact>
</mgrwt>
</event>
<event>
 7    0  0.4748297E-002  0.4273772E+03  0.7546771E-02  0.1034692E+00
         21   -1    0    0  502  501  0.00000000000E+00  0.00000000000E+00  0.42222757680E+03  0.42222757680E+03  0.00000000000E+00 0. -1.
         21   -1    0    0  501  502 -0.00000000000E+00 -0.00000000000E+00 -0.10814742070E+03  0.10814742070E+03  0.00000000000E+00 0. -1.
      99926    2    1    2    0    0  0.00000000000E+00 -0.71054273576E-14  0.31408015609E+03  0.53037499750E+03  0.42737722626E+03 0.  0.
      99925    2    3    3    0    0  0.53683387399E+02  0.39515430124E+02  0.26791736245E+03  0.38130492365E+03  0.26300257869E+03 0.  0.
         25    1    3    3    0    0 -0.53683387399E+02 -0.39515430124E+02  0.46162793641E+02  0.14907007385E+03  0.12509000000E+03 0.  0.
         25    1    4    4    0    0  0.25997770105E+02  0.36903194784E+02  0.84511338562E+02  0.15756714214E+03  0.12509000000E+03 0.  0.
         25    1    4    4    0    0  0.27685617294E+02  0.26122353394E+01  0.18340602389E+03  0.22373778151E+03  0.12509000000E+03 0.  0.
<mgrwt>
<rscale>  2 0.42737723E+03</rscale>
<asrwt>0</asrwt>
<pdfrwt beam="1">  1       21 0.62092290E-01 0.42737723E+03</pdfrwt>
<pdfrwt beam="2">  1       21 0.15904033E-01 0.42737723E+03</pdfrwt>
<totfact> 0.79113049E+04</totfact>
</mgrwt>
</event>
<event>
 7    0  0.4748297E-002  0.4577712E+03  0.7546771E-02  0.1025430E+00
         21   -1    0    0  502  501  0.00000000000E+00  0.00000000000E+00  0.11213655409E+03  0.11213655409E+03  0.00000000000E+00 0. -1.
         21   -1    0    0  501  502 -0.00000000000E+00 -0.00000000000E+00 -0.46718597969E+03  0.46718597969E+03  0.00000000000E+00 0. -1.
      99926    2    1    2    0    0  0.14210854715E-13 -0.71054273576E-14 -0.35504942560E+03  0.57932253379E+03  0.45777123493E+03 0.  0.
      99925    2    3    3    0    0 -0.10750490028E+03  0.35435213801E+02 -0.25185098990E+03  0.38155908116E+03  0.26333524896E+03 0.  0.
         25    1    4    4    0    0 -0.29939305615E+02  0.28758098749E+02 -0.75995510104E+02  0.15213880478E+03  0.12509000000E+03 0.  0.
         25    1    3    3    0    0  0.10750490028E+03 -0.35435213801E+02 -0.10319843571E+03  0.19776345262E+03  0.12509000000E+03 0.  0.
         25    1    4    4    0    0 -0.77565594665E+02  0.66771150524E+01 -0.17585547979E+03  0.22942027638E+03  0.12509000000E+03 0.  0.
<mgrwt>
<rscale>  2 0.45777123E+03</rscale>
<asrwt>0</asrwt>
<pdfrwt beam="1">  1       21 0.16490670E-01 0.45777123E+03</pdfrwt>
<pdfrwt beam="2">  1       21 0.68703819E-01 0.45777123E+03</pdfrwt>
<totfact> 0.58673329E+04</totfact>
</mgrwt>
</event>
<event>
 7    0  0.4748297E-002  0.4543551E+03  0.7546771E-02  0.1026431E+00
         21   -1    0    0  502  501  0.00000000000E+00  0.00000000000E+00  0.10270718548E+04  0.10270718548E+04  0.00000000000E+00 0. -1.
         21   -1    0    0  501  502 -0.00000000000E+00 -0.00000000000E+00 -0.50249291681E+02  0.50249291681E+02  0.00000000000E+00 0. -1.
      99926    2    1    2    0    0  0.00000000000E+00  0.00000000000E+00  0.97682256315E+03  0.10773211465E+04  0.45435507353E+03 0.  0.
      99925    2    3    3    0    0 -0.40452473913E+02 -0.69035119995E+02  0.42497899924E+03  0.50584841963E+03  0.26243708467E+03 0.  0.
         25    1    4    4    0    0  0.11101980508E+02 -0.39111117687E+02  0.16271360473E+03  0.20922752869E+03  0.12509000000E+03 0.  0.
         25    1    3    3    0    0  0.40452473913E+02  0.69035119995E+02  0.55184356391E+03  0.57147272688E+03  0.12509000000E+03 0.  0.
         25    1    4    4    0    0 -0.51554454421E+02 -0.29924002308E+02  0.26226539451E+03  0.29662089094E+03  0.12509000000E+03 0.  0.
<mgrwt>
<rscale>  2 0.45435507E+03</rscale>
<asrwt>0</asrwt>
<pdfrwt beam="1">  1       21 0.15103996E+00 0.45435507E+03</pdfrwt>
<pdfrwt beam="2">  1       21 0.73896024E-02 0.45435507E+03</pdfrwt>
<totfact> 0.36473796E+04</totfact>
</mgrwt>
</event>
<event>
 7    0  0.4748297E-002  0.4566315E+03  0.7546771E-02  0.1025763E+00
         21   -1    0    0  502  501  0.00000000000E+00  0.00000000000E+00  0.26664086321E+03  0.26664086321E+03  0.00000000000E+00 0.  1.
         21   -1    0    0  501  502 -0.00000000000E+00 -0.00000000000E+00 -0.19549925639E+03  0.19549925639E+03  0.00000000000E+00 0.  1.
      99926    2    1    2    0    0  0.00000000000E+00  0.14210854715E-13  0.71141606818E+02  0.46214011960E+03  0.45663153847E+03 0.  0.
      99925    2    3    3    0    0  0.22940465622E+02 -0.90856863280E+02  0.11152707818E+03  0.30070985922E+03  0.26307203519E+03 0.  0.
         25    1    3    3    0    0 -0.22940465622E+02  0.90856863280E+02 -0.40385471365E+02  0.16143026038E+03  0.12509000000E+03 0.  0.
         25    1    4    4    0    0  0.39173763310E+02 -0.72215989473E+02  0.78488719996E+02  0.16899029598E+03  0.12509000000E+03 0.  0.
         25    1    4    4    0    0 -0.16233297689E+02 -0.18640873807E+02  0.33038358186E+02  0.13171956325E+03  0.12509000000E+03 0.  0.
<mgrwt>
<rscale>  2 0.45663154E+03</rscale>
<asrwt>0</asrwt>
<pdfrwt beam="1">  1       21 0.39211891E-01 0.45663154E+03</pdfrwt>
<pdfrwt beam="2">  1       21 0.28749891E-01 0.45663154E+03</pdfrwt>
<totfact> 0.67146963E+04</totfact>
</mgrwt>
</event>
<event>
 7    0  0.4748297E-002  0.4519154E+03  0.7546771E-02  0.1027152E+00
         21   -1    0    0  502  501  0.00000000000E+00  0.00000000000E+00  0.12908549319E+03  0.12908549319E+03  0.00000000000E+00 0. -1.
         21   -1    0    0  501  502 -0.00000000000E+00 -0.00000000000E+00 -0.39552762889E+03  0.39552762889E+03  0.00000000000E+00 0. -1.
      99926    2    1    2    0    0  0.00000000000E+00  0.00000000000E+00 -0.26644213570E+03  0.52461312208E+03  0.45191538608E+03 0.  0.
      99925    2    3    3    0    0  0.92332763760E+02 -0.58341681705E+02 -0.18665984731E+03  0.34038008288E+03  0.26284522278E+03 0.  0.
         25    1    4    4    0    0  0.57712958787E+02 -0.19862475311E+02 -0.49665901560E+02  0.14778197933E+03  0.12509000000E+03 0.  0.
         25    1    4    4    0    0  0.34619804972E+02 -0.38479206395E+02 -0.13699394575E+03  0.19259810355E+03  0.12509000000E+03 0.  0.
         25    1    3    3    0    0 -0.92332763760E+02  0.58341681705E+02 -0.79782288399E+02  0.18423303919E+03  0.12509000000E+03 0.  0.
<mgrwt>
<rscale>  2 0.45191539E+03</rscale>
<asrwt>0</asrwt>
<pdfrwt beam="1">  1       21 0.18983161E-01 0.45191539E+03</pdfrwt>
<pdfrwt beam="2">  1       21 0.58165828E-01 0.45191539E+03</pdfrwt>
<totfact> 0.65151185E+04</totfact>
</mgrwt>
</event>
<event>
 7    0  0.4748297E-002  0.4585668E+03  0.7546771E-02  0.1025198E+00
         21   -1    0    0  502  501  0.00000000000E+00  0.00000000000E+00  0.30553303061E+03  0.30553303061E+03  0.00000000000E+00 0. -1.
         21   -1    0    0  501  502 -0.00000000000E+00 -0.00000000000E+00 -0.17206282597E+03  0.17206282597E+03  0.00000000000E+00 0. -1.
      99926    2    1    2    0    0  0.00000000000E+00  0.14210854715E-13  0.13347020464E+03  0.47759585658E+03  0.45856679632E+03 0.  0.
      99925    2    3    3    0    0  0.11142087519E+02 -0.11403681053E+03  0.10519556303E+03  0.30562055682E+03  0.26307656300E+03 0.  0.
         25    1    4    4    0    0  0.73132769065E+01 -0.93109273773E+02  0.83015275228E+02  0.17681025112E+03  0.12509000000E+03 0.  0.
         25    1    4    4    0    0  0.38288106123E+01 -0.20927536752E+02  0.22180287798E+02  0.12881030569E+03  0.12509000000E+03 0.  0.
         25    1    3    3    0    0 -0.11142087519E+02  0.11403681053E+03  0.28274641616E+02  0.17197529976E+03  0.12509000000E+03 0.  0.
<mgrwt>
<rscale>  2 0.45856680E+03</rscale>
<asrwt>0</asrwt>
<pdfrwt beam="1">  1       21 0.44931328E-01 0.45856680E+03</pdfrwt>
<pdfrwt beam="2">  1       21 0.25303357E-01 0.45856680E+03</pdfrwt>
<totfact> 0.65015605E+04</totfact>
</mgrwt>
</event>
<event>
 7    0  0.4748297E-002  0.4461396E+03  0.7546771E-02  0.1028880E+00
         21   -1    0    0  502  501  0.00000000000E+00  0.00000000000E+00  0.97626563482E+03  0.97626563482E+03  0.00000000000E+00 0.  1.
         21   -1    0    0  501  502 -0.00000000000E+00 -0.00000000000E+00 -0.50969882958E+02  0.50969882958E+02  0.00000000000E+00 0.  1.
      99926    2    1    2    0    0  0.35527136788E-14  0.00000000000E+00  0.92529575186E+03  0.10272355178E+04  0.44613964246E+03 0.  0.
      99925    2    3    3    0    0 -0.22477846314E+02  0.10225971500E+03  0.58592722465E+03  0.65069759373E+03  0.26293410393E+03 0.  0.
         25    1    3    3    0    0  0.22477846314E+02 -0.10225971500E+03  0.33936852721E+03  0.37653792405E+03  0.12509000000E+03 0.  0.
         25    1    4    4    0    0 -0.44239125973E+02  0.46338025118E+02  0.34748071305E+03  0.37482618223E+03  0.12509000000E+03 0.  0.
         25    1    4    4    0    0  0.21761279659E+02  0.55921689880E+02  0.23844651160E+03  0.27587141150E+03  0.12509000000E+03 0.  0.
<mgrwt>
<rscale>  2 0.44613964E+03</rscale>
<asrwt>0</asrwt>
<pdfrwt beam="1">  1       21 0.14356846E+00 0.44613964E+03</pdfrwt>
<pdfrwt beam="2">  1       21 0.74955716E-02 0.44613964E+03</pdfrwt>
<totfact> 0.40879353E+04</totfact>
</mgrwt>
</event>
<event>
 7    0  0.4748297E-002  0.4540121E+03  0.7546771E-02  0.1026532E+00
         21   -1    0    0  502  501  0.00000000000E+00  0.00000000000E+00  0.14865529317E+03  0.14865529317E+03  0.00000000000E+00 0. -1.
         21   -1    0    0  501  502 -0.00000000000E+00 -0.00000000000E+00 -0.34665266590E+03  0.34665266590E+03  0.00000000000E+00 0. -1.
      99926    2    1    2    0    0  0.71054273576E-14 -0.17763568394E-14 -0.19799737272E+03  0.49530795907E+03  0.45401213058E+03 0.  0.
      99925    2    3    3    0    0 -0.47156430461E+02  0.10041971947E+02 -0.23517666375E+03  0.35618794643E+03  0.26312966362E+03 0.  0.
         25    1    3    3    0    0  0.47156430461E+02 -0.10041971947E+02  0.37179291029E+02  0.13912001264E+03  0.12509000000E+03 0.  0.
         25    1    4    4    0    0 -0.12138097543E+02  0.15928396533E+02 -0.66097616105E+02  0.14288964337E+03  0.12509000000E+03 0.  0.
         25    1    4    4    0    0 -0.35018332918E+02 -0.58864245861E+01 -0.16907904765E+03  0.21329830306E+03  0.12509000000E+03 0.  0.
<mgrwt>
<rscale>  2 0.45401213E+03</rscale>
<asrwt>0</asrwt>
<pdfrwt beam="1">  1       21 0.21861072E-01 0.45401213E+03</pdfrwt>
<pdfrwt beam="2">  1       21 0.50978333E-01 0.45401213E+03</pdfrwt>
<totfact> 0.66118553E+04</totfact>
</mgrwt>
</event>
<event>
 7    0  0.4748297E-002  0.4612173E+03  0.7546771E-02  0.1024429E+00
         21   -1    0    0  502  501  0.00000000000E+00  0.00000000000E+00  0.12003308234E+03  0.12003308234E+03  0.00000000000E+00 0.  1.
         21   -1    0    0  501  502 -0.00000000000E+00 -0.00000000000E+00 -0.44304749703E+03  0.44304749703E+03  0.00000000000E+00 0.  1.
      99926    2    1    2    0    0  0.00000000000E+00 -0.14210854715E-13 -0.32301441468E+03  0.56308057937E+03  0.46121733138E+03 0.  0.
      99925    2    3    3    0    0  0.46929396810E+02  0.10830640617E+03 -0.18447148553E+03  0.34223154219E+03  0.26298299107E+03 0.  0.
         25    1    3    3    0    0 -0.46929396810E+02 -0.10830640617E+03 -0.13854292916E+03  0.22084903718E+03  0.12509000000E+03 0.  0.
         25    1    4    4    0    0  0.19015184226E+02  0.75415402564E+02 -0.55358391809E+02  0.15735666436E+03  0.12509000000E+03 0.  0.
         25    1    4    4    0    0  0.27914212584E+02  0.32891003609E+02 -0.12911309372E+03  0.18487487783E+03  0.12509000000E+03 0.  0.
<mgrwt>
<rscale>  2 0.46121733E+03</rscale>
<asrwt>0</asrwt>
<pdfrwt beam="1">  1       21 0.17651924E-01 0.46121733E+03</pdfrwt>
<pdfrwt beam="2">  1       21 0.65154044E-01 0.46121733E+03</pdfrwt>
<totfact> 0.58100088E+04</totfact>
</mgrwt>
</event>
<event>
 7    0  0.4748297E-002  0.4621952E+03  0.7546771E-02  0.1024146E+00
         21   -1    0    0  502  501  0.00000000000E+00  0.00000000000E+00  0.52274194957E+03  0.52274194957E+03  0.00000000000E+00 0. -1.
         21   -1    0    0  501  502 -0.00000000000E+00 -0.00000000000E+00 -0.10216533814E+03  0.10216533814E+03  0.00000000000E+00 0. -1.
      99926    2    1    2    0    0  0.00000000000E+00  0.00000000000E+00  0.42057661143E+03  0.62490728770E+03  0.46219523163E+03 0.  0.
      99925    2    3    3    0    0  0.79427887400E+02 -0.89314062977E+02  0.25182899560E+03  0.38322762970E+03  0.26298247470E+03 0.  0.
         25    1    3    3    0    0 -0.79427887400E+02  0.89314062977E+02  0.16874761583E+03  0.24167965800E+03  0.12509000000E+03 0.  0.
         25    1    4    4    0    0  0.75350896314E+02 -0.25725043856E+02  0.13657044585E+03  0.20159000530E+03  0.12509000000E+03 0.  0.
         25    1    4    4    0    0  0.40769910859E+01 -0.63589019121E+02  0.11525854974E+03  0.18163762440E+03  0.12509000000E+03 0.  0.
<mgrwt>
<rscale>  2 0.46219523E+03</rscale>
<asrwt>0</asrwt>
<pdfrwt beam="1">  1       21 0.76873815E-01 0.46219523E+03</pdfrwt>
<pdfrwt beam="2">  1       21 0.15024315E-01 0.46219523E+03</pdfrwt>
<totfact> 0.54034906E+04</totfact>
</mgrwt>
</event>
<event>
 7    0  0.4748297E-002  0.4492440E+03  0.7546771E-02  0.1027948E+00
         21   -1    0    0  502  501  0.00000000000E+00  0.00000000000E+00  0.38646556313E+03  0.38646556313E+03  0.00000000000E+00 0. -1.
         21   -1    0    0  501  502 -0.00000000000E+00 -0.00000000000E+00 -0.13055507467E+03  0.13055507467E+03  0.00000000000E+00 0. -1.
      99926    2    1    2    0    0  0.16098233857E-14  0.00000000000E+00  0.25591048846E+03  0.51702063779E+03  0.44924398916E+03 0.  0.
      99925    2    3    3    0    0  0.48374082255E+00  0.10707838849E+03  0.17455028026E+03  0.33335516236E+03  0.26304343490E+03 0.  0.
         25    1    3    3    0    0 -0.48374082255E+00 -0.10707838849E+03  0.81360208204E+02  0.18366547543E+03  0.12509000000E+03 0.  0.
         25    1    4    4    0    0 -0.15568528217E+02  0.54169579987E+02  0.43484054593E+02  0.14392738993E+03  0.12509000000E+03 0.  0.
         25    1    4    4    0    0  0.16052269039E+02  0.52908808507E+02  0.13106622566E+03  0.18942777243E+03  0.12509000000E+03 0.  0.
<mgrwt>
<rscale>  2 0.44924399E+03</rscale>
<asrwt>0</asrwt>
<pdfrwt beam="1">  1       21 0.56833171E-01 0.44924399E+03</pdfrwt>
<pdfrwt beam="2">  1       21 0.19199276E-01 0.44924399E+03</pdfrwt>
<totfact> 0.67103079E+04</totfact>
</mgrwt>
</event>
<event>
 7    0  0.4748297E-002  0.4566619E+03  0.7546771E-02  0.1025754E+00
         21   -1    0    0  502  501  0.00000000000E+00  0.00000000000E+00  0.10155625405E+04  0.10155625405E+04  0.00000000000E+00 0.  1.
         21   -1    0    0  501  502 -0.00000000000E+00 -0.00000000000E+00 -0.51336107750E+02  0.51336107750E+02  0.00000000000E+00 0.  1.
      99926    2    1    2    0    0  0.00000000000E+00  0.00000000000E+00  0.96422643272E+03  0.10668986482E+04  0.45666192311E+03 0.  0.
      99925    2    3    3    0    0 -0.69574313514E+02 -0.71957118096E+02  0.73681921067E+03  0.78872610341E+03  0.26299791832E+03 0.  0.
         25    1    4    4    0    0 -0.10444762560E+02 -0.16002061397E+01  0.35612867984E+03  0.37760667159E+03  0.12509000000E+03 0.  0.
         25    1    4    4    0    0 -0.59129550954E+02 -0.70356911956E+02  0.38069053083E+03  0.41111943182E+03  0.12509000000E+03 0.  0.
         25    1    3    3    0    0  0.69574313514E+02  0.71957118096E+02  0.22740722205E+03  0.27817254481E+03  0.12509000000E+03 0.  0.
<mgrwt>
<rscale>  2 0.45666192E+03</rscale>
<asrwt>0</asrwt>
<pdfrwt beam="1">  1       21 0.14934742E+00 0.45666192E+03</pdfrwt>
<pdfrwt beam="2">  1       21 0.75494283E-02 0.45666192E+03</pdfrwt>
<totfact> 0.36191711E+04</totfact>
</mgrwt>
</event>
<event>
 7    0  0.4748297E-002  0.4598933E+03  0.7546771E-02  0.1024812E+00
         21   -1    0    0  502  501  0.00000000000E+00  0.00000000000E+00  0.10117191272E+03  0.10117191272E+03  0.00000000000E+00 0. -1.
         21   -1    0    0  501  502 -0.00000000000E+00 -0.00000000000E+00 -0.52262989286E+03  0.52262989286E+03  0.00000000000E+00 0. -1.
      99926    2    1    2    0    0  0.00000000000E+00  0.00000000000E+00 -0.42145798014E+03  0.62380180558E+03  0.45989331766E+03 0.  0.
      99925    2    3    3    0    0 -0.96054012367E+02 -0.67971958662E+02 -0.25637158791E+03  0.38558428848E+03  0.26287314807E+03 0.  0.
         25    1    3    3    0    0  0.96054012367E+02  0.67971958662E+02 -0.16508639223E+03  0.23821751710E+03  0.12509000000E+03 0.  0.
         25    1    4    4    0    0 -0.88050053581E+02 -0.46532362828E+02 -0.12715971417E+03  0.20429188367E+03  0.12509000000E+03 0.  0.
         25    1    4    4    0    0 -0.80039587858E+01 -0.21439595834E+02 -0.12921187374E+03  0.18129240481E+03  0.12509000000E+03 0.  0.
<mgrwt>
<rscale>  2 0.45989332E+03</rscale>
<asrwt>0</asrwt>
<pdfrwt beam="1">  1       21 0.14878223E-01 0.45989332E+03</pdfrwt>
<pdfrwt beam="2">  1       21 0.76857335E-01 0.45989332E+03</pdfrwt>
<totfact> 0.55077537E+04</totfact>
</mgrwt>
</event>
<event>
 7    0  0.4748297E-002  0.4552884E+03  0.7546771E-02  0.1026157E+00
         21   -1    0    0  502  501  0.00000000000E+00  0.00000000000E+00  0.15007109544E+04  0.15007109544E+04  0.00000000000E+00 0. -1.
         21   -1    0    0  501  502 -0.00000000000E+00 -0.00000000000E+00 -0.34531551951E+02  0.34531551951E+02  0.00000000000E+00 0. -1.
      99926    2    1    2    0    0  0.00000000000E+00  0.00000000000E+00  0.14661794025E+04  0.15352425064E+04  0.45528838460E+03 0.  0.
      99925    2    3    3    0    0  0.55736656989E+02  0.35558038992E+02  0.61120263923E+03  0.66863779669E+03  0.26293894327E+03 0.  0.
         25    1    3    3    0    0 -0.55736656989E+02 -0.35558038992E+02  0.85497676324E+03  0.86660470969E+03  0.12509000000E+03 0.  0.
         25    1    4    4    0    0 -0.10612402826E+02  0.18336746341E+01  0.27980694626E+03  0.30668456226E+03  0.12509000000E+03 0.  0.
         25    1    4    4    0    0  0.66349059815E+02  0.33724364358E+02  0.33139569297E+03  0.36195323443E+03  0.12509000000E+03 0.  0.
<mgrwt>
<rscale>  2 0.45528838E+03</rscale>
<asrwt>0</asrwt>
<pdfrwt beam="1">  1       21 0.22069274E+00 0.45528838E+03</pdfrwt>
<pdfrwt beam="2">  1       21 0.50781704E-02 0.45528838E+03</pdfrwt>
<totfact> 0.22877185E+04</totfact>
</mgrwt>
</event>
<event>
 7    0  0.4748297E-002  0.4533556E+03  0.7546771E-02  0.1026726E+00
         21   -1    0    0  502  501  0.00000000000E+00  0.00000000000E+00  0.17094880848E+04  0.17094880848E+04  0.00000000000E+00 0.  1.
         21   -1    0    0  501  502 -0.00000000000E+00 -0.00000000000E+00 -0.30057432581E+02  0.30057432581E+02  0.00000000000E+00 0.  1.
      99926    2    1    2    0    0  0.00000000000E+00  0.00000000000E+00  0.16794306522E+04  0.17395455174E+04  0.45335559049E+03 0.  0.
      99925    2    3    3    0    0  0.45963833976E+02 -0.85117499918E+02  0.12717374870E+04  0.13022596979E+04  0.26307113524E+03 0.  0.
         25    1    4    4    0    0  0.28256452532E+02 -0.52189780841E+00  0.57771208961E+03  0.59177484406E+03  0.12509000000E+03 0.  0.
         25    1    3    3    0    0 -0.45963833976E+02  0.85117499918E+02  0.40769316528E+03  0.43728581951E+03  0.12509000000E+03 0.  0.
         25    1    4    4    0    0  0.17707381444E+02 -0.84595602110E+02  0.69402539735E+03  0.71048485383E+03  0.12509000000E+03 0.  0.
<mgrwt>
<rscale>  2 0.45335559E+03</rscale>
<asrwt>0</asrwt>
<pdfrwt beam="1">  1       21 0.25139524E+00 0.45335559E+03</pdfrwt>
<pdfrwt beam="2">  1       21 0.44202118E-02 0.45335559E+03</pdfrwt>
<totfact> 0.18687993E+04</totfact>
</mgrwt>
</event>
<event>
 7    0  0.4748297E-002  0.4535955E+03  0.7546771E-02  0.1026655E+00
         21   -1    0    0  502  501  0.00000000000E+00  0.00000000000E+00  0.11267261878E+03  0.11267261878E+03  0.00000000000E+00 0. -1.
         21   -1    0    0  501  502 -0.00000000000E+00 -0.00000000000E+00 -0.45651920768E+03  0.45651920768E+03  0.00000000000E+00 0. -1.
      99926    2    1    2    0    0  0.00000000000E+00  0.00000000000E+00 -0.34384658890E+03  0.56919182646E+03  0.45359547905E+03 0.  0.
      99925    2    3    3    0    0  0.10310416486E+03 -0.27075367852E+02 -0.25919005567E+03  0.38431948923E+03  0.26297992411E+03 0.  0.
         25    1    4    4    0    0  0.16912555223E+02 -0.44088173121E+01 -0.85831802189E+02  0.15270913058E+03  0.12509000000E+03 0.  0.
         25    1    3    3    0    0 -0.10310416486E+03  0.27075367852E+02 -0.84656533234E+02  0.18487233724E+03  0.12509000000E+03 0.  0.
         25    1    4    4    0    0  0.86191609640E+02 -0.22666550540E+02 -0.17335825348E+03  0.23161035865E+03  0.12509000000E+03 0.  0.
<mgrwt>
<rscale>  2 0.45359548E+03</rscale>
<asrwt>0</asrwt>
<pdfrwt beam="1">  1       21 0.16569503E-01 0.45359548E+03</pdfrwt>
<pdfrwt beam="2">  1       21 0.67135177E-01 0.45359548E+03</pdfrwt>
<totfact> 0.61293784E+04</totfact>
</mgrwt>
</event>
<event>
 7    0  0.4748297E-002  0.4486567E+03  0.7546771E-02  0.1028123E+00
         21   -1    0    0  502  501  0.00000000000E+00  0.00000000000E+00  0.34173128642E+03  0.34173128642E+03  0.00000000000E+00 0.  1.
         21   -1    0    0  501  502 -0.00000000000E+00 -0.00000000000E+00 -0.14725960701E+03  0.14725960701E+03  0.00000000000E+00 0.  1.
      99926    2    1    2    0    0  0.00000000000E+00 -0.17763568394E-14  0.19447167941E+03  0.48899089343E+03  0.44865672821E+03 0.  0.
      99925    2    3    3    0    0  0.97467882738E+01  0.11821525883E+02  0.23855018613E+03  0.35547995302E+03  0.26310655130E+03 0.  0.
         25    1    3    3    0    0 -0.97467882738E+01 -0.11821525883E+02 -0.44078506723E+02  0.13351094042E+03  0.12509000000E+03 0.  0.
         25    1    4    4    0    0 -0.13236234558E+02  0.16480476459E+02  0.72003424503E+02  0.14587256510E+03  0.12509000000E+03 0.  0.
         25    1    4    4    0    0  0.22983022832E+02 -0.46589505763E+01  0.16654676163E+03  0.20960738791E+03  0.12509000000E+03 0.  0.
<mgrwt>
<rscale>  2 0.44865673E+03</rscale>
<asrwt>0</asrwt>
<pdfrwt beam="1">  1       21 0.50254601E-01 0.44865673E+03</pdfrwt>
<pdfrwt beam="2">  1       21 0.21655825E-01 0.44865673E+03</pdfrwt>
<totfact> 0.69484901E+04</totfact>
</mgrwt>
</event>
<event>
 7    0  0.4748297E-002  0.4409060E+03  0.7546771E-02  0.1030469E+00
         21   -1    0    0  502  501  0.00000000000E+00  0.00000000000E+00  0.49857760414E+03  0.49857760414E+03  0.00000000000E+00 0. -1.
         21   -1    0    0  501  502 -0.00000000000E+00 -0.00000000000E+00 -0.97476349607E+02  0.97476349607E+02  0.00000000000E+00 0. -1.
      99926    2    1    2    0    0  0.00000000000E+00 -0.35527136788E-14  0.40110125454E+03  0.59605395375E+03  0.44090599836E+03 0.  0.
      99925    2    3    3    0    0  0.93796281677E+02  0.27895205460E+02  0.23016592290E+03  0.36272525717E+03  0.26271158175E+03 0.  0.
         25    1    4    4    0    0  0.36281015964E+02 -0.22830114608E+02  0.91163045466E+02  0.16061050779E+03  0.12509000000E+03 0.  0.
         25    1    3    3    0    0 -0.93796281677E+02 -0.27895205460E+02  0.17093533164E+03  0.23332869658E+03  0.12509000000E+03 0.  0.
         25    1    4    4    0    0  0.57515265712E+02  0.50725320068E+02  0.13900287743E+03  0.20211474939E+03  0.12509000000E+03 0.  0.
<mgrwt>
<rscale>  2 0.44090600E+03</rscale>
<asrwt>0</asrwt>
<pdfrwt beam="1">  1       21 0.73320235E-01 0.44090600E+03</pdfrwt>
<pdfrwt beam="2">  1       21 0.14334757E-01 0.44090600E+03</pdfrwt>
<totfact> 0.65967036E+04</totfact>
</mgrwt>
</event>
<event>
 7    0  0.4748297E-002  0.4426045E+03  0.7546771E-02  0.1029951E+00
         21   -1    0    0  502  501  0.00000000000E+00  0.00000000000E+00  0.34795453494E+03  0.34795453494E+03  0.00000000000E+00 0. -1.
         21   -1    0    0  501  502 -0.00000000000E+00 -0.00000000000E+00 -0.14075022012E+03  0.14075022012E+03  0.00000000000E+00 0. -1.
      99926    2    1    2    0    0  0.71054273576E-14  0.00000000000E+00  0.20720431482E+03  0.48870475505E+03  0.44260446172E+03 0.  0.
      99925    2    3    3    0    0  0.59452731156E+02  0.47809606087E+02  0.58653660423E+02  0.28005387272E+03  0.26300101534E+03 0.  0.
         25    1    3    3    0    0 -0.59452731156E+02 -0.47809606087E+02  0.14855065440E+03  0.20865088233E+03  0.12509000000E+03 0.  0.
         25    1    4    4    0    0  0.26165584680E+02  0.12453680191E+02 -0.10990623279E+02  0.12887216097E+03  0.12509000000E+03 0.  0.
         25    1    4    4    0    0  0.33287146477E+02  0.35355925895E+02  0.69644283703E+02  0.15118171175E+03  0.12509000000E+03 0.  0.
<mgrwt>
<rscale>  2 0.44260446E+03</rscale>
<asrwt>0</asrwt>
<pdfrwt beam="1">  1       21 0.51169784E-01 0.44260446E+03</pdfrwt>
<pdfrwt beam="2">  1       21 0.20698562E-01 0.44260446E+03</pdfrwt>
<totfact> 0.72994301E+04</totfact>
</mgrwt>
</event>
<event>
 7    0  0.4748297E-002  0.4559079E+03  0.7546771E-02  0.1025975E+00
         21   -1    0    0  502  501  0.00000000000E+00  0.00000000000E+00  0.13385600506E+04  0.13385600506E+04  0.00000000000E+00 0. -1.
         21   -1    0    0  501  502 -0.00000000000E+00 -0.00000000000E+00 -0.38820084581E+02  0.38820084581E+02  0.00000000000E+00 0. -1.
      99926    2    1    2    0    0  0.00000000000E+00  0.71054273576E-14  0.12997399660E+04  0.13773801351E+04  0.45590794851E+03 0.  0.
      99925    2    3    3    0    0  0.87931654540E+02 -0.56034786365E+02  0.67755587103E+03  0.73423751545E+03  0.26296558249E+03 0.  0.
         25    1    4    4    0    0  0.29913329055E+02 -0.16879280612E+02  0.41881747529E+03  0.43844646546E+03  0.12509000000E+03 0.  0.
         25    1    3    3    0    0 -0.87931654540E+02  0.56034786365E+02  0.62218409496E+03  0.64314261970E+03  0.12509000000E+03 0.  0.
         25    1    4    4    0    0  0.58018325485E+02 -0.39155505753E+02  0.25873839574E+03  0.29579104999E+03  0.12509000000E+03 0.  0.
<mgrwt>
<rscale>  2 0.45590795E+03</rscale>
<asrwt>0</asrwt>
<pdfrwt beam="1">  1       21 0.19684704E+00 0.45590795E+03</pdfrwt>
<pdfrwt beam="2">  1       21 0.57088368E-02 0.45590795E+03</pdfrwt>
<totfact> 0.26751801E+04</totfact>
</mgrwt>
</event>
<event>
 7    0  0.4748297E-002  0.4548530E+03  0.7546771E-02  0.1026285E+00
         21   -1    0    0  502  501  0.00000000000E+00  0.00000000000E+00  0.28957501188E+03  0.28957501188E+03  0.00000000000E+00 0. -1.
         21   -1    0    0  501  502 -0.00000000000E+00 -0.00000000000E+00 -0.17861625586E+03  0.17861625586E+03  0.00000000000E+00 0. -1.
      99926    2    1    2    0    0  0.00000000000E+00  0.00000000000E+00  0.11095875602E+03  0.46819126775E+03  0.45485296268E+03 0.  0.
      99925    2    3    3    0    0 -0.97089883545E+02  0.57913347383E+02  0.73065195864E+02  0.29537971925E+03  0.26292632886E+03 0.  0.
         25    1    4    4    0    0 -0.18585349449E+02  0.34037398478E+02  0.50981665128E+01  0.13106280598E+03  0.12509000000E+03 0.  0.
         25    1    3    3    0    0  0.97089883545E+02 -0.57913347383E+02  0.37893560156E+02  0.17281154849E+03  0.12509000000E+03 0.  0.
         25    1    4    4    0    0 -0.78504534095E+02  0.23875948905E+02  0.67967029351E+02  0.16431691328E+03  0.12509000000E+03 0.  0.
<mgrwt>
<rscale>  2 0.45485296E+03</rscale>
<asrwt>0</asrwt>
<pdfrwt beam="1">  1       21 0.42584561E-01 0.45485296E+03</pdfrwt>
<pdfrwt beam="2">  1       21 0.26267096E-01 0.45485296E+03</pdfrwt>
<totfact> 0.67649436E+04</totfact>
</mgrwt>
</event>
<event>
 7    0  0.4748297E-002  0.4614284E+03  0.7546771E-02  0.1024368E+00
         21   -1    0    0  502  501  0.00000000000E+00  0.00000000000E+00  0.10693629260E+03  0.10693629260E+03  0.00000000000E+00 0. -1.
         21   -1    0    0  501  502 -0.00000000000E+00 -0.00000000000E+00 -0.49776411479E+03  0.49776411479E+03  0.00000000000E+00 0. -1.
      99926    2    1    2    0    0  0.00000000000E+00  0.00000000000E+00 -0.39082782219E+03  0.60470040739E+03  0.46142843010E+03 0.  0.
      99925    2    3    3    0    0  0.20211151158E+02 -0.10337759282E+03 -0.17175830039E+03  0.33132451085E+03  0.26302015210E+03 0.  0.
         25    1    4    4    0    0  0.10514803234E+02 -0.76154697156E+02 -0.13059846847E+03  0.19650335125E+03  0.12509000000E+03 0.  0.
         25    1    3    3    0    0 -0.20211151158E+02  0.10337759282E+03 -0.21906952180E+03  0.27337589654E+03  0.12509000000E+03 0.  0.
         25    1    4    4    0    0  0.96963479243E+01 -0.27222895664E+02 -0.41159831916E+02  0.13482115960E+03  0.12509000000E+03 0.  0.
<mgrwt>
<rscale>  2 0.46142843E+03</rscale>
<asrwt>0</asrwt>
<pdfrwt beam="1">  1       21 0.15725925E-01 0.46142843E+03</pdfrwt>
<pdfrwt beam="2">  1       21 0.73200607E-01 0.46142843E+03</pdfrwt>
<totfact> 0.55516169E+04</totfact>
</mgrwt>
</event>
<event>
 7    0  0.4748297E-002  0.4550971E+03  0.7546771E-02  0.1026213E+00
         21   -1    0    0  502  501  0.00000000000E+00  0.00000000000E+00  0.36417860138E+03  0.36417860138E+03  0.00000000000E+00 0. -1.
         21   -1    0    0  501  502 -0.00000000000E+00 -0.00000000000E+00 -0.14217842450E+03  0.14217842450E+03  0.00000000000E+00 0. -1.
      99926    2    1    2    0    0  0.00000000000E+00  0.00000000000E+00  0.22200017689E+03  0.50635702588E+03  0.45509708758E+03 0.  0.
      99925    2    3    3    0    0 -0.61991146287E+02  0.43924083473E+02  0.46147419627E+02  0.27756907239E+03  0.26295014410E+03 0.  0.
         25    1    4    4    0    0 -0.53617669124E+02  0.56441639653E+02  0.17617350670E+02  0.14838595713E+03  0.12509000000E+03 0.  0.
         25    1    4    4    0    0 -0.83734771629E+01 -0.12517556181E+02  0.28530068957E+02  0.12918311526E+03  0.12509000000E+03 0.  0.
         25    1    3    3    0    0  0.61991146287E+02 -0.43924083473E+02  0.17585275726E+03  0.22878795349E+03  0.12509000000E+03 0.  0.
<mgrwt>
<rscale>  2 0.45509709E+03</rscale>
<asrwt>0</asrwt>
<pdfrwt beam="1">  1       21 0.53555677E-01 0.45509709E+03</pdfrwt>
<pdfrwt beam="2">  1       21 0.20908592E-01 0.45509709E+03</pdfrwt>
<totfact> 0.64776399E+04</totfact>
</mgrwt>
</event>
<event>
 7    0  0.4748297E-002  0.4592055E+03  0.7546771E-02  0.1025012E+00
         21   -1    0    0  502  501  0.00000000000E+00  0.00000000000E+00  0.42310456869E+03  0.42310456869E+03  0.00000000000E+00 0. -1.
         21   -1    0    0  501  502 -0.00000000000E+00 -0.00000000000E+00 -0.12459665189E+03  0.12459665189E+03  0.00000000000E+00 0. -1.
      99926    2    1    2    0    0  0.71054273576E-14  0.14210854715E-13  0.29850791680E+03  0.54770122059E+03  0.45920545580E+03 0.  0.
      99925    2    3    3    0    0  0.54959344498E+02  0.67054854104E+02  0.28060005791E+03  0.39445278661E+03  0.26332437288E+03 0.  0.
         25    1    4    4    0    0  0.59758888600E+02  0.19773016606E+02  0.11270380316E+03  0.17975470035E+03  0.12509000000E+03 0.  0.
         25    1    3    3    0    0 -0.54959344498E+02 -0.67054854104E+02  0.17907858890E+02  0.15324843398E+03  0.12509000000E+03 0.  0.
         25    1    4    4    0    0 -0.47995441015E+01  0.47281837498E+02  0.16789625476E+03  0.21469808626E+03  0.12509000000E+03 0.  0.
<mgrwt>
<rscale>  2 0.45920546E+03</rscale>
<asrwt>0</asrwt>
<pdfrwt beam="1">  1       21 0.62221260E-01 0.45920546E+03</pdfrwt>
<pdfrwt beam="2">  1       21 0.18323037E-01 0.45920546E+03</pdfrwt>
<totfact> 0.59997176E+04</totfact>
</mgrwt>
</event>
<event>
 7    0  0.4748297E-002  0.4474400E+03  0.7546771E-02  0.1028488E+00
         21   -1    0    0  502  501  0.00000000000E+00  0.00000000000E+00  0.59996006401E+03  0.59996006401E+03  0.00000000000E+00 0. -1.
         21   -1    0    0  501  502 -0.00000000000E+00 -0.00000000000E+00 -0.83423264753E+02  0.83423264753E+02  0.00000000000E+00 0. -1.
      99926    2    1    2    0    0  0.00000000000E+00  0.00000000000E+00  0.51653679926E+03  0.68338332877E+03  0.44743995021E+03 0.  0.
      99925    2    3    3    0    0 -0.78921594899E+02  0.55549641568E+02  0.39455546647E+03  0.48378038673E+03  0.26278330549E+03 0.  0.
         25    1    4    4    0    0 -0.68589847877E+02  0.28759226166E+02  0.25913737139E+03  0.29720589778E+03  0.12509000000E+03 0.  0.
         25    1    3    3    0    0  0.78921594899E+02 -0.55549641568E+02  0.12198133279E+03  0.19960294203E+03  0.12509000000E+03 0.  0.
         25    1    4    4    0    0 -0.10331747023E+02  0.26790415402E+02  0.13541809508E+03  0.18657448896E+03  0.12509000000E+03 0.  0.
<mgrwt>
<rscale>  2 0.44743995E+03</rscale>
<asrwt>0</asrwt>
<pdfrwt beam="1">  1       21 0.88229419E-01 0.44743995E+03</pdfrwt>
<pdfrwt beam="2">  1       21 0.12268127E-01 0.44743995E+03</pdfrwt>
<totfact> 0.57140672E+04</totfact>
</mgrwt>
</event>
<event>
 7    0  0.4748297E-002  0.4503206E+03  0.7546771E-02  0.1027626E+00
         21   -1    0    0  502  501  0.00000000000E+00  0.00000000000E+00  0.70491040696E+02  0.70491040696E+02  0.00000000000E+00 0. -1.
         21   -1    0    0  501  502 -0.00000000000E+00 -0.00000000000E+00 -0.71920020679E+03  0.71920020679E+03  0.00000000000E+00 0. -1.
      99926    2    1    2    0    0  0.00000000000E+00  0.00000000000E+00 -0.64870916610E+03  0.78969124749E+03  0.45032064597E+03 0.  0.
      99925    2    3    3    0    0  0.37743474532E+02  0.67144559760E+02 -0.27578219245E+03  0.38887333678E+03  0.26312296100E+03 0.  0.
         25    1    3    3    0    0 -0.37743474532E+02 -0.67144559760E+02 -0.37292697365E+03  0.40081791071E+03  0.12509000000E+03 0.  0.
         25    1    4    4    0    0  0.96438409170E+01  0.41742402731E+02 -0.83517458825E+02  0.15639087532E+03  0.12509000000E+03 0.  0.
         25    1    4    4    0    0  0.28099633615E+02  0.25402157029E+02 -0.19226473362E+03  0.23248246146E+03  0.12509000000E+03 0.  0.
<mgrwt>
<rscale>  2 0.45032065E+03</rscale>
<asrwt>0</asrwt>
<pdfrwt beam="1">  1       21 0.10366330E-01 0.45032065E+03</pdfrwt>
<pdfrwt beam="2">  1       21 0.10576474E+00 0.45032065E+03</pdfrwt>
<totfact> 0.50081614E+04</totfact>
</mgrwt>
</event>
<event>
 7    0  0.4748297E-002  0.4449768E+03  0.7546771E-02  0.1029231E+00
         21   -1    0    0  502  501  0.00000000000E+00  0.00000000000E+00  0.20029603592E+03  0.20029603592E+03  0.00000000000E+00 0.  1.
         21   -1    0    0  501  502 -0.00000000000E+00 -0.00000000000E+00 -0.24713962860E+03  0.24713962860E+03  0.00000000000E+00 0.  1.
      99926    2    1    2    0    0  0.00000000000E+00  0.00000000000E+00 -0.46843592685E+02  0.44743566452E+03  0.44497679906E+03 0.  0.
      99925    2    3    3    0    0  0.38994728054E+02  0.33697556693E+02 -0.12019680069E+03  0.29353857108E+03  0.26279556251E+03 0.  0.
         25    1    4    4    0    0 -0.26152334886E+01 -0.10158260106E+02 -0.80206709751E+02  0.14896527811E+03  0.12509000000E+03 0.  0.
         25    1    3    3    0    0 -0.38994728054E+02 -0.33697556693E+02  0.73353208002E+02  0.15389709343E+03  0.12509000000E+03 0.  0.
         25    1    4    4    0    0  0.41609961543E+02  0.43855816799E+02 -0.39990090935E+02  0.14457329297E+03  0.12509000000E+03 0.  0.
<mgrwt>
<rscale>  2 0.44497680E+03</rscale>
<asrwt>0</asrwt>
<pdfrwt beam="1">  1       21 0.29455300E-01 0.44497680E+03</pdfrwt>
<pdfrwt beam="2">  1       21 0.36344063E-01 0.44497680E+03</pdfrwt>
<totfact> 0.74917822E+04</totfact>
</mgrwt>
</event>
<event>
 7    0  0.4748297E-002  0.4563943E+03  0.7546771E-02  0.1025832E+00
         21   -1    0    0  502  501  0.00000000000E+00  0.00000000000E+00  0.63256968824E+03  0.63256968824E+03  0.00000000000E+00 0. -1.
         21   -1    0    0  501  502 -0.00000000000E+00 -0.00000000000E+00 -0.82321258336E+02  0.82321258336E+02  0.00000000000E+00 0. -1.
      99926    2    1    2    0    0 -0.71054273576E-14  0.00000000000E+00  0.55024842990E+03  0.71489094657E+03  0.45639427131E+03 0.  0.
      99925    2    3    3    0    0 -0.57233860383E+02  0.86619046125E+02  0.27097591764E+03  0.39175132020E+03  0.26317783914E+03 0.  0.
         25    1    4    4    0    0 -0.67724343212E+02  0.57632564811E+02  0.16001722952E+03  0.22172307285E+03  0.12509000000E+03 0.  0.
         25    1    4    4    0    0  0.10490482829E+02  0.28986481315E+02  0.11095868811E+03  0.17002824735E+03  0.12509000000E+03 0.  0.
         25    1    3    3    0    0  0.57233860383E+02 -0.86619046125E+02  0.27927251226E+03  0.32313962637E+03  0.12509000000E+03 0.  0.
<mgrwt>
<rscale>  2 0.45639427E+03</rscale>
<asrwt>0</asrwt>
<pdfrwt beam="1">  1       21 0.93024952E-01 0.45639427E+03</pdfrwt>
<pdfrwt beam="2">  1       21 0.12106068E-01 0.45639427E+03</pdfrwt>
<totfact> 0.51534376E+04</totfact>
</mgrwt>
</event>
<event>
 7    0  0.4748297E-002  0.4540666E+03  0.7546771E-02  0.1026516E+00
         21   -1    0    0  502  501  0.00000000000E+00  0.00000000000E+00  0.10880987094E+03  0.10880987094E+03  0.00000000000E+00 0.  1.
         21   -1    0    0  501  502 -0.00000000000E+00 -0.00000000000E+00 -0.47370808882E+03  0.47370808882E+03  0.00000000000E+00 0.  1.
      99926    2    1    2    0    0  0.00000000000E+00  0.00000000000E+00 -0.36489821788E+03  0.58251795976E+03  0.45406658546E+03 0.  0.
      99925    2    3    3    0    0  0.44772439694E+02  0.58607957832E+02 -0.33839548920E+03  0.43490574209E+03  0.26304378594E+03 0.  0.
         25    1    4    4    0    0  0.41670659415E+02 -0.65967682507E+01 -0.16869920765E+03  0.21421225915E+03  0.12509000000E+03 0.  0.
         25    1    4    4    0    0  0.31017802795E+01  0.65204726082E+02 -0.16969628155E+03  0.22069348295E+03  0.12509000000E+03 0.  0.
         25    1    3    3    0    0 -0.44772439694E+02 -0.58607957832E+02 -0.26502728684E+02  0.14761221767E+03  0.12509000000E+03 0.  0.
<mgrwt>
<rscale>  2 0.45406659E+03</rscale>
<asrwt>0</asrwt>
<pdfrwt beam="1">  1       21 0.16001451E-01 0.45406659E+03</pdfrwt>
<pdfrwt beam="2">  1       21 0.69662955E-01 0.45406659E+03</pdfrwt>
<totfact> 0.60210495E+04</totfact>
</mgrwt>
</event>
<event>
 7    0  0.4748297E-002  0.4414668E+03  0.7546771E-02  0.1030298E+00
         21   -1    0    0  502  501  0.00000000000E+00  0.00000000000E+00  0.74239115029E+02  0.74239115029E+02  0.00000000000E+00 0.  1.
         21   -1    0    0  501  502 -0.00000000000E+00 -0.00000000000E+00 -0.65630139655E+03  0.65630139655E+03  0.00000000000E+00 0.  1.
      99926    2    1    2    0    0 -0.14210854715E-13 -0.35527136788E-14 -0.58206228152E+03  0.73054051158E+03  0.44146680452E+03 0.  0.
      99925    2    3    3    0    0  0.92121109537E+02  0.20468025147E+02 -0.31727666153E+03  0.42286507946E+03  0.26314474458E+03 0.  0.
         25    1    3    3    0    0 -0.92121109537E+02 -0.20468025147E+02 -0.26478561999E+03  0.30767543212E+03  0.12509000000E+03 0.  0.
         25    1    4    4    0    0  0.22132600994E+02 -0.19388607265E+02 -0.17406665638E+03  0.21636191689E+03  0.12509000000E+03 0.  0.
         25    1    4    4    0    0  0.69988508543E+02  0.39856632412E+02 -0.14321000515E+03  0.20650316257E+03  0.12509000000E+03 0.  0.
<mgrwt>
<rscale>  2 0.44146680E+03</rscale>
<asrwt>0</asrwt>
<pdfrwt beam="1">  1       21 0.10917517E-01 0.44146680E+03</pdfrwt>
<pdfrwt beam="2">  1       21 0.96514909E-01 0.44146680E+03</pdfrwt>
<totfact> 0.57115647E+04</totfact>
</mgrwt>
</event>
<event>
 7    0  0.4748297E-002  0.4522962E+03  0.7546771E-02  0.1027040E+00
         21   -1    0    0  502  501  0.00000000000E+00  0.00000000000E+00  0.42527709280E+03  0.42527709280E+03  0.00000000000E+00 0.  1.
         21   -1    0    0  501  502 -0.00000000000E+00 -0.00000000000E+00 -0.12025796182E+03  0.12025796182E+03  0.00000000000E+00 0.  1.
      99926    2    1    2    0    0  0.71054273576E-14  0.26645352591E-14  0.30501913098E+03  0.54553505462E+03  0.45229617017E+03 0.  0.
      99925    2    3    3    0    0 -0.62927224597E+02 -0.63712357089E+01  0.83057754002E+02  0.28301878996E+03  0.26306010099E+03 0.  0.
         25    1    4    4    0    0 -0.45020594518E+02 -0.32614873054E+02  0.16714088900E+02  0.13790378074E+03  0.12509000000E+03 0.  0.
         25    1    3    3    0    0  0.62927224597E+02  0.63712357089E+01  0.22196137698E+03  0.26251626466E+03  0.12509000000E+03 0.  0.
         25    1    4    4    0    0 -0.17906630079E+02  0.26243637345E+02  0.66343665102E+02  0.14511500922E+03  0.12509000000E+03 0.  0.
<mgrwt>
<rscale>  2 0.45229617E+03</rscale>
<asrwt>0</asrwt>
<pdfrwt beam="1">  1       21 0.62540749E-01 0.45229617E+03</pdfrwt>
<pdfrwt beam="2">  1       21 0.17684994E-01 0.45229617E+03</pdfrwt>
<totfact> 0.63510450E+04</totfact>
</mgrwt>
</event>
<event>
 7    0  0.4748297E-002  0.4490017E+03  0.7546771E-02  0.1028020E+00
         21   -1    0    0  502  501  0.00000000000E+00  0.00000000000E+00  0.60612884819E+02  0.60612884819E+02  0.00000000000E+00 0. -1.
         21   -1    0    0  501  502 -0.00000000000E+00 -0.00000000000E+00 -0.83151661007E+03  0.83151661007E+03  0.00000000000E+00 0. -1.
      99926    2    1    2    0    0  0.00000000000E+00  0.00000000000E+00 -0.77090372525E+03  0.89212949489E+03  0.44900165038E+03 0.  0.
      99925    2    3    3    0    0  0.94261378642E+02 -0.48600956688E+02 -0.52306515327E+03  0.59494482780E+03  0.26289719105E+03 0.  0.
         25    1    4    4    0    0  0.23986937634E+02 -0.54168024004E+02 -0.22635719807E+03  0.26531987717E+03  0.12509000000E+03 0.  0.
         25    1    4    4    0    0  0.70274441008E+02  0.55670673165E+01 -0.29670795520E+03  0.32962495063E+03  0.12509000000E+03 0.  0.
         25    1    3    3    0    0 -0.94261378642E+02  0.48600956688E+02 -0.24783857198E+03  0.29718466709E+03  0.12509000000E+03 0.  0.
<mgrwt>
<rscale>  2 0.44900165E+03</rscale>
<asrwt>0</asrwt>
<pdfrwt beam="1">  1       21 0.89136599E-02 0.44900165E+03</pdfrwt>
<pdfrwt beam="2">  1       21 0.12228185E+00 0.44900165E+03</pdfrwt>
<totfact> 0.45683962E+04</totfact>
</mgrwt>
</event>
<event>
 7    0  0.4748297E-002  0.4504623E+03  0.7546771E-02  0.1027584E+00
         21   -1    0    0  502  501  0.00000000000E+00  0.00000000000E+00  0.37902540151E+03  0.37902540151E+03  0.00000000000E+00 0.  1.
         21   -1    0    0  501  502 -0.00000000000E+00 -0.00000000000E+00 -0.13384082082E+03  0.13384082082E+03  0.00000000000E+00 0.  1.
      99926    2    1    2    0    0  0.00000000000E+00 -0.14210854715E-13  0.24518458069E+03  0.51286622234E+03  0.45046229965E+03 0.  0.
      99925    2    3    3    0    0 -0.71265697998E+02 -0.81867068837E+02  0.16392841103E+03  0.32839104818E+03  0.26303448427E+03 0.  0.
         25    1    4    4    0    0 -0.52293279312E+02 -0.63642181019E+01  0.95362373121E+02  0.16588122450E+03  0.12509000000E+03 0.  0.
         25    1    3    3    0    0  0.71265697998E+02  0.81867068837E+02  0.81256169659E+02  0.18447517415E+03  0.12509000000E+03 0.  0.
         25    1    4    4    0    0 -0.18972418686E+02 -0.75502850735E+02  0.68566037908E+02  0.16250982369E+03  0.12509000000E+03 0.  0.
<mgrwt>
<rscale>  2 0.45046230E+03</rscale>
<asrwt>0</asrwt>
<pdfrwt beam="1">  1       21 0.55739030E-01 0.45046230E+03</pdfrwt>
<pdfrwt beam="2">  1       21 0.19682474E-01 0.45046230E+03</pdfrwt>
<totfact> 0.66747036E+04</totfact>
</mgrwt>
</event>
<event>
 7    0  0.4748297E-002  0.4539493E+03  0.7546771E-02  0.1026551E+00
         21   -1    0    0  502  501  0.00000000000E+00  0.00000000000E+00  0.25062760483E+03  0.25062760483E+03  0.00000000000E+00 0. -1.
         21   -1    0    0  501  502 -0.00000000000E+00 -0.00000000000E+00 -0.20555389560E+03  0.20555389560E+03  0.00000000000E+00 0. -1.
      99926    2    1    2    0    0  0.00000000000E+00  0.00000000000E+00  0.45073709225E+02  0.45618150043E+03  0.45394925054E+03 0.  0.
      99925    2    3    3    0    0  0.79914672372E+02  0.76098094142E+02  0.83178334868E+01  0.28537231656E+03  0.26304162772E+03 0.  0.
         25    1    3    3    0    0 -0.79914672372E+02 -0.76098094142E+02  0.36755875739E+02  0.17080918387E+03  0.12509000000E+03 0.  0.
         25    1    4    4    0    0  0.74279747456E+02  0.44880636611E+02  0.28089512755E+02  0.15481692818E+03  0.12509000000E+03 0.  0.
         25    1    4    4    0    0  0.56349249156E+01  0.31217457531E+02 -0.19771679268E+02  0.13055538838E+03  0.12509000000E+03 0.  0.
<mgrwt>
<rscale>  2 0.45394925E+03</rscale>
<asrwt>0</asrwt>
<pdfrwt beam="1">  1       21 0.36857001E-01 0.45394925E+03</pdfrwt>
<pdfrwt beam="2">  1       21 0.30228514E-01 0.45394925E+03</pdfrwt>
<totfact> 0.69036268E+04</totfact>
</mgrwt>
</event>
<event>
 7    0  0.4748297E-002  0.4659726E+03  0.7546771E-02  0.1023063E+00
         21   -1    0    0  502  501  0.00000000000E+00  0.00000000000E+00  0.73075711503E+02  0.73075711503E+02  0.00000000000E+00 0.  1.
         21   -1    0    0  501  502 -0.00000000000E+00 -0.00000000000E+00 -0.74282721885E+03  0.74282721885E+03  0.00000000000E+00 0.  1.
      99926    2    1    2    0    0  0.44408920985E-15  0.00000000000E+00 -0.66975150735E+03  0.81590293035E+03  0.46597264959E+03 0.  0.
      99925    2    3    3    0    0 -0.38977041091E+01 -0.10183876360E+03 -0.29839129104E+03  0.41100511087E+03  0.26363139555E+03 0.  0.
         25    1    4    4    0    0  0.46624158059E+01 -0.92958314623E+02 -0.14766686326E+03  0.21474635499E+03  0.12509000000E+03 0.  0.
         25    1    3    3    0    0  0.38977041091E+01  0.10183876360E+03 -0.37136021630E+03  0.40489781948E+03  0.12509000000E+03 0.  0.
         25    1    4    4    0    0 -0.85601199150E+01 -0.88804489777E+01 -0.15072442779E+03  0.19625875588E+03  0.12509000000E+03 0.  0.
<mgrwt>
<rscale>  2 0.46597265E+03</rscale>
<asrwt>0</asrwt>
<pdfrwt beam="1">  1       21 0.10746429E-01 0.46597265E+03</pdfrwt>
<pdfrwt beam="2">  1       21 0.10923929E+00 0.46597265E+03</pdfrwt>
<totfact> 0.43166734E+04</totfact>
</mgrwt>
</event>
<event>
 7    0  0.4748297E-002  0.4570873E+03  0.7546771E-02  0.1025629E+00
         21   -1    0    0  502  501  0.00000000000E+00  0.00000000000E+00  0.57460061037E+03  0.57460061037E+03  0.00000000000E+00 0. -1.
         21   -1    0    0  501  502 -0.00000000000E+00 -0.00000000000E+00 -0.90901757280E+02  0.90901757280E+02  0.00000000000E+00 0. -1.
      99926    2    1    2    0    0  0.71054273576E-14  0.28421709430E-13  0.48369885309E+03  0.66550236765E+03  0.45708732302E+03 0.  0.
      99925    2    3    3    0    0 -0.63812721762E+02 -0.91497672746E+02  0.26317508645E+03  0.38851477347E+03  0.26313250559E+03 0.  0.
         25    1    4    4    0    0 -0.50492905184E+02 -0.83504678769E+02  0.16345561660E+03  0.22778896275E+03  0.12509000000E+03 0.  0.
         25    1    3    3    0    0  0.63812721762E+02  0.91497672746E+02  0.22052376664E+03  0.27698759418E+03  0.12509000000E+03 0.  0.
         25    1    4    4    0    0 -0.13319816579E+02 -0.79929939767E+01  0.99719469852E+02  0.16072581073E+03  0.12509000000E+03 0.  0.
<mgrwt>
<rscale>  2 0.45708732E+03</rscale>
<asrwt>0</asrwt>
<pdfrwt beam="1">  1       21 0.84500088E-01 0.45708732E+03</pdfrwt>
<pdfrwt beam="2">  1       21 0.13367906E-01 0.45708732E+03</pdfrwt>
<totfact> 0.53923201E+04</totfact>
</mgrwt>
</event>
<event>
 7    0  0.4748297E-002  0.4543576E+03  0.7546771E-02  0.1026430E+00
         21   -1    0    0  502  501  0.00000000000E+00  0.00000000000E+00  0.59056880788E+03  0.59056880788E+03  0.00000000000E+00 0. -1.
         21   -1    0    0  501  502 -0.00000000000E+00 -0.00000000000E+00 -0.87390666133E+02  0.87390666133E+02  0.00000000000E+00 0. -1.
      99926    2    1    2    0    0  0.00000000000E+00  0.00000000000E+00  0.50317814175E+03  0.67795947402E+03  0.45435757513E+03 0.  0.
      99925    2    3    3    0    0  0.97287494208E+02 -0.46323061704E+02  0.26783570540E+03  0.39048033908E+03  0.26292251244E+03 0.  0.
         25    1    3    3    0    0 -0.97287494208E+02  0.46323061704E+02  0.23534243635E+03  0.28747913493E+03  0.12509000000E+03 0.  0.
         25    1    4    4    0    0  0.20353582513E+02 -0.45184972366E+02  0.10116064464E+03  0.16833577806E+03  0.12509000000E+03 0.  0.
         25    1    4    4    0    0  0.76933911695E+02 -0.11380893381E+01  0.16667506076E+03  0.22214456103E+03  0.12509000000E+03 0.  0.
<mgrwt>
<rscale>  2 0.45435758E+03</rscale>
<asrwt>0</asrwt>
<pdfrwt beam="1">  1       21 0.86848352E-01 0.45435758E+03</pdfrwt>
<pdfrwt beam="2">  1       21 0.12851569E-01 0.45435758E+03</pdfrwt>
<totfact> 0.54391188E+04</totfact>
</mgrwt>
</event>
<event>
 7    0  0.4748297E-002  0.4526208E+03  0.7546771E-02  0.1026943E+00
         21   -1    0    0  502  501  0.00000000000E+00  0.00000000000E+00  0.93210563574E+03  0.93210563574E+03  0.00000000000E+00 0.  1.
         21   -1    0    0  501  502 -0.00000000000E+00 -0.00000000000E+00 -0.54946981486E+02  0.54946981486E+02  0.00000000000E+00 0.  1.
      99926    2    1    2    0    0  0.71054273576E-14  0.00000000000E+00  0.87715865425E+03  0.98705261722E+03  0.45262077332E+03 0.  0.
      99925    2    3    3    0    0 -0.42400560463E+02  0.38951361607E+02  0.34638167941E+03  0.43870353022E+03  0.26299335257E+03 0.  0.
         25    1    4    4    0    0 -0.12414892833E+02  0.41441121564E+02  0.22923478183E+03  0.26470283229E+03  0.12509000000E+03 0.  0.
         25    1    3    3    0    0  0.42400560463E+02 -0.38951361607E+02  0.53077697484E+03  0.54834908700E+03  0.12509000000E+03 0.  0.
         25    1    4    4    0    0 -0.29985667630E+02 -0.24897599577E+01  0.11714689759E+03  0.17400069794E+03  0.12509000000E+03 0.  0.
<mgrwt>
<rscale>  2 0.45262077E+03</rscale>
<asrwt>0</asrwt>
<pdfrwt beam="1">  1       21 0.13707435E+00 0.45262077E+03</pdfrwt>
<pdfrwt beam="2">  1       21 0.80804391E-02 0.45262077E+03</pdfrwt>
<totfact> 0.40420070E+04</totfact>
</mgrwt>
</event>
<event>
 7    0  0.4748297E-002  0.4471777E+03  0.7546771E-02  0.1028567E+00
         21   -1    0    0  502  501  0.00000000000E+00  0.00000000000E+00  0.20835924347E+03  0.20835924347E+03  0.00000000000E+00 0. -1.
         21   -1    0    0  501  502 -0.00000000000E+00 -0.00000000000E+00 -0.23993165731E+03  0.23993165731E+03  0.00000000000E+00 0. -1.
      99926    2    1    2    0    0  0.35527136788E-14  0.14210854715E-13 -0.31572413844E+02  0.44829090078E+03  0.44717772128E+03 0.  0.
      99925    2    3    3    0    0 -0.27495537283E+02 -0.78985365695E+02  0.45502692183E+02  0.27922649698E+03  0.26249237904E+03 0.  0.
         25    1    4    4    0    0 -0.57477645964E+01 -0.77431777065E+02  0.10959771884E+02  0.14763584117E+03  0.12509000000E+03 0.  0.
         25    1    3    3    0    0  0.27495537283E+02  0.78985365695E+02 -0.77075106027E+02  0.16906440380E+03  0.12509000000E+03 0.  0.
         25    1    4    4    0    0 -0.21747772687E+02 -0.15535886301E+01  0.34542920300E+02  0.13159065581E+03  0.12509000000E+03 0.  0.
<mgrwt>
<rscale>  2 0.44717772E+03</rscale>
<asrwt>0</asrwt>
<pdfrwt beam="1">  1       21 0.30641065E-01 0.44717772E+03</pdfrwt>
<pdfrwt beam="2">  1       21 0.35284067E-01 0.44717772E+03</pdfrwt>
<totfact> 0.73522825E+04</totfact>
</mgrwt>
</event>
<event>
 7    0  0.4748297E-002  0.4431591E+03  0.7546771E-02  0.1029782E+00
         21   -1    0    0  502  501  0.00000000000E+00  0.00000000000E+00  0.22626708146E+03  0.22626708146E+03  0.00000000000E+00 0. -1.
         21   -1    0    0  501  502 -0.00000000000E+00 -0.00000000000E+00 -0.21698911460E+03  0.21698911460E+03  0.00000000000E+00 0. -1.
      99926    2    1    2    0    0  0.00000000000E+00  0.00000000000E+00  0.92779668645E+01  0.44325619606E+03  0.44315908507E+03 0.  0.
      99925    2    3    3    0    0 -0.58758904245E+02 -0.57771671336E+02 -0.53783207966E+02  0.28073113735E+03  0.26292045030E+03 0.  0.
         25    1    3    3    0    0  0.58758904245E+02  0.57771671336E+02  0.63061174830E+02  0.16252505871E+03  0.12509000000E+03 0.  0.
         25    1    4    4    0    0 -0.15490740006E+02 -0.46741530302E+02  0.71020174011E+01  0.13462050524E+03  0.12509000000E+03 0.  0.
         25    1    4    4    0    0 -0.43268164239E+02 -0.11030141034E+02 -0.60885225367E+02  0.14611063211E+03  0.12509000000E+03 0.  0.
<mgrwt>
<rscale>  2 0.44315909E+03</rscale>
<asrwt>0</asrwt>
<pdfrwt beam="1">  1       21 0.33274571E-01 0.44315909E+03</pdfrwt>
<pdfrwt beam="2">  1       21 0.31910164E-01 0.44315909E+03</pdfrwt>
<totfact> 0.76379997E+04</totfact>
</mgrwt>
</event>
<event>
 7    0  0.4748297E-002  0.4515349E+03  0.7546771E-02  0.1027265E+00
         21   -1    0    0  502  501  0.00000000000E+00  0.00000000000E+00  0.96387158584E+03  0.96387158584E+03  0.00000000000E+00 0.  1.
         21   -1    0    0  501  502 -0.00000000000E+00 -0.00000000000E+00 -0.52881467568E+02  0.52881467568E+02  0.00000000000E+00 0.  1.
      99926    2    1    2    0    0  0.14210854715E-13  0.71054273576E-14  0.91099011827E+03  0.10167530534E+04  0.45153491119E+03 0.  0.
      99925    2    3    3    0    0  0.96607165967E+02  0.40134780518E+02  0.49912201932E+03  0.57377835418E+03  0.26297350519E+03 0.  0.
         25    1    4    4    0    0  0.44210335681E+02 -0.20811296867E+02  0.24149357061E+03  0.27632284850E+03  0.12509000000E+03 0.  0.
         25    1    3    3    0    0 -0.96607165967E+02 -0.40134780518E+02  0.41186809896E+03  0.44297469923E+03  0.12509000000E+03 0.  0.
         25    1    4    4    0    0  0.52396830287E+02  0.60946077385E+02  0.25762844870E+03  0.29745550567E+03  0.12509000000E+03 0.  0.
<mgrwt>
<rscale>  2 0.45153491E+03</rscale>
<asrwt>0</asrwt>
<pdfrwt beam="1">  1       21 0.14174581E+00 0.45153491E+03</pdfrwt>
<pdfrwt beam="2">  1       21 0.77766870E-02 0.45153491E+03</pdfrwt>
<totfact> 0.39581531E+04</totfact>
</mgrwt>
</event>
<event>
 7    0  0.4748297E-002  0.4614575E+03  0.7546771E-02  0.1024359E+00
         21   -1    0    0  502  501  0.00000000000E+00  0.00000000000E+00  0.91474245087E+02  0.91474245087E+02  0.00000000000E+00 0.  1.
         21   -1    0    0  501  502 -0.00000000000E+00 -0.00000000000E+00 -0.58197541723E+03  0.58197541723E+03  0.00000000000E+00 0.  1.
      99926    2    1    2    0    0  0.00000000000E+00  0.14210854715E-13 -0.49050117215E+03  0.67344966232E+03  0.46145752546E+03 0.  0.
      99925    2    3    3    0    0  0.90480696780E+02 -0.76497026846E+02 -0.28806318972E+03  0.40761663872E+03  0.26293035444E+03 0.  0.
         25    1    4    4    0    0  0.34432100170E+02  0.30226365075E+01 -0.12322600543E+03  0.17896050505E+03  0.12509000000E+03 0.  0.
         25    1    4    4    0    0  0.56048596609E+02 -0.79519663353E+02 -0.16483718429E+03  0.22865613367E+03  0.12509000000E+03 0.  0.
         25    1    3    3    0    0 -0.90480696780E+02  0.76497026846E+02 -0.20243798243E+03  0.26583302360E+03  0.12509000000E+03 0.  0.
<mgrwt>
<rscale>  2 0.46145753E+03</rscale>
<asrwt>0</asrwt>
<pdfrwt beam="1">  1       21 0.13452095E-01 0.46145753E+03</pdfrwt>
<pdfrwt beam="2">  1       21 0.85584622E-01 0.46145753E+03</pdfrwt>
<totfact> 0.51686952E+04</totfact>
</mgrwt>
</event>
<event>
 7    0  0.4748297E-002  0.4533853E+03  0.7546771E-02  0.1026717E+00
         21   -1    0    0  502  501  0.00000000000E+00  0.00000000000E+00  0.36376960359E+02  0.36376960359E+02  0.00000000000E+00 0.  1.
         21   -1    0    0  501  502 -0.00000000000E+00 -0.00000000000E+00 -0.14126952851E+04  0.14126952851E+04  0.00000000000E+00 0.  1.
      99926    2    1    2    0    0  0.00000000000E+00  0.00000000000E+00 -0.13763183247E+04  0.14490722455E+04  0.45338531245E+03 0.  0.
      99925    2    3    3    0    0 -0.60981031484E+02  0.24908855488E+02 -0.58162006792E+03  0.64189694556E+03  0.26345900634E+03 0.  0.
         25    1    4    4    0    0 -0.13922885263E+02 -0.13253402694E+02 -0.34492683622E+03  0.36741193484E+03  0.12509000000E+03 0.  0.
         25    1    4    4    0    0 -0.47058146221E+02  0.38162258183E+02 -0.23669323170E+03  0.27448501072E+03  0.12509000000E+03 0.  0.
         25    1    3    3    0    0  0.60981031484E+02 -0.24908855488E+02 -0.79469825682E+03  0.80717529991E+03  0.12509000000E+03 0.  0.
<mgrwt>
<rscale>  2 0.45338531E+03</rscale>
<asrwt>0</asrwt>
<pdfrwt beam="1">  1       21 0.53495539E-02 0.45338531E+03</pdfrwt>
<pdfrwt beam="2">  1       21 0.20774927E+00 0.45338531E+03</pdfrwt>
<totfact> 0.25369927E+04</totfact>
</mgrwt>
</event>
<event>
 7    0  0.4748297E-002  0.4505598E+03  0.7546771E-02  0.1027555E+00
         21   -1    0    0  502  501  0.00000000000E+00  0.00000000000E+00  0.15622399040E+03  0.15622399040E+03  0.00000000000E+00 0.  1.
         21   -1    0    0  501  502 -0.00000000000E+00 -0.00000000000E+00 -0.32486063213E+03  0.32486063213E+03  0.00000000000E+00 0.  1.
      99926    2    1    2    0    0 -0.71054273576E-14  0.00000000000E+00 -0.16863664173E+03  0.48108462254E+03  0.45055975975E+03 0.  0.
      99925    2    3    3    0    0  0.55321915543E+02  0.51124872435E+02 -0.19060210617E+03  0.33342197781E+03  0.26299578987E+03 0.  0.
         25    1    4    4    0    0  0.15366907452E+02  0.60127358700E+02 -0.76469204750E+02  0.15920580543E+03  0.12509000000E+03 0.  0.
         25    1    3    3    0    0 -0.55321915543E+02 -0.51124872435E+02  0.21965464439E+02  0.14766264473E+03  0.12509000000E+03 0.  0.
         25    1    4    4    0    0  0.39955008091E+02 -0.90024862646E+01 -0.11413290142E+03  0.17421617237E+03  0.12509000000E+03 0.  0.
<mgrwt>
<rscale>  2 0.45055976E+03</rscale>
<asrwt>0</asrwt>
<pdfrwt beam="1">  1       21 0.22974116E-01 0.45055976E+03</pdfrwt>
<pdfrwt beam="2">  1       21 0.47773622E-01 0.45055976E+03</pdfrwt>
<totfact> 0.69022188E+04</totfact>
</mgrwt>
</event>
<event>
 7    0  0.4748297E-002  0.4500854E+03  0.7546771E-02  0.1027697E+00
         21   -1    0    0  502  501  0.00000000000E+00  0.00000000000E+00  0.14144643246E+03  0.14144643246E+03  0.00000000000E+00 0. -1.
         21   -1    0    0  501  502 -0.00000000000E+00 -0.00000000000E+00 -0.35804521836E+03  0.35804521836E+03  0.00000000000E+00 0. -1.
      99926    2    1    2    0    0  0.00000000000E+00  0.00000000000E+00 -0.21659878590E+03  0.49949165082E+03  0.45008540877E+03 0.  0.
      99925    2    3    3    0    0  0.79408776957E+02  0.61374697614E+02 -0.18331346377E+03  0.33569901321E+03  0.26271161776E+03 0.  0.
         25    1    3    3    0    0 -0.79408776957E+02 -0.61374697614E+02 -0.33285322135E+02  0.16379263761E+03  0.12509000000E+03 0.  0.
         25    1    4    4    0    0  0.26861028265E+02 -0.34616237522E+01 -0.10826340532E+03  0.16763642418E+03  0.12509000000E+03 0.  0.
         25    1    4    4    0    0  0.52547748692E+02  0.64836321366E+02 -0.75050058442E+02  0.16806258903E+03  0.12509000000E+03 0.  0.
<mgrwt>
<rscale>  2 0.45008541E+03</rscale>
<asrwt>0</asrwt>
<pdfrwt beam="1">  1       21 0.20800946E-01 0.45008541E+03</pdfrwt>
<pdfrwt beam="2">  1       21 0.52653708E-01 0.45008541E+03</pdfrwt>
<totfact> 0.67917475E+04</totfact>
</mgrwt>
</event>
<event>
 7    0  0.4748297E-002  0.4490291E+03  0.7546771E-02  0.1028012E+00
         21   -1    0    0  502  501  0.00000000000E+00  0.00000000000E+00  0.52312922242E+03  0.52312922242E+03  0.00000000000E+00 0. -1.
         21   -1    0    0  501  502 -0.00000000000E+00 -0.00000000000E+00 -0.96356277539E+02  0.96356277539E+02  0.00000000000E+00 0. -1.
      99926    2    1    2    0    0 -0.35527136788E-14  0.14210854715E-13  0.42677294488E+03  0.61948549996E+03  0.44902910616E+03 0.  0.
      99925    2    3    3    0    0  0.13246720027E+02  0.97859221312E+02  0.21133289202E+03  0.35150447961E+03  0.26294848384E+03 0.  0.
         25    1    4    4    0    0  0.33510574160E+02  0.32240548268E+02  0.70164165626E+02  0.15077443341E+03  0.12509000000E+03 0.  0.
         25    1    4    4    0    0 -0.20263854133E+02  0.65618673045E+02  0.14116872639E+03  0.20073004620E+03  0.12509000000E+03 0.  0.
         25    1    3    3    0    0 -0.13246720027E+02 -0.97859221312E+02  0.21544005286E+03  0.26798102034E+03  0.12509000000E+03 0.  0.
<mgrwt>
<rscale>  2 0.44902911E+03</rscale>
<asrwt>0</asrwt>
<pdfrwt beam="1">  1       21 0.76930767E-01 0.44902911E+03</pdfrwt>
<pdfrwt beam="2">  1       21 0.14170041E-01 0.44902911E+03</pdfrwt>
<totfact> 0.60287187E+04</totfact>
</mgrwt>
</event>
<event>
 7    0  0.4748297E-002  0.4699753E+03  0.7546771E-02  0.1021927E+00
         21   -1    0    0  502  501  0.00000000000E+00  0.00000000000E+00  0.96550832919E+02  0.96550832919E+02  0.00000000000E+00 0.  1.
         21   -1    0    0  501  502 -0.00000000000E+00 -0.00000000000E+00 -0.57191834394E+03  0.57191834394E+03  0.00000000000E+00 0.  1.
      99926    2    1    2    0    0  0.14210854715E-13  0.88817841970E-15 -0.47536751102E+03  0.66846917686E+03  0.46997528645E+03 0.  0.
      99925    2    3    3    0    0  0.70141639993E+02  0.69769751020E+01 -0.14558964655E+03  0.30878949181E+03  0.26303246420E+03 0.  0.
         25    1    4    4    0    0  0.61846477241E+02  0.19757850844E+01 -0.11190196869E+03  0.17888110345E+03  0.12509000000E+03 0.  0.
         25    1    3    3    0    0 -0.70141639993E+02 -0.69769751020E+01 -0.32977786448E+03  0.35967968506E+03  0.12509000000E+03 0.  0.
         25    1    4    4    0    0  0.82951627516E+01  0.50011900176E+01 -0.33687677858E+02  0.12990838836E+03  0.12509000000E+03 0.  0.
<mgrwt>
<rscale>  2 0.46997529E+03</rscale>
<asrwt>0</asrwt>
<pdfrwt beam="1">  1       21 0.14198652E-01 0.46997529E+03</pdfrwt>
<pdfrwt beam="2">  1       21 0.84105637E-01 0.46997529E+03</pdfrwt>
<totfact> 0.48645362E+04</totfact>
</mgrwt>
</event>
<event>
 7    0  0.4748297E-002  0.4582704E+03  0.7546771E-02  0.1025284E+00
         21   -1    0    0  502  501  0.00000000000E+00  0.00000000000E+00  0.97530568452E+03  0.97530568452E+03  0.00000000000E+00 0. -1.
         21   -1    0    0  501  502 -0.00000000000E+00 -0.00000000000E+00 -0.53832280004E+02  0.53832280004E+02  0.00000000000E+00 0. -1.
      99926    2    1    2    0    0  0.00000000000E+00  0.00000000000E+00  0.92147340451E+03  0.10291379645E+04  0.45827035121E+03 0.  0.
      99925    2    3    3    0    0 -0.91703670253E+02  0.20916687817E+02  0.73145620769E+03  0.78296502906E+03  0.26298095366E+03 0.  0.
         25    1    4    4    0    0 -0.36309505621E+01  0.16355173836E+02  0.33684056643E+03  0.35970786870E+03  0.12509000000E+03 0.  0.
         25    1    3    3    0    0  0.91703670253E+02 -0.20916687817E+02  0.19001719682E+03  0.24617293546E+03  0.12509000000E+03 0.  0.
         25    1    4    4    0    0 -0.88072719691E+02  0.45615139811E+01  0.39461564126E+03  0.42325716036E+03  0.12509000000E+03 0.  0.
<mgrwt>
<rscale>  2 0.45827035E+03</rscale>
<asrwt>0</asrwt>
<pdfrwt beam="1">  1       21 0.14342730E+00 0.45827035E+03</pdfrwt>
<pdfrwt beam="2">  1       21 0.79165124E-02 0.45827035E+03</pdfrwt>
<totfact> 0.37096106E+04</totfact>
</mgrwt>
</event>
<event>
 7    0  0.4748297E-002  0.4528760E+03  0.7546771E-02  0.1026868E+00
         21   -1    0    0  502  501  0.00000000000E+00  0.00000000000E+00  0.36256365308E+03  0.36256365308E+03  0.00000000000E+00 0.  1.
         21   -1    0    0  501  502 -0.00000000000E+00 -0.00000000000E+00 -0.14142116223E+03  0.14142116223E+03  0.00000000000E+00 0.  1.
      99926    2    1    2    0    0  0.00000000000E+00  0.00000000000E+00  0.22114249085E+03  0.50398481530E+03  0.45287602365E+03 0.  0.
      99925    2    3    3    0    0  0.10465736420E+03  0.36256989919E+02  0.12786723689E+03  0.31263300763E+03  0.26290993513E+03 0.  0.
         25    1    3    3    0    0 -0.10465736420E+03 -0.36256989919E+02  0.93275253956E+02  0.19135180767E+03  0.12509000000E+03 0.  0.
         25    1    4    4    0    0  0.55360382053E+02  0.57583276544E+02  0.77885220914E+02  0.16761330906E+03  0.12509000000E+03 0.  0.
         25    1    4    4    0    0  0.49296982147E+02 -0.21326286626E+02  0.49982015980E+02  0.14501969856E+03  0.12509000000E+03 0.  0.
<mgrwt>
<rscale>  2 0.45287602E+03</rscale>
<asrwt>0</asrwt>
<pdfrwt beam="1">  1       21 0.53318184E-01 0.45287602E+03</pdfrwt>
<pdfrwt beam="2">  1       21 0.20797230E-01 0.45287602E+03</pdfrwt>
<totfact> 0.66098936E+04</totfact>
</mgrwt>
</event>
<event>
 7    0  0.4748297E-002  0.4476061E+03  0.7546771E-02  0.1028438E+00
         21   -1    0    0  502  501  0.00000000000E+00  0.00000000000E+00  0.23993626331E+03  0.23993626331E+03  0.00000000000E+00 0.  1.
         21   -1    0    0  501  502 -0.00000000000E+00 -0.00000000000E+00 -0.20875460826E+03  0.20875460826E+03  0.00000000000E+00 0.  1.
      99926    2    1    2    0    0  0.00000000000E+00 -0.69388939039E-15  0.31181655051E+02  0.44869087156E+03  0.44760607973E+03 0.  0.
      99925    2    3    3    0    0 -0.10306360917E+03  0.19512349727E+00  0.44592148191E+02  0.28605786435E+03  0.26309408292E+03 0.  0.
         25    1    4    4    0    0 -0.43321612540E+02  0.38688789096E+02  0.11246776774E+02  0.13837479034E+03  0.12509000000E+03 0.  0.
         25    1    3    3    0    0  0.10306360917E+03 -0.19512349727E+00 -0.13410493140E+02  0.16263300721E+03  0.12509000000E+03 0.  0.
         25    1    4    4    0    0 -0.59741996633E+02 -0.38493665599E+02  0.33345371417E+02  0.14768307401E+03  0.12509000000E+03 0.  0.
<mgrwt>
<rscale>  2 0.44760608E+03</rscale>
<asrwt>0</asrwt>
<pdfrwt beam="1">  1       21 0.35284745E-01 0.44760608E+03</pdfrwt>
<pdfrwt beam="2">  1       21 0.30699207E-01 0.44760608E+03</pdfrwt>
<totfact> 0.73236642E+04</totfact>
</mgrwt>
</event>
<event>
 7    0  0.4748297E-002  0.4367690E+03  0.7546771E-02  0.1031743E+00
         21   -1    0    0  502  501  0.00000000000E+00  0.00000000000E+00  0.15024528427E+03  0.15024528427E+03  0.00000000000E+00 0.  1.
         21   -1    0    0  501  502 -0.00000000000E+00 -0.00000000000E+00 -0.31742620751E+03  0.31742620751E+03  0.00000000000E+00 0.  1.
      99926    2    1    2    0    0 -0.14210854715E-13 -0.71054273576E-14 -0.16718092325E+03  0.46767149178E+03  0.43676900431E+03 0.  0.
      99925    2    3    3    0    0  0.71598980606E+02  0.40936221765E+02 -0.56284658743E+02  0.28126420153E+03  0.26294372017E+03 0.  0.
         25    1    4    4    0    0  0.20681891569E+02 -0.10360704997E+02 -0.28909051121E+01  0.12724366499E+03  0.12509000000E+03 0.  0.
         25    1    4    4    0    0  0.50917089037E+02  0.51296926762E+02 -0.53393753630E+02  0.15402053655E+03  0.12509000000E+03 0.  0.
         25    1    3    3    0    0 -0.71598980606E+02 -0.40936221765E+02 -0.11089626451E+03  0.18640729025E+03  0.12509000000E+03 0.  0.
<mgrwt>
<rscale>  2 0.43676900E+03</rscale>
<asrwt>0</asrwt>
<pdfrwt beam="1">  1       21 0.22094895E-01 0.43676900E+03</pdfrwt>
<pdfrwt beam="2">  1       21 0.46680324E-01 0.43676900E+03</pdfrwt>
<totfact> 0.78346287E+04</totfact>
</mgrwt>
</event>
<event>
 7    0  0.4748297E-002  0.4596469E+03  0.7546771E-02  0.1024884E+00
         21   -1    0    0  502  501  0.00000000000E+00  0.00000000000E+00  0.29375371041E+03  0.29375371041E+03  0.00000000000E+00 0.  1.
         21   -1    0    0  501  502 -0.00000000000E+00 -0.00000000000E+00 -0.17980648869E+03  0.17980648869E+03  0.00000000000E+00 0.  1.
      99926    2    1    2    0    0  0.00000000000E+00  0.71054273576E-14  0.11394722173E+03  0.47356019910E+03  0.45964692192E+03 0.  0.
      99925    2    3    3    0    0 -0.87595531671E+02  0.46886748259E+02  0.13588914115E+03  0.31231411307E+03  0.26306444497E+03 0.  0.
         25    1    4    4    0    0 -0.53274619026E+02  0.59680677453E+02  0.92502209999E+02  0.17494037627E+03  0.12509000000E+03 0.  0.
         25    1    3    3    0    0  0.87595531671E+02 -0.46886748259E+02 -0.21941919424E+02  0.16124608603E+03  0.12509000000E+03 0.  0.
         25    1    4    4    0    0 -0.34320912644E+02 -0.12793929194E+02  0.43386931153E+02  0.13737373681E+03  0.12509000000E+03 0.  0.
<mgrwt>
<rscale>  2 0.45964692E+03</rscale>
<asrwt>0</asrwt>
<pdfrwt beam="1">  1       21 0.43199075E-01 0.45964692E+03</pdfrwt>
<pdfrwt beam="2">  1       21 0.26442131E-01 0.45964692E+03</pdfrwt>
<totfact> 0.64751698E+04</totfact>
</mgrwt>
</event>
<event>
 7    0  0.4748297E-002  0.4549226E+03  0.7546771E-02  0.1026264E+00
         21   -1    0    0  502  501  0.00000000000E+00  0.00000000000E+00  0.26954668049E+03  0.26954668049E+03  0.00000000000E+00 0.  1.
         21   -1    0    0  501  502 -0.00000000000E+00 -0.00000000000E+00 -0.19194687481E+03  0.19194687481E+03  0.00000000000E+00 0.  1.
      99926    2    1    2    0    0 -0.71054273576E-14  0.91593399532E-15  0.77599805675E+02  0.46149355530E+03  0.45492259972E+03 0.  0.
      99925    2    3    3    0    0  0.40587830557E+02  0.31887700449E-01  0.15596793683E+03  0.30840389174E+03  0.26294408173E+03 0.  0.
         25    1    3    3    0    0 -0.40587830557E+02 -0.31887700449E-01 -0.78368131157E+02  0.15308966355E+03  0.12509000000E+03 0.  0.
         25    1    4    4    0    0  0.56801905488E+02 -0.13983938548E+02  0.67554126236E+02  0.15373052747E+03  0.12509000000E+03 0.  0.
         25    1    4    4    0    0 -0.16214074932E+02  0.14015826249E+02  0.88413810597E+02  0.15467336427E+03  0.12509000000E+03 0.  0.
<mgrwt>
<rscale>  2 0.45492260E+03</rscale>
<asrwt>0</asrwt>
<pdfrwt beam="1">  1       21 0.39639218E-01 0.45492260E+03</pdfrwt>
<pdfrwt beam="2">  1       21 0.28227482E-01 0.45492260E+03</pdfrwt>
<totfact> 0.68113069E+04</totfact>
</mgrwt>
</event>
<event>
 7    0  0.4748297E-002  0.4895312E+03  0.7546771E-02  0.1016548E+00
         21   -1    0    0  502  501  0.00000000000E+00  0.00000000000E+00  0.47026290730E+02  0.47026290730E+02  0.00000000000E+00 0. -1.
         21   -1    0    0  501  502 -0.00000000000E+00 -0.00000000000E+00 -0.12739726319E+04  0.12739726319E+04  0.00000000000E+00 0. -1.
      99926    2    1    2    0    0  0.14210854715E-13  0.26645352591E-14 -0.12269463412E+04  0.13209989226E+04  0.48953123443E+03 0.  0.
      99925    2    3    3    0    0 -0.89690326213E+02  0.36710150687E+01 -0.10514846120E+04  0.10875633695E+04  0.26289990950E+03 0.  0.
         25    1    4    4    0    0 -0.34733448962E+02  0.40429673806E+02 -0.54227303818E+03  0.55906039659E+03  0.12509000000E+03 0.  0.
         25    1    3    3    0    0  0.89690326213E+02 -0.36710150687E+01 -0.17546172918E+03  0.23343555315E+03  0.12509000000E+03 0.  0.
         25    1    4    4    0    0 -0.54956877251E+02 -0.36758658737E+02 -0.50921157382E+03  0.52850297290E+03  0.12509000000E+03 0.  0.
<mgrwt>
<rscale>  2 0.48953123E+03</rscale>
<asrwt>0</asrwt>
<pdfrwt beam="1">  1       21 0.69156312E-02 0.48953123E+03</pdfrwt>
<pdfrwt beam="2">  1       21 0.18734891E+00 0.48953123E+03</pdfrwt>
<totfact> 0.21984346E+04</totfact>
</mgrwt>
</event>
<event>
 7    0  0.4748297E-002  0.4491869E+03  0.7546771E-02  0.1027965E+00
         21   -1    0    0  502  501  0.00000000000E+00  0.00000000000E+00  0.34310468181E+03  0.34310468181E+03  0.00000000000E+00 0. -1.
         21   -1    0    0  501  502 -0.00000000000E+00 -0.00000000000E+00 -0.14701699902E+03  0.14701699902E+03  0.00000000000E+00 0. -1.
      99926    2    1    2    0    0 -0.88817841970E-15 -0.14210854715E-13  0.19608768279E+03  0.49012168083E+03  0.44918691285E+03 0.  0.
      99925    2    3    3    0    0 -0.28662717322E+01 -0.10626822269E+03  0.14256423260E+03  0.31745605458E+03  0.26296888696E+03 0.  0.
         25    1    4    4    0    0  0.29007961998E+02 -0.78869283451E+02  0.89160239975E+02  0.17509677959E+03  0.12509000000E+03 0.  0.
         25    1    3    3    0    0  0.28662717322E+01  0.10626822269E+03  0.53523450194E+02  0.17266562625E+03  0.12509000000E+03 0.  0.
         25    1    4    4    0    0 -0.31874233730E+02 -0.27398939240E+02  0.53403992624E+02  0.14235927499E+03  0.12509000000E+03 0.  0.
<mgrwt>
<rscale>  2 0.44918691E+03</rscale>
<asrwt>0</asrwt>
<pdfrwt beam="1">  1       21 0.50456571E-01 0.44918691E+03</pdfrwt>
<pdfrwt beam="2">  1       21 0.21620147E-01 0.44918691E+03</pdfrwt>
<totfact> 0.69104767E+04</totfact>
</mgrwt>
</event>
<event>
 7    0  0.4748297E-002  0.4535740E+03  0.7546771E-02  0.1026662E+00
         21   -1    0    0  502  501  0.00000000000E+00  0.00000000000E+00  0.79925311219E+02  0.79925311219E+02  0.00000000000E+00 0.  1.
         21   -1    0    0  501  502 -0.00000000000E+00 -0.00000000000E+00 -0.64350508169E+03  0.64350508169E+03  0.00000000000E+00 0.  1.
      99926    2    1    2    0    0  0.00000000000E+00  0.71054273576E-14 -0.56357977047E+03  0.72343039291E+03  0.45357400245E+03 0.  0.
      99925    2    3    3    0    0  0.74928200171E+02 -0.56946385837E+02 -0.25841958362E+03  0.38046191946E+03  0.26289439880E+03 0.  0.
         25    1    4    4    0    0  0.52025510959E+02 -0.67638657779E+02 -0.13322053329E+03  0.20168505251E+03  0.12509000000E+03 0.  0.
         25    1    3    3    0    0 -0.74928200171E+02  0.56946385837E+02 -0.30516018685E+03  0.34296847345E+03  0.12509000000E+03 0.  0.
         25    1    4    4    0    0  0.22902689212E+02  0.10692271942E+02 -0.12519905034E+03  0.17877686695E+03  0.12509000000E+03 0.  0.
<mgrwt>
<rscale>  2 0.45357400E+03</rscale>
<asrwt>0</asrwt>
<pdfrwt beam="1">  1       21 0.11753722E-01 0.45357400E+03</pdfrwt>
<pdfrwt beam="2">  1       21 0.94633101E-01 0.45357400E+03</pdfrwt>
<totfact> 0.52232618E+04</totfact>
</mgrwt>
</event>
<event>
 7    0  0.4748297E-002  0.4561765E+03  0.7546771E-02  0.1025896E+00
         21   -1    0    0  502  501  0.00000000000E+00  0.00000000000E+00  0.13998133998E+04  0.13998133998E+04  0.00000000000E+00 0. -1.
         21   -1    0    0  501  502 -0.00000000000E+00 -0.00000000000E+00 -0.37165134489E+02  0.37165134489E+02  0.00000000000E+00 0. -1.
      99926    2    1    2    0    0  0.00000000000E+00  0.00000000000E+00  0.13626482653E+04  0.14369785343E+04  0.45617651523E+03 0.  0.
      99925    2    3    3    0    0 -0.12037983311E+02  0.44485239595E+02  0.11861607100E+04  0.12158016483E+04  0.26281660650E+03 0.  0.
         25    1    4    4    0    0 -0.42104260579E+02  0.15537531621E+02  0.51995320093E+03  0.53666844784E+03  0.12509000000E+03 0.  0.
         25    1    4    4    0    0  0.30066277268E+02  0.28947707974E+02  0.66620750904E+03  0.67913320051E+03  0.12509000000E+03 0.  0.
         25    1    3    3    0    0  0.12037983311E+02 -0.44485239595E+02  0.17648755531E+03  0.22117688591E+03  0.12509000000E+03 0.  0.
<mgrwt>
<rscale>  2 0.45617652E+03</rscale>
<asrwt>0</asrwt>
<pdfrwt beam="1">  1       21 0.20585488E+00 0.45617652E+03</pdfrwt>
<pdfrwt beam="2">  1       21 0.54654619E-02 0.45617652E+03</pdfrwt>
<totfact> 0.25132527E+04</totfact>
</mgrwt>
</event>
<event>
 7    0  0.4748297E-002  0.4447790E+03  0.7546771E-02  0.1029291E+00
         21   -1    0    0  502  501  0.00000000000E+00  0.00000000000E+00  0.24924310626E+03  0.24924310626E+03  0.00000000000E+00 0. -1.
         21   -1    0    0  501  502 -0.00000000000E+00 -0.00000000000E+00 -0.19842912451E+03  0.19842912451E+03  0.00000000000E+00 0. -1.
      99926    2    1    2    0    0  0.00000000000E+00 -0.17763568394E-14  0.50813981754E+02  0.44767223076E+03  0.44477900744E+03 0.  0.
      99925    2    3    3    0    0 -0.98560386630E+02 -0.49946704474E+01  0.28926093924E+01  0.28128995234E+03  0.26339433090E+03 0.  0.
         25    1    4    4    0    0 -0.89173967412E+02  0.90000013039E+01 -0.11167304146E+02  0.15428938158E+03  0.12509000000E+03 0.  0.
         25    1    4    4    0    0 -0.93864192174E+01 -0.13994671751E+02  0.14059913539E+02  0.12700057075E+03  0.12509000000E+03 0.  0.
         25    1    3    3    0    0  0.98560386630E+02  0.49946704474E+01  0.47921372362E+02  0.16638227843E+03  0.12509000000E+03 0.  0.
<mgrwt>
<rscale>  2 0.44477901E+03</rscale>
<asrwt>0</asrwt>
<pdfrwt beam="1">  1       21 0.36653398E-01 0.44477901E+03</pdfrwt>
<pdfrwt beam="2">  1       21 0.29180754E-01 0.44477901E+03</pdfrwt>
<totfact> 0.75019425E+04</totfact>
</mgrwt>
</event>
<event>
 7    0  0.4748297E-002  0.4544599E+03  0.7546771E-02  0.1026400E+00
         21   -1    0    0  502  501  0.00000000000E+00  0.00000000000E+00  0.81582074580E+02  0.81582074580E+02  0.00000000000E+00 0.  1.
         21   -1    0    0  501  502 -0.00000000000E+00 -0.00000000000E+00 -0.63290200088E+03  0.63290200088E+03  0.00000000000E+00 0.  1.
      99926    2    1    2    0    0  0.00000000000E+00  0.00000000000E+00 -0.55131992630E+03  0.71448407546E+03  0.45445993547E+03 0.  0.
      99925    2    3    3    0    0 -0.41272915633E+02  0.10454213177E+03 -0.33646595348E+03  0.44164300704E+03  0.26307165742E+03 0.  0.
         25    1    4    4    0    0 -0.36896352066E+02  0.14315017611E+02 -0.16865271017E+03  0.21367616917E+03  0.12509000000E+03 0.  0.
         25    1    3    3    0    0  0.41272915633E+02 -0.10454213177E+03 -0.21485397282E+03  0.27284106842E+03  0.12509000000E+03 0.  0.
         25    1    4    4    0    0 -0.43765635662E+01  0.90227114157E+02 -0.16781324332E+03  0.22796683787E+03  0.12509000000E+03 0.  0.
<mgrwt>
<rscale>  2 0.45445994E+03</rscale>
<asrwt>0</asrwt>
<pdfrwt beam="1">  1       21 0.11997364E-01 0.45445994E+03</pdfrwt>
<pdfrwt beam="2">  1       21 0.93073822E-01 0.45445994E+03</pdfrwt>
<totfact> 0.52345676E+04</totfact>
</mgrwt>
</event>
<event>
 7    0  0.4748297E-002  0.4626833E+03  0.7546771E-02  0.1024006E+00
         21   -1    0    0  502  501  0.00000000000E+00  0.00000000000E+00  0.10240430423E+04  0.10240430423E+04  0.00000000000E+00 0.  1.
         21   -1    0    0  501  502 -0.00000000000E+00 -0.00000000000E+00 -0.52262418767E+02  0.52262418767E+02  0.00000000000E+00 0.  1.
      99926    2    1    2    0    0  0.00000000000E+00  0.35527136788E-14  0.97178062350E+03  0.10763054610E+04  0.46268333149E+03 0.  0.
      99925    2    3    3    0    0  0.88957456997E+02 -0.31032682507E+02  0.78106434604E+03  0.82953296839E+03  0.26303417353E+03 0.  0.
         25    1    3    3    0    0 -0.88957456997E+02  0.31032682507E+02  0.19071627745E+03  0.24677249264E+03  0.12509000000E+03 0.  0.
         25    1    4    4    0    0  0.33076760419E+02  0.14924267743E+02  0.44614542831E+03  0.46476882119E+03  0.12509000000E+03 0.  0.
         25    1    4    4    0    0  0.55880696578E+02 -0.45956950250E+02  0.33491891773E+03  0.36476414720E+03  0.12509000000E+03 0.  0.
<mgrwt>
<rscale>  2 0.46268333E+03</rscale>
<asrwt>0</asrwt>
<pdfrwt beam="1">  1       21 0.15059455E+00 0.46268333E+03</pdfrwt>
<pdfrwt beam="2">  1       21 0.76856505E-02 0.46268333E+03</pdfrwt>
<totfact> 0.34228095E+04</totfact>
</mgrwt>
</event>
<event>
 7    0  0.4748297E-002  0.4691001E+03  0.7546771E-02  0.1022174E+00
         21   -1    0    0  502  501  0.00000000000E+00  0.00000000000E+00  0.28877262825E+02  0.28877262825E+02  0.00000000000E+00 0.  1.
         21   -1    0    0  501  502 -0.00000000000E+00 -0.00000000000E+00 -0.19050881565E+04  0.19050881565E+04  0.00000000000E+00 0.  1.
      99926    2    1    2    0    0  0.00000000000E+00  0.00000000000E+00 -0.18762108937E+04  0.19339654193E+04  0.46910012322E+03 0.  0.
      99925    2    3    3    0    0  0.70737300368E+02  0.75439934271E+02 -0.14625083353E+04  0.14895644019E+04  0.26301431018E+03 0.  0.
         25    1    3    3    0    0 -0.70737300368E+02 -0.75439934271E+02 -0.41370255837E+03  0.44440101738E+03  0.12509000000E+03 0.  0.
         25    1    4    4    0    0  0.26278817658E+02  0.75693836139E+02 -0.70048341948E+03  0.71606191224E+03  0.12509000000E+03 0.  0.
         25    1    4    4    0    0  0.44458482710E+02 -0.25390186802E+00 -0.76202491582E+03  0.77350248971E+03  0.12509000000E+03 0.  0.
<mgrwt>
<rscale>  2 0.46910012E+03</rscale>
<asrwt>0</asrwt>
<pdfrwt beam="1">  1       21 0.42466546E-02 0.46910012E+03</pdfrwt>
<pdfrwt beam="2">  1       21 0.28016013E+00 0.46910012E+03</pdfrwt>
<totfact> 0.13301798E+04</totfact>
</mgrwt>
</event>
<event>
 7    0  0.4748297E-002  0.4619524E+03  0.7546771E-02  0.1024216E+00
         21   -1    0    0  502  501  0.00000000000E+00  0.00000000000E+00  0.26526910278E+02  0.26526910278E+02  0.00000000000E+00 0.  1.
         21   -1    0    0  501  502 -0.00000000000E+00 -0.00000000000E+00 -0.20111652013E+04  0.20111652013E+04  0.00000000000E+00 0.  1.
      99926    2    1    2    0    0  0.00000000000E+00  0.22204460493E-14 -0.19846382910E+04  0.20376921116E+04  0.46195237352E+03 0.  0.
      99925    2    3    3    0    0 -0.23853606359E+02 -0.25015685577E+01 -0.17578578736E+04  0.17775919036E+04  0.26304642077E+03 0.  0.
         25    1    4    4    0    0 -0.45584381464E+01 -0.29248751825E+02 -0.10681325713E+04  0.10758396566E+04  0.12509000000E+03 0.  0.
         25    1    3    3    0    0  0.23853606359E+02  0.25015685577E+01 -0.22678041744E+03  0.26010020803E+03  0.12509000000E+03 0.  0.
         25    1    4    4    0    0 -0.19295168212E+02  0.26747183268E+02 -0.68972530231E+03  0.70175224693E+03  0.12509000000E+03 0.  0.
<mgrwt>
<rscale>  2 0.46195237E+03</rscale>
<asrwt>0</asrwt>
<pdfrwt beam="1">  1       21 0.39010164E-02 0.46195237E+03</pdfrwt>
<pdfrwt beam="2">  1       21 0.29575958E+00 0.46195237E+03</pdfrwt>
<totfact> 0.12420103E+04</totfact>
</mgrwt>
</event>
<event>
 7    0  0.4748297E-002  0.4562463E+03  0.7546771E-02  0.1025876E+00
         21   -1    0    0  502  501  0.00000000000E+00  0.00000000000E+00  0.78050378589E+03  0.78050378589E+03  0.00000000000E+00 0. -1.
         21   -1    0    0  501  502 -0.00000000000E+00 -0.00000000000E+00 -0.66675117368E+02  0.66675117368E+02  0.00000000000E+00 0. -1.
      99926    2    1    2    0    0 -0.14210854715E-13  0.00000000000E+00  0.71382866852E+03  0.84717890326E+03  0.45624634368E+03 0.  0.
      99925    2    3    3    0    0 -0.79369365776E+02  0.81887731926E+02  0.43522948339E+03  0.52118793571E+03  0.26307235556E+03 0.  0.
         25    1    3    3    0    0  0.79369365776E+02 -0.81887731926E+02  0.27859918513E+03  0.32599096754E+03  0.12509000000E+03 0.  0.
         25    1    4    4    0    0 -0.80051988853E+02  0.49956590292E+02  0.25940853314E+03  0.30305820728E+03  0.12509000000E+03 0.  0.
         25    1    4    4    0    0  0.68262307636E+00  0.31931141633E+02  0.17582095024E+03  0.21812972843E+03  0.12509000000E+03 0.  0.
<mgrwt>
<rscale>  2 0.45624634E+03</rscale>
<asrwt>0</asrwt>
<pdfrwt beam="1">  1       21 0.11477996E+00 0.45624634E+03</pdfrwt>
<pdfrwt beam="2">  1       21 0.98051648E-02 0.45624634E+03</pdfrwt>
<totfact> 0.45123037E+04</totfact>
</mgrwt>
</event>
<event>
 7    0  0.4748297E-002  0.4549799E+03  0.7546771E-02  0.1026247E+00
         21   -1    0    0  502  501  0.00000000000E+00  0.00000000000E+00  0.12409591484E+03  0.12409591484E+03  0.00000000000E+00 0.  1.
         21   -1    0    0  501  502 -0.00000000000E+00 -0.00000000000E+00 -0.41702962669E+03  0.41702962669E+03  0.00000000000E+00 0.  1.
      99926    2    1    2    0    0  0.00000000000E+00  0.00000000000E+00 -0.29293371185E+03  0.54112554154E+03  0.45497988105E+03 0.  0.
      99925    2    3    3    0    0 -0.67143565613E+02 -0.41313226167E+02 -0.28092578154E+03  0.39277885452E+03  0.26294655875E+03 0.  0.
         25    1    4    4    0    0 -0.50725558108E+02 -0.12888611363E+02 -0.19499636050E+03  0.23750849933E+03  0.12509000000E+03 0.  0.
         25    1    3    3    0    0  0.67143565613E+02  0.41313226167E+02 -0.12007930308E+02  0.14834668702E+03  0.12509000000E+03 0.  0.
         25    1    4    4    0    0 -0.16418007505E+02 -0.28424614803E+02 -0.85929421046E+02  0.15527035518E+03  0.12509000000E+03 0.  0.
<mgrwt>
<rscale>  2 0.45497988E+03</rscale>
<asrwt>0</asrwt>
<pdfrwt beam="1">  1       21 0.18249399E-01 0.45497988E+03</pdfrwt>
<pdfrwt beam="2">  1       21 0.61327886E-01 0.45497988E+03</pdfrwt>
<totfact> 0.62466726E+04</totfact>
</mgrwt>
</event>
<event>
 7    0  0.4748297E-002  0.4468517E+03  0.7546771E-02  0.1028665E+00
         21   -1    0    0  502  501  0.00000000000E+00  0.00000000000E+00  0.20501681214E+03  0.20501681214E+03  0.00000000000E+00 0. -1.
         21   -1    0    0  501  502 -0.00000000000E+00 -0.00000000000E+00 -0.24348787737E+03  0.24348787737E+03  0.00000000000E+00 0. -1.
      99926    2    1    2    0    0 -0.71054273576E-14  0.00000000000E+00 -0.38471065236E+02  0.44850468951E+03  0.44685169089E+03 0.  0.
      99925    2    3    3    0    0 -0.54944617185E+02  0.88344355175E+02 -0.41443330758E+02  0.28577799068E+03  0.26292180253E+03 0.  0.
         25    1    4    4    0    0 -0.65671140484E+02  0.62612535942E+02 -0.19607592307E+02  0.15577225082E+03  0.12509000000E+03 0.  0.
         25    1    3    3    0    0  0.54944617185E+02 -0.88344355175E+02  0.29722655223E+01  0.16272669883E+03  0.12509000000E+03 0.  0.
         25    1    4    4    0    0  0.10726523300E+02  0.25731819233E+02 -0.21835738451E+02  0.13000573986E+03  0.12509000000E+03 0.  0.
<mgrwt>
<rscale>  2 0.44685169E+03</rscale>
<asrwt>0</asrwt>
<pdfrwt beam="1">  1       21 0.30149531E-01 0.44685169E+03</pdfrwt>
<pdfrwt beam="2">  1       21 0.35807041E-01 0.44685169E+03</pdfrwt>
<totfact> 0.73700470E+04</totfact>
</mgrwt>
</event>
<event>
 7    0  0.4748297E-002  0.4514337E+03  0.7546771E-02  0.1027295E+00
         21   -1    0    0  502  501  0.00000000000E+00  0.00000000000E+00  0.96283526856E+02  0.96283526856E+02  0.00000000000E+00 0. -1.
         21   -1    0    0  501  502 -0.00000000000E+00 -0.00000000000E+00 -0.52914654979E+03  0.52914654979E+03  0.00000000000E+00 0. -1.
      99926    2    1    2    0    0  0.00000000000E+00 -0.35527136788E-14 -0.43286302293E+03  0.62543007665E+03  0.45143369851E+03 0.  0.
      99925    2    3    3    0    0 -0.10183544628E+03 -0.30337671395E+02 -0.31170790311E+03  0.42142786199E+03  0.26296158194E+03 0.  0.
         25    1    3    3    0    0  0.10183544628E+03  0.30337671395E+02 -0.12115511982E+03  0.20400221466E+03  0.12509000000E+03 0.  0.
         25    1    4    4    0    0 -0.64170062991E+02 -0.51860608862E+02 -0.14474489979E+03  0.20834085978E+03  0.12509000000E+03 0.  0.
         25    1    4    4    0    0 -0.37665383292E+02  0.21522937467E+02 -0.16696300332E+03  0.21308700221E+03  0.12509000000E+03 0.  0.
<mgrwt>
<rscale>  2 0.45143370E+03</rscale>
<asrwt>0</asrwt>
<pdfrwt beam="1">  1       21 0.14159342E-01 0.45143370E+03</pdfrwt>
<pdfrwt beam="2">  1       21 0.77815669E-01 0.45143370E+03</pdfrwt>
<totfact> 0.58777187E+04</totfact>
</mgrwt>
</event>
<event>
 7    0  0.4748297E-002  0.4526406E+03  0.7546771E-02  0.1026938E+00
         21   -1    0    0  502  501  0.00000000000E+00  0.00000000000E+00  0.38349001245E+03  0.38349001245E+03  0.00000000000E+00 0.  1.
         21   -1    0    0  501  502 -0.00000000000E+00 -0.00000000000E+00 -0.13356507705E+03  0.13356507705E+03  0.00000000000E+00 0.  1.
      99926    2    1    2    0    0  0.14210854715E-13 -0.14210854715E-13  0.24992493539E+03  0.51705508950E+03  0.45264057733E+03 0.  0.
      99925    2    3    3    0    0 -0.76193917578E+02  0.71861465681E+02  0.19963773720E+03  0.34633340451E+03  0.26291066475E+03 0.  0.
         25    1    4    4    0    0 -0.15786156641E+01  0.48148469331E+02  0.11217917992E+03  0.17479257317E+03  0.12509000000E+03 0.  0.
         25    1    3    3    0    0  0.76193917578E+02 -0.71861465681E+02  0.50287198198E+02  0.17072168500E+03  0.12509000000E+03 0.  0.
         25    1    4    4    0    0 -0.74615301914E+02  0.23712996350E+02  0.87458557271E+02  0.17154083134E+03  0.12509000000E+03 0.  0.
<mgrwt>
<rscale>  2 0.45264058E+03</rscale>
<asrwt>0</asrwt>
<pdfrwt beam="1">  1       21 0.56395589E-01 0.45264058E+03</pdfrwt>
<pdfrwt beam="2">  1       21 0.19641923E-01 0.45264058E+03</pdfrwt>
<totfact> 0.65302285E+04</totfact>
</mgrwt>
</event>
<event>
 7    0  0.4748297E-002  0.4555532E+03  0.7546771E-02  0.1026079E+00
         21   -1    0    0  502  501  0.00000000000E+00  0.00000000000E+00  0.14533741221E+03  0.14533741221E+03  0.00000000000E+00 0. -1.
         21   -1    0    0  501  502 -0.00000000000E+00 -0.00000000000E+00 -0.35697747343E+03  0.35697747343E+03  0.00000000000E+00 0. -1.
      99926    2    1    2    0    0  0.00000000000E+00  0.00000000000E+00 -0.21164006122E+03  0.50231488563E+03  0.45555321184E+03 0.  0.
      99925    2    3    3    0    0  0.54885851422E+02  0.80089648367E+02 -0.19834939141E+03  0.34340938395E+03  0.26298424943E+03 0.  0.
         25    1    3    3    0    0 -0.54885851422E+02 -0.80089648367E+02 -0.13290669804E+02  0.15890550169E+03  0.12509000000E+03 0.  0.
         25    1    4    4    0    0 -0.89437456604E+01  0.42812539149E+02 -0.71738959803E+02  0.15068805709E+03  0.12509000000E+03 0.  0.
         25    1    4    4    0    0  0.63829597083E+02  0.37277109218E+02 -0.12661043161E+03  0.19272132686E+03  0.12509000000E+03 0.  0.
<mgrwt>
<rscale>  2 0.45555321E+03</rscale>
<asrwt>0</asrwt>
<pdfrwt beam="1">  1       21 0.21373149E-01 0.45555321E+03</pdfrwt>
<pdfrwt beam="2">  1       21 0.52496687E-01 0.45555321E+03</pdfrwt>
<totfact> 0.64823215E+04</totfact>
</mgrwt>
</event>
<event>
 7    0  0.4748297E-002  0.4434938E+03  0.7546771E-02  0.1029680E+00
         21   -1    0    0  502  501  0.00000000000E+00  0.00000000000E+00  0.14332828500E+03  0.14332828500E+03  0.00000000000E+00 0. -1.
         21   -1    0    0  501  502 -0.00000000000E+00 -0.00000000000E+00 -0.34307037412E+03  0.34307037412E+03  0.00000000000E+00 0. -1.
      99926    2    1    2    0    0  0.00000000000E+00  0.00000000000E+00 -0.19974208912E+03  0.48639865912E+03  0.44349380315E+03 0.  0.
      99925    2    3    3    0    0 -0.54470562540E+02  0.78296144318E+02 -0.87284456534E+02  0.29302969671E+03  0.26296482351E+03 0.  0.
         25    1    4    4    0    0 -0.66421475910E+02  0.37834654032E+02 -0.32842040507E+02  0.15023109276E+03  0.12509000000E+03 0.  0.
         25    1    4    4    0    0  0.11950913370E+02  0.40461490286E+02 -0.54442416026E+02  0.14279860395E+03  0.12509000000E+03 0.  0.
         25    1    3    3    0    0  0.54470562540E+02 -0.78296144318E+02 -0.11245763258E+03  0.19336896241E+03  0.12509000000E+03 0.  0.
<mgrwt>
<rscale>  2 0.44349380E+03</rscale>
<asrwt>0</asrwt>
<pdfrwt beam="1">  1       21 0.21077689E-01 0.44349380E+03</pdfrwt>
<pdfrwt beam="2">  1       21 0.50451525E-01 0.44349380E+03</pdfrwt>
<totfact> 0.72649902E+04</totfact>
</mgrwt>
</event>
<event>
 7    0  0.4748297E-002  0.4528273E+03  0.7546771E-02  0.1026882E+00
         21   -1    0    0  502  501  0.00000000000E+00  0.00000000000E+00  0.24144450742E+03  0.24144450742E+03  0.00000000000E+00 0.  1.
         21   -1    0    0  501  502 -0.00000000000E+00 -0.00000000000E+00 -0.21231853364E+03  0.21231853364E+03  0.00000000000E+00 0.  1.
      99926    2    1    2    0    0  0.00000000000E+00  0.00000000000E+00  0.29125973784E+02  0.45376304106E+03  0.45282731266E+03 0.  0.
      99925    2    3    3    0    0 -0.22685805270E+02  0.45757107254E+02 -0.80186130990E+02  0.27996717525E+03  0.26333143562E+03 0.  0.
         25    1    4    4    0    0 -0.47937076047E+02  0.41656855721E+02 -0.35690726919E+02  0.14475701357E+03  0.12509000000E+03 0.  0.
         25    1    4    4    0    0  0.25251270777E+02  0.41002515331E+01 -0.44495404071E+02  0.13521016168E+03  0.12509000000E+03 0.  0.
         25    1    3    3    0    0  0.22685805270E+02 -0.45757107254E+02  0.10931210477E+03  0.17379586582E+03  0.12509000000E+03 0.  0.
<mgrwt>
<rscale>  2 0.45282731E+03</rscale>
<asrwt>0</asrwt>
<pdfrwt beam="1">  1       21 0.35506545E-01 0.45282731E+03</pdfrwt>
<pdfrwt beam="2">  1       21 0.31223314E-01 0.45282731E+03</pdfrwt>
<totfact> 0.69839408E+04</totfact>
</mgrwt>
</event>
<event>
 7    0  0.4748297E-002  0.4260244E+03  0.7546771E-02  0.1035123E+00
         21   -1    0    0  502  501  0.00000000000E+00  0.00000000000E+00  0.11871046086E+04  0.11871046086E+04  0.00000000000E+00 0. -1.
         21   -1    0    0  501  502 -0.00000000000E+00 -0.00000000000E+00 -0.38222570984E+02  0.38222570984E+02  0.00000000000E+00 0. -1.
      99926    2    1    2    0    0  0.35527136788E-14 -0.71054273576E-14  0.11488820376E+04  0.12253271796E+04  0.42602436629E+03 0.  0.
      99925    2    3    3    0    0  0.13315530481E+02 -0.56136594982E+02  0.57137550077E+03  0.63161855674E+03  0.26295135992E+03 0.  0.
         25    1    3    3    0    0 -0.13315530481E+02  0.56136594982E+02  0.57750653687E+03  0.59370862288E+03  0.12509000000E+03 0.  0.
         25    1    4    4    0    0 -0.22139595811E+02 -0.56683557708E+02  0.28759708968E+03  0.31947266160E+03  0.12509000000E+03 0.  0.
         25    1    4    4    0    0  0.35455126292E+02  0.54696272535E+00  0.28377841110E+03  0.31214589514E+03  0.12509000000E+03 0.  0.
<mgrwt>
<rscale>  2 0.42602437E+03</rscale>
<asrwt>0</asrwt>
<pdfrwt beam="1">  1       21 0.17457418E+00 0.42602437E+03</pdfrwt>
<pdfrwt beam="2">  1       21 0.56209671E-02 0.42602437E+03</pdfrwt>
<totfact> 0.39560183E+04</totfact>
</mgrwt>
</event>
<event>
 7    0  0.4748297E-002  0.4449109E+03  0.7546771E-02  0.1029251E+00
         21   -1    0    0  502  501  0.00000000000E+00  0.00000000000E+00  0.23819750312E+03  0.23819750312E+03  0.00000000000E+00 0. -1.
         21   -1    0    0  501  502 -0.00000000000E+00 -0.00000000000E+00 -0.20775379298E+03  0.20775379298E+03  0.00000000000E+00 0. -1.
      99926    2    1    2    0    0  0.00000000000E+00  0.00000000000E+00  0.30443710142E+02  0.44595129610E+03  0.44491093379E+03 0.  0.
      99925    2    3    3    0    0 -0.97773394339E+02  0.32473570293E+02  0.23244073788E+02  0.28373689393E+03  0.26334799905E+03 0.  0.
         25    1    4    4    0    0 -0.48081042364E+02  0.57196627741E+02  0.17640168522E+02  0.14677167474E+03  0.12509000000E+03 0.  0.
         25    1    3    3    0    0  0.97773394339E+02 -0.32473570293E+02  0.71996363541E+01  0.16221440217E+03  0.12509000000E+03 0.  0.
         25    1    4    4    0    0 -0.49692351975E+02 -0.24723057448E+02  0.56039052657E+01  0.13696521919E+03  0.12509000000E+03 0.  0.
<mgrwt>
<rscale>  2 0.44491093E+03</rscale>
<asrwt>0</asrwt>
<pdfrwt beam="1">  1       21 0.35029045E-01 0.44491093E+03</pdfrwt>
<pdfrwt beam="2">  1       21 0.30552028E-01 0.44491093E+03</pdfrwt>
<totfact> 0.75077939E+04</totfact>
</mgrwt>
</event>
<event>
 7    0  0.4748297E-002  0.4222057E+03  0.7546771E-02  0.1036351E+00
         21   -1    0    0  502  501  0.00000000000E+00  0.00000000000E+00  0.22113837682E+03  0.22113837682E+03  0.00000000000E+00 0.  1.
         21   -1    0    0  501  502 -0.00000000000E+00 -0.00000000000E+00 -0.20152270981E+03  0.20152270981E+03  0.00000000000E+00 0.  1.
      99926    2    1    2    0    0  0.00000000000E+00 -0.17763568394E-14  0.19615667012E+02  0.42266108662E+03  0.42220566050E+03 0.  0.
      99925    2    3    3    0    0  0.25643860169E+02 -0.11588820236E+02  0.86150201771E+02  0.27820950050E+03  0.26303376320E+03 0.  0.
         25    1    3    3    0    0 -0.25643860169E+02  0.11588820236E+02 -0.66534534759E+02  0.14445158613E+03  0.12509000000E+03 0.  0.
         25    1    4    4    0    0  0.47861081310E+02  0.10017711023E+02  0.58015707422E+02  0.14630231730E+03  0.12509000000E+03 0.  0.
         25    1    4    4    0    0 -0.22217221142E+02 -0.21606531259E+02  0.28134494349E+02  0.13190718320E+03  0.12509000000E+03 0.  0.
<mgrwt>
<rscale>  2 0.42220566E+03</rscale>
<asrwt>0</asrwt>
<pdfrwt beam="1">  1       21 0.32520350E-01 0.42220566E+03</pdfrwt>
<pdfrwt beam="2">  1       21 0.29635692E-01 0.42220566E+03</pdfrwt>
<totfact> 0.93049209E+04</totfact>
</mgrwt>
</event>
<event>
 7    0  0.4748297E-002  0.4579626E+03  0.7546771E-02  0.1025374E+00
         21   -1    0    0  502  501  0.00000000000E+00  0.00000000000E+00  0.10101372894E+03  0.10101372894E+03  0.00000000000E+00 0.  1.
         21   -1    0    0  501  502 -0.00000000000E+00 -0.00000000000E+00 -0.51906245918E+03  0.51906245918E+03  0.00000000000E+00 0.  1.
      99926    2    1    2    0    0  0.00000000000E+00  0.00000000000E+00 -0.41804873024E+03  0.62007618812E+03  0.45796259479E+03 0.  0.
      99925    2    3    3    0    0 -0.53781673999E+02  0.41435537727E+02 -0.38946952091E+03  0.47490852109E+03  0.26313917125E+03 0.  0.
         25    1    3    3    0    0  0.53781673999E+02 -0.41435537727E+02 -0.28579209329E+02  0.14516766703E+03  0.12509000000E+03 0.  0.
         25    1    4    4    0    0 -0.32571378522E+02  0.58572946651E+02 -0.23198935731E+03  0.27195267012E+03  0.12509000000E+03 0.  0.
         25    1    4    4    0    0 -0.21210295477E+02 -0.17137408924E+02 -0.15748016360E+03  0.20295585098E+03  0.12509000000E+03 0.  0.
<mgrwt>
<rscale>  2 0.45796259E+03</rscale>
<asrwt>0</asrwt>
<pdfrwt beam="1">  1       21 0.14854961E-01 0.45796259E+03</pdfrwt>
<pdfrwt beam="2">  1       21 0.76332712E-01 0.45796259E+03</pdfrwt>
<totfact> 0.56134423E+04</totfact>
</mgrwt>
</event>
<event>
 7    0  0.4748297E-002  0.4571880E+03  0.7546771E-02  0.1025600E+00
         21   -1    0    0  502  501  0.00000000000E+00  0.00000000000E+00  0.61408707885E+02  0.61408707885E+02  0.00000000000E+00 0.  1.
         21   -1    0    0  501  502 -0.00000000000E+00 -0.00000000000E+00 -0.85094134882E+03  0.85094134882E+03  0.00000000000E+00 0.  1.
      99926    2    1    2    0    0  0.00000000000E+00  0.00000000000E+00 -0.78953264094E+03  0.91235005671E+03  0.45718796448E+03 0.  0.
      99925    2    3    3    0    0  0.79051088391E+02  0.30958432065E+02 -0.65127655023E+03  0.70748484783E+03  0.26299461199E+03 0.  0.
         25    1    4    4    0    0  0.59106066420E+02  0.31229617740E+02 -0.25937985932E+03  0.29562516069E+03  0.12509000000E+03 0.  0.
         25    1    3    3    0    0 -0.79051088391E+02 -0.30958432065E+02 -0.13825609071E+03  0.20486520888E+03  0.12509000000E+03 0.  0.
         25    1    4    4    0    0  0.19945021971E+02 -0.27118567566E+00 -0.39189669091E+03  0.41185968714E+03  0.12509000000E+03 0.  0.
<mgrwt>
<rscale>  2 0.45718796E+03</rscale>
<asrwt>0</asrwt>
<pdfrwt beam="1">  1       21 0.90306928E-02 0.45718796E+03</pdfrwt>
<pdfrwt beam="2">  1       21 0.12513843E+00 0.45718796E+03</pdfrwt>
<totfact> 0.41980434E+04</totfact>
</mgrwt>
</event>
<event>
 7    0  0.4748297E-002  0.4510438E+03  0.7546771E-02  0.1027411E+00
         21   -1    0    0  502  501  0.00000000000E+00  0.00000000000E+00  0.52625299256E+03  0.52625299256E+03  0.00000000000E+00 0.  1.
         21   -1    0    0  501  502 -0.00000000000E+00 -0.00000000000E+00 -0.96645769085E+02  0.96645769085E+02  0.00000000000E+00 0.  1.
      99926    2    1    2    0    0  0.00000000000E+00  0.44408920985E-15  0.42960722347E+03  0.62289876164E+03  0.45104379033E+03 0.  0.
      99925    2    3    3    0    0 -0.36813624583E+02  0.23675977558E+01  0.41362487737E+03  0.49150701167E+03  0.26293108388E+03 0.  0.
         25    1    4    4    0    0 -0.40610526040E+02 -0.70198998843E+01  0.27245548378E+03  0.30261855951E+03  0.12509000000E+03 0.  0.
         25    1    3    3    0    0  0.36813624583E+02 -0.23675977558E+01  0.15982346108E+02  0.13139174997E+03  0.12509000000E+03 0.  0.
         25    1    4    4    0    0  0.37969014567E+01  0.93874976401E+01  0.14116939359E+03  0.18888845216E+03  0.12509000000E+03 0.  0.
<mgrwt>
<rscale>  2 0.45104379E+03</rscale>
<asrwt>0</asrwt>
<pdfrwt beam="1">  1       21 0.77390145E-01 0.45104379E+03</pdfrwt>
<pdfrwt beam="2">  1       21 0.14212613E-01 0.45104379E+03</pdfrwt>
<totfact> 0.59115517E+04</totfact>
</mgrwt>
</event>
<event>
 7    0  0.4748297E-002  0.4557627E+03  0.7546771E-02  0.1026017E+00
         21   -1    0    0  502  501  0.00000000000E+00  0.00000000000E+00  0.32789274954E+03  0.32789274954E+03  0.00000000000E+00 0. -1.
         21   -1    0    0  501  502 -0.00000000000E+00 -0.00000000000E+00 -0.15837470045E+03  0.15837470045E+03  0.00000000000E+00 0. -1.
      99926    2    1    2    0    0  0.00000000000E+00 -0.88817841970E-15  0.16951804909E+03  0.48626745000E+03  0.45576272770E+03 0.  0.
      99925    2    3    3    0    0  0.96477506813E+02 -0.42899370114E+01  0.42444127958E+02  0.28348282925E+03  0.26312487074E+03 0.  0.
         25    1    3    3    0    0 -0.96477506813E+02  0.42899370114E+01  0.12707392113E+03  0.20278462075E+03  0.12509000000E+03 0.  0.
         25    1    4    4    0    0  0.22351866873E+02 -0.22851281417E+02 -0.55885043391E+01  0.12923051689E+03  0.12509000000E+03 0.  0.
         25    1    4    4    0    0  0.74125639940E+02  0.18561344406E+02  0.48032632297E+02  0.15425231236E+03  0.12509000000E+03 0.  0.
<mgrwt>
<rscale>  2 0.45576273E+03</rscale>
<asrwt>0</asrwt>
<pdfrwt beam="1">  1       21 0.48219522E-01 0.45576273E+03</pdfrwt>
<pdfrwt beam="2">  1       21 0.23290397E-01 0.45576273E+03</pdfrwt>
<totfact> 0.65847032E+04</totfact>
</mgrwt>
</event>
<event>
 7    0  0.4748297E-002  0.4723925E+03  0.7546771E-02  0.1021247E+00
         21   -1    0    0  502  501  0.00000000000E+00  0.00000000000E+00  0.90402179268E+02  0.90402179268E+02  0.00000000000E+00 0. -1.
         21   -1    0    0  501  502 -0.00000000000E+00 -0.00000000000E+00 -0.61711650970E+03  0.61711650970E+03  0.00000000000E+00 0. -1.
      99926    2    1    2    0    0 -0.17763568394E-14  0.00000000000E+00 -0.52671433043E+03  0.70751868896E+03  0.47239253736E+03 0.  0.
      99925    2    3    3    0    0  0.85922570591E+01  0.59415118337E+02 -0.49720135812E+03  0.56566486701E+03  0.26298967297E+03 0.  0.
         25    1    3    3    0    0 -0.85922570591E+01 -0.59415118337E+02 -0.29512972313E+02  0.14185382195E+03  0.12509000000E+03 0.  0.
         25    1    4    4    0    0 -0.30804788713E+02  0.34664846944E+02 -0.28979042889E+03  0.31902443072E+03  0.12509000000E+03 0.  0.
         25    1    4    4    0    0  0.39397045772E+02  0.24750271393E+02 -0.20741092923E+03  0.24664043629E+03  0.12509000000E+03 0.  0.
<mgrwt>
<rscale>  2 0.47239254E+03</rscale>
<asrwt>0</asrwt>
<pdfrwt beam="1">  1       21 0.13294438E-01 0.47239254E+03</pdfrwt>
<pdfrwt beam="2">  1       21 0.90752427E-01 0.47239254E+03</pdfrwt>
<totfact> 0.45885066E+04</totfact>
</mgrwt>
</event>
<event>
 7    0  0.4748297E-002  0.4618974E+03  0.7546771E-02  0.1024232E+00
         21   -1    0    0  502  501  0.00000000000E+00  0.00000000000E+00  0.89868522346E+03  0.89868522346E+03  0.00000000000E+00 0. -1.
         21   -1    0    0  501  502 -0.00000000000E+00 -0.00000000000E+00 -0.59350359651E+02  0.59350359651E+02  0.00000000000E+00 0. -1.
      99926    2    1    2    0    0 -0.14210854715E-13  0.00000000000E+00  0.83933486381E+03  0.95803558311E+03  0.46189735321E+03 0.  0.
      99925    2    3    3    0    0  0.95416686025E+02  0.60998000835E+02  0.44578816077E+03  0.52983981521E+03  0.26301719605E+03 0.  0.
         25    1    4    4    0    0  0.66200063319E+02 -0.56325273199E+01  0.21793549895E+03  0.25991837863E+03  0.12509000000E+03 0.  0.
         25    1    4    4    0    0  0.29216622706E+02  0.66630528155E+02  0.22785266182E+03  0.26992143658E+03  0.12509000000E+03 0.  0.
         25    1    3    3    0    0 -0.95416686025E+02 -0.60998000835E+02  0.39354670304E+03  0.42819576790E+03  0.12509000000E+03 0.  0.
<mgrwt>
<rscale>  2 0.46189735E+03</rscale>
<asrwt>0</asrwt>
<pdfrwt beam="1">  1       21 0.13215958E+00 0.46189735E+03</pdfrwt>
<pdfrwt beam="2">  1       21 0.87279946E-02 0.46189735E+03</pdfrwt>
<totfact> 0.38688102E+04</totfact>
</mgrwt>
</event>
<event>
 7    0  0.4748297E-002  0.4500179E+03  0.7546771E-02  0.1027717E+00
         21   -1    0    0  502  501  0.00000000000E+00  0.00000000000E+00  0.18279991857E+04  0.18279991857E+04  0.00000000000E+00 0.  1.
         21   -1    0    0  501  502 -0.00000000000E+00 -0.00000000000E+00 -0.27696416606E+02  0.27696416606E+02  0.00000000000E+00 0.  1.
      99926    2    1    2    0    0  0.00000000000E+00  0.00000000000E+00  0.18003027691E+04  0.18556956023E+04  0.45001789743E+03 0.  0.
      99925    2    3    3    0    0  0.10651636387E+03  0.15810240212E+02  0.11579134435E+04  0.11924405584E+04  0.26373328065E+03 0.  0.
         25    1    4    4    0    0  0.41244804230E+02 -0.68572593897E+01  0.71439619631E+03  0.72646926245E+03  0.12509000000E+03 0.  0.
         25    1    3    3    0    0 -0.10651636387E+03 -0.15810240212E+02  0.64238932560E+03  0.66325504387E+03  0.12509000000E+03 0.  0.
         25    1    4    4    0    0  0.65271559643E+02  0.22667499602E+02  0.44351724715E+03  0.46597129595E+03  0.12509000000E+03 0.  0.
<mgrwt>
<rscale>  2 0.45001790E+03</rscale>
<asrwt>0</asrwt>
<pdfrwt beam="1">  1       21 0.26882333E+00 0.45001790E+03</pdfrwt>
<pdfrwt beam="2">  1       21 0.40730037E-02 0.45001790E+03</pdfrwt>
<totfact> 0.16854610E+04</totfact>
</mgrwt>
</event>
<event>
 7    0  0.4748297E-002  0.4436044E+03  0.7546771E-02  0.1029647E+00
         21   -1    0    0  502  501  0.00000000000E+00  0.00000000000E+00  0.36941749903E+03  0.36941749903E+03  0.00000000000E+00 0. -1.
         21   -1    0    0  501  502 -0.00000000000E+00 -0.00000000000E+00 -0.13317242377E+03  0.13317242377E+03  0.00000000000E+00 0. -1.
      99926    2    1    2    0    0  0.00000000000E+00  0.00000000000E+00  0.23624507525E+03  0.50258992280E+03  0.44360443519E+03 0.  0.
      99925    2    3    3    0    0 -0.36352211277E+02  0.67217796809E+02  0.22715776442E+03  0.35572330715E+03  0.26286632695E+03 0.  0.
         25    1    4    4    0    0 -0.39248275818E+02  0.40542266885E+02  0.73145300558E+02  0.15550513063E+03  0.12509000000E+03 0.  0.
         25    1    4    4    0    0  0.28960645411E+01  0.26675529923E+02  0.15401246386E+03  0.20021817652E+03  0.12509000000E+03 0.  0.
         25    1    3    3    0    0  0.36352211277E+02 -0.67217796809E+02  0.90873108387E+01  0.14686661564E+03  0.12509000000E+03 0.  0.
<mgrwt>
<rscale>  2 0.44360444E+03</rscale>
<asrwt>0</asrwt>
<pdfrwt beam="1">  1       21 0.54326103E-01 0.44360444E+03</pdfrwt>
<pdfrwt beam="2">  1       21 0.19584180E-01 0.44360444E+03</pdfrwt>
<totfact> 0.71324694E+04</totfact>
</mgrwt>
</event>
<event>
 7    0  0.4748297E-002  0.4531943E+03  0.7546771E-02  0.1026774E+00
         21   -1    0    0  502  501  0.00000000000E+00  0.00000000000E+00  0.82993234839E+02  0.82993234839E+02  0.00000000000E+00 0. -1.
         21   -1    0    0  501  502 -0.00000000000E+00 -0.00000000000E+00 -0.61868023613E+03  0.61868023613E+03  0.00000000000E+00 0. -1.
      99926    2    1    2    0    0 -0.17763568394E-14  0.00000000000E+00 -0.53568700129E+03  0.70167347097E+03  0.45319432533E+03 0.  0.
      99925    2    3    3    0    0 -0.13911511518E+02  0.89607810147E+02 -0.23699740665E+03  0.36539074492E+03  0.26290594501E+03 0.  0.
         25    1    4    4    0    0 -0.45730424133E+02  0.53227013578E+02 -0.13418711192E+03  0.19641302342E+03  0.12509000000E+03 0.  0.
         25    1    3    3    0    0  0.13911511518E+02 -0.89607810147E+02 -0.29868959464E+03  0.33628272605E+03  0.12509000000E+03 0.  0.
         25    1    4    4    0    0  0.31818912615E+02  0.36380796569E+02 -0.10281029473E+03  0.16897772150E+03  0.12509000000E+03 0.  0.
<mgrwt>
<rscale>  2 0.45319433E+03</rscale>
<asrwt>0</asrwt>
<pdfrwt beam="1">  1       21 0.12204888E-01 0.45319433E+03</pdfrwt>
<pdfrwt beam="2">  1       21 0.90982386E-01 0.45319433E+03</pdfrwt>
<totfact> 0.53569338E+04</totfact>
</mgrwt>
</event>
<event>
 7    0  0.4748297E-002  0.4415661E+03  0.7546771E-02  0.1030267E+00
         21   -1    0    0  502  501  0.00000000000E+00  0.00000000000E+00  0.20586349356E+03  0.20586349356E+03  0.00000000000E+00 0. -1.
         21   -1    0    0  501  502 -0.00000000000E+00 -0.00000000000E+00 -0.23678384876E+03  0.23678384876E+03  0.00000000000E+00 0. -1.
      99926    2    1    2    0    0  0.00000000000E+00  0.14210854715E-13 -0.30920355205E+02  0.44264734232E+03  0.44156607806E+03 0.  0.
      99925    2    3    3    0    0  0.32597304599E+02  0.79156810889E+02 -0.71759651212E+02  0.28566409106E+03  0.26291850525E+03 0.  0.
         25    1    4    4    0    0  0.34216263075E+02  0.28059830577E+01 -0.27889864635E+02  0.13267998662E+03  0.12509000000E+03 0.  0.
         25    1    3    3    0    0 -0.32597304599E+02 -0.79156810889E+02  0.40839296007E+02  0.15698325126E+03  0.12509000000E+03 0.  0.
         25    1    4    4    0    0 -0.16189584757E+01  0.76350827832E+02 -0.43869786577E+02  0.15298410444E+03  0.12509000000E+03 0.  0.
<mgrwt>
<rscale>  2 0.44156608E+03</rscale>
<asrwt>0</asrwt>
<pdfrwt beam="1">  1       21 0.30274043E-01 0.44156608E+03</pdfrwt>
<pdfrwt beam="2">  1       21 0.34821154E-01 0.44156608E+03</pdfrwt>
<totfact> 0.77433248E+04</totfact>
</mgrwt>
</event>
<event>
 7    0  0.4748297E-002  0.4501057E+03  0.7546771E-02  0.1027691E+00
         21   -1    0    0  502  501  0.00000000000E+00  0.00000000000E+00  0.22219423185E+03  0.22219423185E+03  0.00000000000E+00 0. -1.
         21   -1    0    0  501  502 -0.00000000000E+00 -0.00000000000E+00 -0.22794822647E+03  0.22794822647E+03  0.00000000000E+00 0. -1.
      99926    2    1    2    0    0 -0.14210854715E-13  0.00000000000E+00 -0.57539946156E+01  0.45014245832E+03  0.45010568129E+03 0.  0.
      99925    2    3    3    0    0 -0.66771350605E+02  0.71875034434E+02  0.42871264565E+02  0.28390059305E+03  0.26293947512E+03 0.  0.
         25    1    4    4    0    0 -0.37078472180E+02  0.35859139568E+02 -0.19198058578E+02  0.13666295966E+03  0.12509000000E+03 0.  0.
         25    1    3    3    0    0  0.66771350605E+02 -0.71875034434E+02 -0.48625259180E+02  0.16624186527E+03  0.12509000000E+03 0.  0.
         25    1    4    4    0    0 -0.29692878426E+02  0.36015894866E+02  0.62069323143E+02  0.14723763339E+03  0.12509000000E+03 0.  0.
<mgrwt>
<rscale>  2 0.45010568E+03</rscale>
<asrwt>0</asrwt>
<pdfrwt beam="1">  1       21 0.32675623E-01 0.45010568E+03</pdfrwt>
<pdfrwt beam="2">  1       21 0.33521798E-01 0.45010568E+03</pdfrwt>
<totfact> 0.71660977E+04</totfact>
</mgrwt>
</event>
<event>
 7    0  0.4748297E-002  0.4559802E+03  0.7546771E-02  0.1025954E+00
         21   -1    0    0  502  501  0.00000000000E+00  0.00000000000E+00  0.42213989083E+03  0.42213989083E+03  0.00000000000E+00 0. -1.
         21   -1    0    0  501  502 -0.00000000000E+00 -0.00000000000E+00 -0.12313330933E+03  0.12313330933E+03  0.00000000000E+00 0. -1.
      99926    2    1    2    0    0 -0.14210854715E-13  0.17763568394E-14  0.29900658150E+03  0.54527320016E+03  0.45598018271E+03 0.  0.
      99925    2    3    3    0    0  0.74300937663E+02 -0.10576495705E+02  0.29069358275E+03  0.39915986864E+03  0.26304628885E+03 0.  0.
         25    1    4    4    0    0 -0.41390219824E+01 -0.47713212622E+01  0.12102782549E+03  0.17416985862E+03  0.12509000000E+03 0.  0.
         25    1    4    4    0    0  0.78439959646E+02 -0.58051744425E+01  0.16966575726E+03  0.22499001001E+03  0.12509000000E+03 0.  0.
         25    1    3    3    0    0 -0.74300937663E+02  0.10576495705E+02  0.83129987476E+01  0.14611333152E+03  0.12509000000E+03 0.  0.
<mgrwt>
<rscale>  2 0.45598018E+03</rscale>
<asrwt>0</asrwt>
<pdfrwt beam="1">  1       21 0.62079395E-01 0.45598018E+03</pdfrwt>
<pdfrwt beam="2">  1       21 0.18107840E-01 0.45598018E+03</pdfrwt>
<totfact> 0.61700005E+04</totfact>
</mgrwt>
</event>
<event>
 7    0  0.4748297E-002  0.4550043E+03  0.7546771E-02  0.1026240E+00
         21   -1    0    0  502  501  0.00000000000E+00  0.00000000000E+00  0.90673032385E+03  0.90673032385E+03  0.00000000000E+00 0.  1.
         21   -1    0    0  501  502 -0.00000000000E+00 -0.00000000000E+00 -0.57081173286E+02  0.57081173286E+02  0.00000000000E+00 0.  1.
      99926    2    1    2    0    0  0.00000000000E+00  0.17763568394E-14  0.84964915057E+03  0.96381149714E+03  0.45500431092E+03 0.  0.
      99925    2    3    3    0    0  0.11192327562E+03  0.13600092759E+02  0.55647602792E+03  0.62571421811E+03  0.26294663135E+03 0.  0.
         25    1    4    4    0    0  0.25769606767E+02 -0.10143217655E+02  0.30719246503E+03  0.33283881410E+03  0.12509000000E+03 0.  0.
         25    1    4    4    0    0  0.86153668852E+02  0.23743310415E+02  0.24928356289E+03  0.29287540401E+03  0.12509000000E+03 0.  0.
         25    1    3    3    0    0 -0.11192327562E+03 -0.13600092759E+02  0.29317312265E+03  0.33809727903E+03  0.12509000000E+03 0.  0.
<mgrwt>
<rscale>  2 0.45500431E+03</rscale>
<asrwt>0</asrwt>
<pdfrwt beam="1">  1       21 0.13334269E+00 0.45500431E+03</pdfrwt>
<pdfrwt beam="2">  1       21 0.83942907E-02 0.45500431E+03</pdfrwt>
<totfact> 0.40585206E+04</totfact>
</mgrwt>
</event>
<event>
 7    0  0.4748297E-002  0.4047683E+03  0.7546771E-02  0.1042141E+00
         21   -1    0    0  502  501  0.00000000000E+00  0.00000000000E+00  0.50413130474E+03  0.50413130474E+03  0.00000000000E+00 0.  1.
         21   -1    0    0  501  502 -0.00000000000E+00 -0.00000000000E+00 -0.81247385283E+02  0.81247385283E+02  0.00000000000E+00 0.  1.
      99926    2    1    2    0    0  0.35527136788E-14  0.71054273576E-14  0.42288391946E+03  0.58537869002E+03  0.40476833053E+03 0.  0.
      99925    2    3    3    0    0  0.16804023254E+02  0.43259561615E+02  0.24006625448E+03  0.35905243967E+03  0.26293170792E+03 0.  0.
         25    1    4    4    0    0  0.45278418703E+02  0.38856058823E+02  0.12153918213E+03  0.18433450410E+03  0.12509000000E+03 0.  0.
         25    1    3    3    0    0 -0.16804023254E+02 -0.43259561615E+02  0.18281766498E+03  0.22632625035E+03  0.12509000000E+03 0.  0.
         25    1    4    4    0    0 -0.28474395449E+02  0.44035027918E+01  0.11852707234E+03  0.17471793557E+03  0.12509000000E+03 0.  0.
<mgrwt>
<rscale>  2 0.40476833E+03</rscale>
<asrwt>0</asrwt>
<pdfrwt beam="1">  1       21 0.74136955E-01 0.40476833E+03</pdfrwt>
<pdfrwt beam="2">  1       21 0.11948145E-01 0.40476833E+03</pdfrwt>
<totfact> 0.90508944E+04</totfact>
</mgrwt>
</event>
<event>
 7    0  0.4748297E-002  0.4518678E+03  0.7546771E-02  0.1027167E+00
         21   -1    0    0  502  501  0.00000000000E+00  0.00000000000E+00  0.98197569594E+02  0.98197569594E+02  0.00000000000E+00 0. -1.
         21   -1    0    0  501  502 -0.00000000000E+00 -0.00000000000E+00 -0.51983077797E+03  0.51983077797E+03  0.00000000000E+00 0. -1.
      99926    2    1    2    0    0  0.00000000000E+00  0.00000000000E+00 -0.42163320837E+03  0.61802834756E+03  0.45186776383E+03 0.  0.
      99925    2    3    3    0    0 -0.80875886543E+02 -0.46809243254E+02 -0.18615221653E+03  0.33548486436E+03  0.26299321706E+03 0.  0.
         25    1    3    3    0    0  0.80875886543E+02  0.46809243254E+02 -0.23548099185E+03  0.28254348320E+03  0.12509000000E+03 0.  0.
         25    1    4    4    0    0 -0.54929077816E+02  0.64419934214E+01 -0.12056574611E+03  0.18232473805E+03  0.12509000000E+03 0.  0.
         25    1    4    4    0    0 -0.25946808727E+02 -0.53251236675E+02 -0.65586470414E+02  0.15316012631E+03  0.12509000000E+03 0.  0.
<mgrwt>
<rscale>  2 0.45186776E+03</rscale>
<asrwt>0</asrwt>
<pdfrwt beam="1">  1       21 0.14440819E-01 0.45186776E+03</pdfrwt>
<pdfrwt beam="2">  1       21 0.76445702E-01 0.45186776E+03</pdfrwt>
<totfact> 0.59028646E+04</totfact>
</mgrwt>
</event>
<event>
 7    0  0.4748297E-002  0.4539617E+03  0.7546771E-02  0.1026547E+00
         21   -1    0    0  502  501  0.00000000000E+00  0.00000000000E+00  0.11102363552E+04  0.11102363552E+04  0.00000000000E+00 0. -1.
         21   -1    0    0  501  502 -0.00000000000E+00 -0.00000000000E+00 -0.46404800213E+02  0.46404800213E+02  0.00000000000E+00 0. -1.
      99926    2    1    2    0    0  0.00000000000E+00  0.00000000000E+00  0.10638315550E+04  0.11566411554E+04  0.45396165588E+03 0.  0.
      99925    2    3    3    0    0 -0.67371896413E+02 -0.50905217215E+02  0.48167899141E+03  0.55524325972E+03  0.26296409095E+03 0.  0.
         25    1    4    4    0    0  0.26802735008E+01 -0.42680672883E+02  0.21624958067E+03  0.25345653068E+03  0.12509000000E+03 0.  0.
         25    1    4    4    0    0 -0.70052169914E+02 -0.82245443315E+01  0.26542941073E+03  0.30178672903E+03  0.12509000000E+03 0.  0.
         25    1    3    3    0    0  0.67371896413E+02  0.50905217215E+02  0.58215256360E+03  0.60139789572E+03  0.12509000000E+03 0.  0.
<mgrwt>
<rscale>  2 0.45396166E+03</rscale>
<asrwt>0</asrwt>
<pdfrwt beam="1">  1       21 0.16327004E+00 0.45396166E+03</pdfrwt>
<pdfrwt beam="2">  1       21 0.68242360E-02 0.45396166E+03</pdfrwt>
<totfact> 0.33834365E+04</totfact>
</mgrwt>
</event>
<event>
 7    0  0.4748297E-002  0.4588006E+03  0.7546771E-02  0.1025130E+00
         21   -1    0    0  502  501  0.00000000000E+00  0.00000000000E+00  0.57594188734E+03  0.57594188734E+03  0.00000000000E+00 0. -1.
         21   -1    0    0  501  502 -0.00000000000E+00 -0.00000000000E+00 -0.91371177855E+02  0.91371177855E+02  0.00000000000E+00 0. -1.
      99926    2    1    2    0    0 -0.17763568394E-14  0.00000000000E+00  0.48457070949E+03  0.66731306520E+03  0.45880056069E+03 0.  0.
      99925    2    3    3    0    0  0.12857722248E+02 -0.37088786151E+02  0.46388109743E+03  0.53458602490E+03  0.26278441047E+03 0.  0.
         25    1    3    3    0    0 -0.12857722248E+02  0.37088786151E+02  0.20689612061E+02  0.13272704030E+03  0.12509000000E+03 0.  0.
         25    1    4    4    0    0 -0.23484157074E+02 -0.44992355163E+02  0.24634378459E+03  0.28090672111E+03  0.12509000000E+03 0.  0.
         25    1    4    4    0    0  0.36341879322E+02  0.79035690122E+01  0.21753731283E+03  0.25367930379E+03  0.12509000000E+03 0.  0.
<mgrwt>
<rscale>  2 0.45880056E+03</rscale>
<asrwt>0</asrwt>
<pdfrwt beam="1">  1       21 0.84697334E-01 0.45880056E+03</pdfrwt>
<pdfrwt beam="2">  1       21 0.13436938E-01 0.45880056E+03</pdfrwt>
<totfact> 0.53104581E+04</totfact>
</mgrwt>
</event>
<event>
 7    0  0.4748297E-002  0.4602872E+03  0.7546771E-02  0.1024698E+00
         21   -1    0    0  502  501  0.00000000000E+00  0.00000000000E+00  0.91747877582E+02  0.91747877582E+02  0.00000000000E+00 0. -1.
         21   -1    0    0  501  502 -0.00000000000E+00 -0.00000000000E+00 -0.57730032044E+03  0.57730032044E+03  0.00000000000E+00 0. -1.
      99926    2    1    2    0    0  0.71054273576E-14  0.22204460493E-15 -0.48555244285E+03  0.66904819802E+03  0.46028721089E+03 0.  0.
      99925    2    3    3    0    0 -0.45843967442E+02 -0.10410765209E+01 -0.14597088423E+03  0.30426621347E+03  0.26299748369E+03 0.  0.
         25    1    4    4    0    0  0.15404245645E+02 -0.28344311388E+01 -0.86039288106E+02  0.15262893560E+03  0.12509000000E+03 0.  0.
         25    1    3    3    0    0  0.45843967442E+02  0.10410765209E+01 -0.33958155863E+03  0.36478198455E+03  0.12509000000E+03 0.  0.
         25    1    4    4    0    0 -0.61248213087E+02  0.17933546179E+01 -0.59931596123E+02  0.15163727787E+03  0.12509000000E+03 0.  0.
<mgrwt>
<rscale>  2 0.46028721E+03</rscale>
<asrwt>0</asrwt>
<pdfrwt beam="1">  1       21 0.13492335E-01 0.46028721E+03</pdfrwt>
<pdfrwt beam="2">  1       21 0.84897105E-01 0.46028721E+03</pdfrwt>
<totfact> 0.52397444E+04</totfact>
</mgrwt>
</event>
<event>
 7    0  0.4748297E-002  0.4512839E+03  0.7546771E-02  0.1027340E+00
         21   -1    0    0  502  501  0.00000000000E+00  0.00000000000E+00  0.41488453076E+02  0.41488453076E+02  0.00000000000E+00 0. -1.
         21   -1    0    0  501  502 -0.00000000000E+00 -0.00000000000E+00 -0.12271920489E+04  0.12271920489E+04  0.00000000000E+00 0. -1.
      99926    2    1    2    0    0 -0.14210854715E-13  0.71054273576E-14 -0.11857035958E+04  0.12686805020E+04  0.45128394493E+03 0.  0.
      99925    2    3    3    0    0 -0.94643605744E+02  0.43579140515E+02 -0.65122521903E+03  0.70995767538E+03  0.26284798142E+03 0.  0.
         25    1    4    4    0    0 -0.62733179228E+02  0.44617207589E+02 -0.26855507732E+03  0.30609718170E+03  0.12509000000E+03 0.  0.
         25    1    4    4    0    0 -0.31910426516E+02 -0.10380670738E+01 -0.38267014171E+03  0.40386049368E+03  0.12509000000E+03 0.  0.
         25    1    3    3    0    0  0.94643605744E+02 -0.43579140515E+02 -0.53447837680E+03  0.55872282660E+03  0.12509000000E+03 0.  0.
<mgrwt>
<rscale>  2 0.45128394E+03</rscale>
<asrwt>0</asrwt>
<pdfrwt beam="1">  1       21 0.61012426E-02 0.45128394E+03</pdfrwt>
<pdfrwt beam="2">  1       21 0.18046943E+00 0.45128394E+03</pdfrwt>
<totfact> 0.30922589E+04</totfact>
</mgrwt>
</event>
<event>
 7    0  0.4748297E-002  0.4526942E+03  0.7546771E-02  0.1026922E+00
         21   -1    0    0  502  501  0.00000000000E+00  0.00000000000E+00  0.90470082715E+02  0.90470082715E+02  0.00000000000E+00 0. -1.
         21   -1    0    0  501  502 -0.00000000000E+00 -0.00000000000E+00 -0.56629783497E+03  0.56629783497E+03  0.00000000000E+00 0. -1.
      99926    2    1    2    0    0  0.35527136788E-14  0.00000000000E+00 -0.47582775225E+03  0.65676791768E+03  0.45269421013E+03 0.  0.
      99925    2    3    3    0    0  0.11837572922E+02  0.21939713822E+02 -0.45731024661E+03  0.52788081480E+03  0.26249574053E+03 0.  0.
         25    1    4    4    0    0 -0.17973737061E+02 -0.80142587450E+01 -0.27526412211E+03  0.30299361147E+03  0.12509000000E+03 0.  0.
         25    1    3    3    0    0 -0.11837572922E+02 -0.21939713822E+02 -0.18517505638E+02  0.12888710289E+03  0.12509000000E+03 0.  0.
         25    1    4    4    0    0  0.29811309983E+02  0.29953972567E+02 -0.18204612450E+03  0.22488720333E+03  0.12509000000E+03 0.  0.
<mgrwt>
<rscale>  2 0.45269421E+03</rscale>
<asrwt>0</asrwt>
<pdfrwt beam="1">  1       21 0.13304424E-01 0.45269421E+03</pdfrwt>
<pdfrwt beam="2">  1       21 0.83279096E-01 0.45269421E+03</pdfrwt>
<totfact> 0.56330550E+04</totfact>
</mgrwt>
</event>
<event>
 7    0  0.4748297E-002  0.4551654E+03  0.7546771E-02  0.1026193E+00
         21   -1    0    0  502  501  0.00000000000E+00  0.00000000000E+00  0.16564345532E+04  0.16564345532E+04  0.00000000000E+00 0. -1.
         21   -1    0    0  501  502 -0.00000000000E+00 -0.00000000000E+00 -0.31268292935E+02  0.31268292935E+02  0.00000000000E+00 0. -1.
      99926    2    1    2    0    0  0.00000000000E+00  0.00000000000E+00  0.16251662603E+04  0.16877028462E+04  0.45516538022E+03 0.  0.
      99925    2    3    3    0    0 -0.83287993611E+02 -0.34872629875E+02  0.12763343762E+04  0.13062789591E+04  0.26302526269E+03 0.  0.
         25    1    4    4    0    0 -0.78424616750E+01 -0.73184828653E+01  0.69431970273E+03  0.70557949382E+03  0.12509000000E+03 0.  0.
         25    1    3    3    0    0  0.83287993611E+02  0.34872629875E+02  0.34883188408E+03  0.38142388709E+03  0.12509000000E+03 0.  0.
         25    1    4    4    0    0 -0.75445531936E+02 -0.27554147010E+02  0.58201467350E+03  0.60069946527E+03  0.12509000000E+03 0.  0.
<mgrwt>
<rscale>  2 0.45516538E+03</rscale>
<asrwt>0</asrwt>
<pdfrwt beam="1">  1       21 0.24359326E+00 0.45516538E+03</pdfrwt>
<pdfrwt beam="2">  1       21 0.45982795E-02 0.45516538E+03</pdfrwt>
<totfact> 0.19493610E+04</totfact>
</mgrwt>
</event>
<event>
 7    0  0.4748297E-002  0.4656366E+03  0.7546771E-02  0.1023159E+00
         21   -1    0    0  502  501  0.00000000000E+00  0.00000000000E+00  0.63366997686E+02  0.63366997686E+02  0.00000000000E+00 0. -1.
         21   -1    0    0  501  502 -0.00000000000E+00 -0.00000000000E+00 -0.85540362715E+03  0.85540362715E+03  0.00000000000E+00 0. -1.
      99926    2    1    2    0    0  0.00000000000E+00 -0.71054273576E-14 -0.79203662947E+03  0.91877062484E+03  0.46563659505E+03 0.  0.
      99925    2    3    3    0    0  0.10986571125E+03 -0.48863994625E+02 -0.54475281380E+03  0.61668626895E+03  0.26284627008E+03 0.  0.
         25    1    4    4    0    0  0.98366802747E+02 -0.28823533303E+02 -0.31351957755E+03  0.35277309642E+03  0.12509000000E+03 0.  0.
         25    1    3    3    0    0 -0.10986571125E+03  0.48863994625E+02 -0.24728381566E+03  0.30208435588E+03  0.12509000000E+03 0.  0.
         25    1    4    4    0    0  0.11498908504E+02 -0.20040461322E+02 -0.23123323625E+03  0.26391317253E+03  0.12509000000E+03 0.  0.
<mgrwt>
<rscale>  2 0.46563660E+03</rscale>
<asrwt>0</asrwt>
<pdfrwt beam="1">  1       21 0.93186770E-02 0.46563660E+03</pdfrwt>
<pdfrwt beam="2">  1       21 0.12579464E+00 0.46563660E+03</pdfrwt>
<totfact> 0.39075757E+04</totfact>
</mgrwt>
</event>
<event>
 7    0  0.4748297E-002  0.4525191E+03  0.7546771E-02  0.1026973E+00
         21   -1    0    0  502  501  0.00000000000E+00  0.00000000000E+00  0.76147704532E+03  0.76147704532E+03  0.00000000000E+00 0. -1.
         21   -1    0    0  501  502 -0.00000000000E+00 -0.00000000000E+00 -0.67229067708E+02  0.67229067708E+02  0.00000000000E+00 0. -1.
      99926    2    1    2    0    0 -0.17763568394E-14  0.00000000000E+00  0.69424797761E+03  0.82870611302E+03  0.45251913479E+03 0.  0.
      99925    2    3    3    0    0 -0.15616094650E+02  0.76698386020E+02  0.29371997684E+03  0.40186106815E+03  0.26285811472E+03 0.  0.
         25    1    3    3    0    0  0.15616094650E+02 -0.76698386020E+02  0.40052800077E+03  0.42684504487E+03  0.12509000000E+03 0.  0.
         25    1    4    4    0    0 -0.31457878183E+02  0.49197398267E+02  0.10595711323E+03  0.17402413637E+03  0.12509000000E+03 0.  0.
         25    1    4    4    0    0  0.15841783532E+02  0.27500987754E+02  0.18776286360E+03  0.22783693178E+03  0.12509000000E+03 0.  0.
<mgrwt>
<rscale>  2 0.45251913E+03</rscale>
<asrwt>0</asrwt>
<pdfrwt beam="1">  1       21 0.11198191E+00 0.45251913E+03</pdfrwt>
<pdfrwt beam="2">  1       21 0.98866281E-02 0.45251913E+03</pdfrwt>
<totfact> 0.47321895E+04</totfact>
</mgrwt>
</event>
<event>
 7    0  0.4748297E-002  0.4453928E+03  0.7546771E-02  0.1029105E+00
         21   -1    0    0  502  501  0.00000000000E+00  0.00000000000E+00  0.13031917934E+03  0.13031917934E+03  0.00000000000E+00 0. -1.
         21   -1    0    0  501  502 -0.00000000000E+00 -0.00000000000E+00 -0.38055561250E+03  0.38055561250E+03  0.00000000000E+00 0. -1.
      99926    2    1    2    0    0  0.00000000000E+00 -0.17763568394E-14 -0.25023643316E+03  0.51087479185E+03  0.44539283836E+03 0.  0.
      99925    2    3    3    0    0  0.50905695439E+02 -0.12456700463E+02 -0.56118802385E+02  0.27407166287E+03  0.26309579471E+03 0.  0.
         25    1    4    4    0    0  0.20646928846E+02  0.32436369660E+02 -0.39863555104E+02  0.13680286866E+03  0.12509000000E+03 0.  0.
         25    1    4    4    0    0  0.30258766593E+02 -0.44893070123E+02 -0.16255247281E+02  0.13726879421E+03  0.12509000000E+03 0.  0.
         25    1    3    3    0    0 -0.50905695439E+02  0.12456700463E+02 -0.19411763077E+03  0.23680312897E+03  0.12509000000E+03 0.  0.
<mgrwt>
<rscale>  2 0.44539284E+03</rscale>
<asrwt>0</asrwt>
<pdfrwt beam="1">  1       21 0.19164585E-01 0.44539284E+03</pdfrwt>
<pdfrwt beam="2">  1       21 0.55964061E-01 0.44539284E+03</pdfrwt>
<totfact> 0.69674958E+04</totfact>
</mgrwt>
</event>
<event>
 7    0  0.4748297E-002  0.4541784E+03  0.7546771E-02  0.1026483E+00
         21   -1    0    0  502  501  0.00000000000E+00  0.00000000000E+00  0.14598348047E+04  0.14598348047E+04  0.00000000000E+00 0.  1.
         21   -1    0    0  501  502 -0.00000000000E+00 -0.00000000000E+00 -0.35325577333E+02  0.35325577333E+02  0.00000000000E+00 0.  1.
      99926    2    1    2    0    0  0.35527136788E-14 -0.17763568394E-14  0.14245092274E+04  0.14951603821E+04  0.45417841115E+03 0.  0.
      99925    2    3    3    0    0 -0.19212459737E+02  0.40057294810E+01  0.53407961976E+03  0.59577305797E+03  0.26328564694E+03 0.  0.
         25    1    4    4    0    0 -0.43069760798E+02 -0.15947009528E+02  0.30673575655E+03  0.33443032735E+03  0.12509000000E+03 0.  0.
         25    1    3    3    0    0  0.19212459737E+02 -0.40057294810E+01  0.89042960765E+03  0.89938732410E+03  0.12509000000E+03 0.  0.
         25    1    4    4    0    0  0.23857301060E+02  0.19952739009E+02  0.22734386321E+03  0.26134273062E+03  0.12509000000E+03 0.  0.
<mgrwt>
<rscale>  2 0.45417841E+03</rscale>
<asrwt>0</asrwt>
<pdfrwt beam="1">  1       21 0.21468155E+00 0.45417841E+03</pdfrwt>
<pdfrwt beam="2">  1       21 0.51949388E-02 0.45417841E+03</pdfrwt>
<totfact> 0.24051109E+04</totfact>
</mgrwt>
</event>
<event>
 7    0  0.4748297E-002  0.4564712E+03  0.7546771E-02  0.1025810E+00
         21   -1    0    0  502  501  0.00000000000E+00  0.00000000000E+00  0.15512534141E+03  0.15512534141E+03  0.00000000000E+00 0. -1.
         21   -1    0    0  501  502 -0.00000000000E+00 -0.00000000000E+00 -0.33580257886E+03  0.33580257886E+03  0.00000000000E+00 0. -1.
      99926    2    1    2    0    0  0.71054273576E-14  0.00000000000E+00 -0.18067723745E+03  0.49092792028E+03  0.45647120257E+03 0.  0.
      99925    2    3    3    0    0 -0.44898551940E+02 -0.45675823053E+02 -0.21570152910E+03  0.34609570741E+03  0.26296944357E+03 0.  0.
         25    1    4    4    0    0 -0.46459771330E+02 -0.53622173449E+02 -0.97045858340E+02  0.17349136739E+03  0.12509000000E+03 0.  0.
         25    1    3    3    0    0  0.44898551940E+02  0.45675823053E+02  0.35024291650E+02  0.14483221287E+03  0.12509000000E+03 0.  0.
         25    1    4    4    0    0  0.15612193901E+01  0.79463503959E+01 -0.11865567076E+03  0.17260434002E+03  0.12509000000E+03 0.  0.
<mgrwt>
<rscale>  2 0.45647120E+03</rscale>
<asrwt>0</asrwt>
<pdfrwt beam="1">  1       21 0.22812550E-01 0.45647120E+03</pdfrwt>
<pdfrwt beam="2">  1       21 0.49382732E-01 0.45647120E+03</pdfrwt>
<totfact> 0.65148590E+04</totfact>
</mgrwt>
</event>
<event>
 7    0  0.4748297E-002  0.4525729E+03  0.7546771E-02  0.1026958E+00
         21   -1    0    0  502  501  0.00000000000E+00  0.00000000000E+00  0.58953620230E+02  0.58953620230E+02  0.00000000000E+00 0. -1.
         21   -1    0    0  501  502 -0.00000000000E+00 -0.00000000000E+00 -0.86857342078E+03  0.86857342078E+03  0.00000000000E+00 0. -1.
      99926    2    1    2    0    0  0.14210854715E-13  0.00000000000E+00 -0.80961980055E+03  0.92752704101E+03  0.45257285642E+03 0.  0.
      99925    2    3    3    0    0 -0.73552914659E+02 -0.82590319050E+02 -0.52560010188E+03  0.59806400912E+03  0.26304733384E+03 0.  0.
         25    1    4    4    0    0 -0.35404474574E+02 -0.30647496672E+02 -0.17402306851E+03  0.21937247400E+03  0.12509000000E+03 0.  0.
         25    1    3    3    0    0  0.73552914659E+02  0.82590319050E+02 -0.28401969867E+03  0.32946303190E+03  0.12509000000E+03 0.  0.
         25    1    4    4    0    0 -0.38148440084E+02 -0.51942822378E+02 -0.35157703337E+03  0.37869153512E+03  0.12509000000E+03 0.  0.
<mgrwt>
<rscale>  2 0.45257286E+03</rscale>
<asrwt>0</asrwt>
<pdfrwt beam="1">  1       21 0.86696500E-02 0.45257286E+03</pdfrwt>
<pdfrwt beam="2">  1       21 0.12773139E+00 0.45257286E+03</pdfrwt>
<totfact> 0.42872633E+04</totfact>
</mgrwt>
</event>
<event>
 7    0  0.4748297E-002  0.4411812E+03  0.7546771E-02  0.1030385E+00
         21   -1    0    0  502  501  0.00000000000E+00  0.00000000000E+00  0.18061511009E+03  0.18061511009E+03  0.00000000000E+00 0. -1.
         21   -1    0    0  501  502 -0.00000000000E+00 -0.00000000000E+00 -0.26941389562E+03  0.26941389562E+03  0.00000000000E+00 0. -1.
      99926    2    1    2    0    0  0.14210854715E-13  0.00000000000E+00 -0.88798785529E+02  0.45002900571E+03  0.44118123449E+03 0.  0.
      99925    2    3    3    0    0  0.70045030832E+02  0.70723633976E+02 -0.53410134078E+02  0.28629750752E+03  0.26306934759E+03 0.  0.
         25    1    4    4    0    0  0.39964162315E+01  0.37987786150E+02 -0.52945066849E+02  0.14110184777E+03  0.12509000000E+03 0.  0.
         25    1    4    4    0    0  0.66048614601E+02  0.32735847826E+02 -0.46506722845E+00  0.14519565975E+03  0.12509000000E+03 0.  0.
         25    1    3    3    0    0 -0.70045030832E+02 -0.70723633976E+02 -0.35388651452E+02  0.16373149819E+03  0.12509000000E+03 0.  0.
<mgrwt>
<rscale>  2 0.44118123E+03</rscale>
<asrwt>0</asrwt>
<pdfrwt beam="1">  1       21 0.26561046E-01 0.44118123E+03</pdfrwt>
<pdfrwt beam="2">  1       21 0.39619690E-01 0.44118123E+03</pdfrwt>
<totfact> 0.77056632E+04</totfact>
</mgrwt>
</event>
<event>
 7    0  0.4748297E-002  0.4547014E+03  0.7546771E-02  0.1026329E+00
         21   -1    0    0  502  501  0.00000000000E+00  0.00000000000E+00  0.39619123372E+02  0.39619123372E+02  0.00000000000E+00 0.  1.
         21   -1    0    0  501  502 -0.00000000000E+00 -0.00000000000E+00 -0.13046308901E+04  0.13046308901E+04  0.00000000000E+00 0.  1.
      99926    2    1    2    0    0  0.00000000000E+00  0.00000000000E+00 -0.12650117668E+04  0.13442500135E+04  0.45470136218E+03 0.  0.
      99925    2    3    3    0    0  0.88802776560E+02 -0.42401912277E+02 -0.62581700442E+03  0.68553815875E+03  0.26197669513E+03 0.  0.
         25    1    4    4    0    0  0.59179040291E+02 -0.31770126259E+02 -0.41253682808E+03  0.43628619318E+03  0.12509000000E+03 0.  0.
         25    1    3    3    0    0 -0.88802776560E+02  0.42401912277E+02 -0.63919476234E+03  0.65871185475E+03  0.12509000000E+03 0.  0.
         25    1    4    4    0    0  0.29623736269E+02 -0.10631786017E+02 -0.21328017634E+03  0.24925196558E+03  0.12509000000E+03 0.  0.
<mgrwt>
<rscale>  2 0.45470136E+03</rscale>
<asrwt>0</asrwt>
<pdfrwt beam="1">  1       21 0.58263426E-02 0.45470136E+03</pdfrwt>
<pdfrwt beam="2">  1       21 0.19185745E+00 0.45470136E+03</pdfrwt>
<totfact> 0.27920968E+04</totfact>
</mgrwt>
</event>
<event>
 7    0  0.4748297E-002  0.4554704E+03  0.7546771E-02  0.1026103E+00
         21   -1    0    0  502  501  0.00000000000E+00  0.00000000000E+00  0.15622262311E+03  0.15622262311E+03  0.00000000000E+00 0. -1.
         21   -1    0    0  501  502 -0.00000000000E+00 -0.00000000000E+00 -0.33198348017E+03  0.33198348017E+03  0.00000000000E+00 0. -1.
      99926    2    1    2    0    0  0.14210854715E-13  0.14210854715E-13 -0.17576085706E+03  0.48820610328E+03  0.45547043857E+03 0.  0.
      99925    2    3    3    0    0 -0.83673853698E+02 -0.76477196768E+02 -0.11760949473E+03  0.30965873013E+03  0.26307120800E+03 0.  0.
         25    1    4    4    0    0 -0.65367405575E+01 -0.38946495846E+02 -0.30237303682E+02  0.13461560515E+03  0.12509000000E+03 0.  0.
         25    1    4    4    0    0 -0.77137113140E+02 -0.37530700922E+02 -0.87372191046E+02  0.17504312498E+03  0.12509000000E+03 0.  0.
         25    1    3    3    0    0  0.83673853698E+02  0.76477196768E+02 -0.58151362337E+02  0.17854737315E+03  0.12509000000E+03 0.  0.
<mgrwt>
<rscale>  2 0.45547044E+03</rscale>
<asrwt>0</asrwt>
<pdfrwt beam="1">  1       21 0.22973916E-01 0.45547044E+03</pdfrwt>
<pdfrwt beam="2">  1       21 0.48821099E-01 0.45547044E+03</pdfrwt>
<totfact> 0.65861124E+04</totfact>
</mgrwt>
</event>
<event>
 7    0  0.4748297E-002  0.4538851E+03  0.7546771E-02  0.1026570E+00
         21   -1    0    0  502  501  0.00000000000E+00  0.00000000000E+00  0.36343477445E+03  0.36343477445E+03  0.00000000000E+00 0. -1.
         21   -1    0    0  501  502 -0.00000000000E+00 -0.00000000000E+00 -0.14171158029E+03  0.14171158029E+03  0.00000000000E+00 0. -1.
      99926    2    1    2    0    0  0.35527136788E-14  0.00000000000E+00  0.22172319415E+03  0.50514635474E+03  0.45388507894E+03 0.  0.
      99925    2    3    3    0    0 -0.22182240624E+02 -0.10825455820E+03  0.11916172386E+03  0.30924468436E+03  0.26310008970E+03 0.  0.
         25    1    3    3    0    0  0.22182240624E+02  0.10825455820E+03  0.10256147029E+03  0.19590167038E+03  0.12509000000E+03 0.  0.
         25    1    4    4    0    0 -0.51879579509E+02 -0.54404092625E+02  0.63337930011E+02  0.15909273253E+03  0.12509000000E+03 0.  0.
         25    1    4    4    0    0  0.29697338886E+02 -0.53850465575E+02  0.55823793851E+02  0.15015195183E+03  0.12509000000E+03 0.  0.
<mgrwt>
<rscale>  2 0.45388508E+03</rscale>
<asrwt>0</asrwt>
<pdfrwt beam="1">  1       21 0.53446290E-01 0.45388508E+03</pdfrwt>
<pdfrwt beam="2">  1       21 0.20839938E-01 0.45388508E+03</pdfrwt>
<totfact> 0.65488215E+04</totfact>
</mgrwt>
</event>
<event>
 7    0  0.4748297E-002  0.4488917E+03  0.7546771E-02  0.1028053E+00
         21   -1    0    0  502  501  0.00000000000E+00  0.00000000000E+00  0.16198297062E+03  0.16198297062E+03  0.00000000000E+00 0. -1.
         21   -1    0    0  501  502 -0.00000000000E+00 -0.00000000000E+00 -0.31099527347E+03  0.31099527347E+03  0.00000000000E+00 0. -1.
      99926    2    1    2    0    0  0.00000000000E+00  0.26645352591E-14 -0.14901230286E+03  0.47297824409E+03  0.44889169404E+03 0.  0.
      99925    2    3    3    0    0  0.92602965360E+02 -0.39934182909E+01 -0.36749051162E+02  0.28103605914E+03  0.26275371965E+03 0.  0.
         25    1    3    3    0    0 -0.92602965360E+02  0.39934182909E+01 -0.11226325170E+03  0.19194218495E+03  0.12509000000E+03 0.  0.
         25    1    4    4    0    0  0.48873617151E+02 -0.30694571532E+02 -0.46780268923E+02  0.14548776181E+03  0.12509000000E+03 0.  0.
         25    1    4    4    0    0  0.43729348208E+02  0.26701153241E+02  0.10031217761E+02  0.13554829733E+03  0.12509000000E+03 0.  0.
<mgrwt>
<rscale>  2 0.44889169E+03</rscale>
<asrwt>0</asrwt>
<pdfrwt beam="1">  1       21 0.23821025E-01 0.44889169E+03</pdfrwt>
<pdfrwt beam="2">  1       21 0.45734598E-01 0.44889169E+03</pdfrwt>
<totfact> 0.70574644E+04</totfact>
</mgrwt>
</event>
<event>
 7    0  0.4748297E-002  0.4540532E+03  0.7546771E-02  0.1026520E+00
         21   -1    0    0  502  501  0.00000000000E+00  0.00000000000E+00  0.26893719966E+03  0.26893719966E+03  0.00000000000E+00 0. -1.
         21   -1    0    0  501  502 -0.00000000000E+00 -0.00000000000E+00 -0.19164723986E+03  0.19164723986E+03  0.00000000000E+00 0. -1.
      99926    2    1    2    0    0  0.00000000000E+00  0.00000000000E+00  0.77289959799E+02  0.46058443951E+03  0.45405317754E+03 0.  0.
      99925    2    3    3    0    0  0.90752288602E+02  0.43609189523E+02  0.99078709087E+02  0.29853507360E+03  0.26299973437E+03 0.  0.
         25    1    4    4    0    0  0.77481763183E+02  0.46730250852E+02  0.69320246294E+02  0.16923340278E+03  0.12509000000E+03 0.  0.
         25    1    4    4    0    0  0.13270525419E+02 -0.31210613290E+01  0.29758462793E+02  0.12930167082E+03  0.12509000000E+03 0.  0.
         25    1    3    3    0    0 -0.90752288602E+02 -0.43609189523E+02 -0.21788749289E+02  0.16204936591E+03  0.12509000000E+03 0.  0.
<mgrwt>
<rscale>  2 0.45405318E+03</rscale>
<asrwt>0</asrwt>
<pdfrwt beam="1">  1       21 0.39549588E-01 0.45405318E+03</pdfrwt>
<pdfrwt beam="2">  1       21 0.28183418E-01 0.45405318E+03</pdfrwt>
<totfact> 0.68654403E+04</totfact>
</mgrwt>
</event>
<event>
 7    0  0.4748297E-002  0.4591862E+03  0.7546771E-02  0.1025017E+00
         21   -1    0    0  502  501  0.00000000000E+00  0.00000000000E+00  0.65094163618E+03  0.65094163618E+03  0.00000000000E+00 0.  1.
         21   -1    0    0  501  502 -0.00000000000E+00 -0.00000000000E+00 -0.80979611894E+02  0.80979611894E+02  0.00000000000E+00 0.  1.
      99926    2    1    2    0    0  0.14210854715E-13  0.00000000000E+00  0.56996202429E+03  0.73192124808E+03  0.45918624136E+03 0.  0.
      99925    2    3    3    0    0  0.65938125600E+02 -0.45961144431E+02  0.22201980637E+03  0.35354107112E+03  0.26313158560E+03 0.  0.
         25    1    3    3    0    0 -0.65938125600E+02  0.45961144431E+02  0.34794221792E+03  0.37838017696E+03  0.12509000000E+03 0.  0.
         25    1    4    4    0    0  0.61118724489E+02 -0.54639937235E+02  0.12520475979E+03  0.19505066316E+03  0.12509000000E+03 0.  0.
         25    1    4    4    0    0  0.48194011108E+01  0.86787928034E+01  0.96815046579E+02  0.15849040796E+03  0.12509000000E+03 0.  0.
<mgrwt>
<rscale>  2 0.45918624E+03</rscale>
<asrwt>0</asrwt>
<pdfrwt beam="1">  1       21 0.95726709E-01 0.45918624E+03</pdfrwt>
<pdfrwt beam="2">  1       21 0.11908767E-01 0.45918624E+03</pdfrwt>
<totfact> 0.49552516E+04</totfact>
</mgrwt>
</event>
<event>
 7    0  0.4748297E-002  0.4553171E+03  0.7546771E-02  0.1026148E+00
         21   -1    0    0  502  501  0.00000000000E+00  0.00000000000E+00  0.15228072651E+04  0.15228072651E+04  0.00000000000E+00 0. -1.
         21   -1    0    0  501  502 -0.00000000000E+00 -0.00000000000E+00 -0.34034776338E+02  0.34034776338E+02  0.00000000000E+00 0. -1.
      99926    2    1    2    0    0  0.00000000000E+00  0.00000000000E+00  0.14887724888E+04  0.15568420414E+04  0.45531705293E+03 0.  0.
      99925    2    3    3    0    0  0.67168415912E+02 -0.69710923367E+02  0.73423516688E+03  0.78590411453E+03  0.26300720146E+03 0.  0.
         25    1    4    4    0    0 -0.64587535367E-01 -0.13002730102E+02  0.37316809469E+03  0.39379056636E+03  0.12509000000E+03 0.  0.
         25    1    4    4    0    0  0.67233003447E+02 -0.56708193265E+02  0.36106707219E+03  0.39211354816E+03  0.12509000000E+03 0.  0.
         25    1    3    3    0    0 -0.67168415912E+02  0.69710923367E+02  0.75453732189E+03  0.77093792691E+03  0.12509000000E+03 0.  0.
<mgrwt>
<rscale>  2 0.45531705E+03</rscale>
<asrwt>0</asrwt>
<pdfrwt beam="1">  1       21 0.22394220E+00 0.45531705E+03</pdfrwt>
<pdfrwt beam="2">  1       21 0.50051152E-02 0.45531705E+03</pdfrwt>
<totfact> 0.22364684E+04</totfact>
</mgrwt>
</event>
<event>
 7    0  0.4748297E-002  0.4759010E+03  0.7546771E-02  0.1020268E+00
         21   -1    0    0  502  501  0.00000000000E+00  0.00000000000E+00  0.29600238681E+03  0.29600238681E+03  0.00000000000E+00 0. -1.
         21   -1    0    0  501  502 -0.00000000000E+00 -0.00000000000E+00 -0.19128372695E+03  0.19128372695E+03  0.00000000000E+00 0. -1.
      99926    2    1    2    0    0 -0.71054273576E-14  0.00000000000E+00  0.10471865986E+03  0.48728611376E+03  0.47590099699E+03 0.  0.
      99925    2    3    3    0    0 -0.63704806993E+02  0.17943235377E+02 -0.52055512208E+02  0.27608499809E+03  0.26293133646E+03 0.  0.
         25    1    4    4    0    0 -0.71721673640E+02  0.83998817724E+01 -0.16081435055E+02  0.14532954668E+03  0.12509000000E+03 0.  0.
         25    1    4    4    0    0  0.80168666474E+01  0.95433536043E+01 -0.35974077153E+02  0.13075545142E+03  0.12509000000E+03 0.  0.
         25    1    3    3    0    0  0.63704806993E+02 -0.17943235377E+02  0.15677417206E+03  0.21120111566E+03  0.12509000000E+03 0.  0.
<mgrwt>
<rscale>  2 0.47590100E+03</rscale>
<asrwt>0</asrwt>
<pdfrwt beam="1">  1       21 0.43529763E-01 0.47590100E+03</pdfrwt>
<pdfrwt beam="2">  1       21 0.28129960E-01 0.47590100E+03</pdfrwt>
<totfact> 0.56245496E+04</totfact>
</mgrwt>
</event>
<event>
 7    0  0.4748297E-002  0.4141333E+03  0.7546771E-02  0.1038993E+00
         21   -1    0    0  502  501  0.00000000000E+00  0.00000000000E+00  0.17132407942E+03  0.17132407942E+03  0.00000000000E+00 0.  1.
         21   -1    0    0  501  502 -0.00000000000E+00 -0.00000000000E+00 -0.25026604782E+03  0.25026604782E+03  0.00000000000E+00 0.  1.
      99926    2    1    2    0    0  0.00000000000E+00  0.00000000000E+00 -0.78941968394E+02  0.42159012724E+03  0.41413331309E+03 0.  0.
      99925    2    3    3    0    0 -0.17533906746E+02  0.51625154360E+02 -0.93585029933E+02  0.28435120492E+03  0.26291606163E+03 0.  0.
         25    1    4    4    0    0 -0.23502289177E+01  0.23146247739E+02 -0.88645841722E+02  0.15507051852E+03  0.12509000000E+03 0.  0.
         25    1    4    4    0    0 -0.15183677828E+02  0.28478906620E+02 -0.49391882112E+01  0.12928068640E+03  0.12509000000E+03 0.  0.
         25    1    3    3    0    0  0.17533906746E+02 -0.51625154360E+02  0.14643061539E+02  0.13723892232E+03  0.12509000000E+03 0.  0.
<mgrwt>
<rscale>  2 0.41413331E+03</rscale>
<asrwt>0</asrwt>
<pdfrwt beam="1">  1       21 0.25194718E-01 0.41413331E+03</pdfrwt>
<pdfrwt beam="2">  1       21 0.36803830E-01 0.41413331E+03</pdfrwt>
<totfact> 0.99848823E+04</totfact>
</mgrwt>
</event>
<event>
 7    0  0.4748297E-002  0.4403015E+03  0.7546771E-02  0.1030654E+00
         21   -1    0    0  502  501  0.00000000000E+00  0.00000000000E+00  0.43052749449E+02  0.43052749449E+02  0.00000000000E+00 0.  1.
         21   -1    0    0  501  502 -0.00000000000E+00 -0.00000000000E+00 -0.11257433345E+04  0.11257433345E+04  0.00000000000E+00 0.  1.
      99926    2    1    2    0    0 -0.14210854715E-13  0.00000000000E+00 -0.10826905851E+04  0.11687960840E+04  0.44030146821E+03 0.  0.
      99925    2    3    3    0    0 -0.79107273320E+02  0.13668313494E+02 -0.53880693218E+03  0.60496834479E+03  0.26311405236E+03 0.  0.
         25    1    4    4    0    0 -0.28038418844E+02 -0.12834253891E+02 -0.18614444837E+03  0.22638050879E+03  0.12509000000E+03 0.  0.
         25    1    3    3    0    0  0.79107273320E+02 -0.13668313494E+02 -0.54388365291E+03  0.56382773919E+03  0.12509000000E+03 0.  0.
         25    1    4    4    0    0 -0.51068854476E+02  0.26502567385E+02 -0.35266248382E+03  0.37858783600E+03  0.12509000000E+03 0.  0.
<mgrwt>
<rscale>  2 0.44030147E+03</rscale>
<asrwt>0</asrwt>
<pdfrwt beam="1">  1       21 0.63312869E-02 0.44030147E+03</pdfrwt>
<pdfrwt beam="2">  1       21 0.16555048E+00 0.44030147E+03</pdfrwt>
<totfact> 0.37247708E+04</totfact>
</mgrwt>
</event>
<event>
 7    0  0.4748297E-002  0.4339468E+03  0.7546771E-02  0.1032620E+00
         21   -1    0    0  502  501  0.00000000000E+00  0.00000000000E+00  0.78262182010E+02  0.78262182010E+02  0.00000000000E+00 0.  1.
         21   -1    0    0  501  502 -0.00000000000E+00 -0.00000000000E+00 -0.60153506147E+03  0.60153506147E+03  0.00000000000E+00 0.  1.
      99926    2    1    2    0    0  0.17763568394E-14  0.14210854715E-13 -0.52327287946E+03  0.67979724348E+03  0.43394675464E+03 0.  0.
      99925    2    3    3    0    0  0.12357693007E+02  0.86717519257E+02 -0.37971778877E+03  0.47020665952E+03  0.26312746497E+03 0.  0.
         25    1    4    4    0    0 -0.39692321168E+01  0.10460734835E+02 -0.13391577823E+03  0.18359228071E+03  0.12509000000E+03 0.  0.
         25    1    4    4    0    0  0.16326925124E+02  0.76256784422E+02 -0.24580201054E+03  0.28661437881E+03  0.12509000000E+03 0.  0.
         25    1    3    3    0    0 -0.12357693007E+02 -0.86717519257E+02 -0.14355509069E+03  0.20959058396E+03  0.12509000000E+03 0.  0.
<mgrwt>
<rscale>  2 0.43394675E+03</rscale>
<asrwt>0</asrwt>
<pdfrwt beam="1">  1       21 0.11509144E-01 0.43394675E+03</pdfrwt>
<pdfrwt beam="2">  1       21 0.88461038E-01 0.43394675E+03</pdfrwt>
<totfact> 0.63978307E+04</totfact>
</mgrwt>
</event>
<event>
 7    0  0.4748297E-002  0.4513989E+03  0.7546771E-02  0.1027306E+00
         21   -1    0    0  502  501  0.00000000000E+00  0.00000000000E+00  0.18426341266E+03  0.18426341266E+03  0.00000000000E+00 0.  1.
         21   -1    0    0  501  502 -0.00000000000E+00 -0.00000000000E+00 -0.27645342993E+03  0.27645342993E+03  0.00000000000E+00 0.  1.
      99926    2    1    2    0    0 -0.14210854715E-13  0.00000000000E+00 -0.92190017274E+02  0.46071684259E+03  0.45139894745E+03 0.  0.
      99925    2    3    3    0    0 -0.98253814074E+02 -0.35577737744E+02 -0.92641310480E+02  0.29772205995E+03  0.26293806337E+03 0.  0.
         25    1    4    4    0    0 -0.76458717122E+02  0.11705877123E+02 -0.40548700138E+02  0.15256037548E+03  0.12509000000E+03 0.  0.
         25    1    3    3    0    0  0.98253814074E+02  0.35577737744E+02  0.45129320632E+00  0.16299478264E+03  0.12509000000E+03 0.  0.
         25    1    4    4    0    0 -0.21795096952E+02 -0.47283614868E+02 -0.52092610343E+02  0.14516168447E+03  0.12509000000E+03 0.  0.
<mgrwt>
<rscale>  2 0.45139895E+03</rscale>
<asrwt>0</asrwt>
<pdfrwt beam="1">  1       21 0.27097561E-01 0.45139895E+03</pdfrwt>
<pdfrwt beam="2">  1       21 0.40654916E-01 0.45139895E+03</pdfrwt>
<totfact> 0.70114682E+04</totfact>
</mgrwt>
</event>
<event>
 7    0  0.4748297E-002  0.4524476E+03  0.7546771E-02  0.1026995E+00
         21   -1    0    0  502  501  0.00000000000E+00  0.00000000000E+00  0.86893609931E+02  0.86893609931E+02  0.00000000000E+00 0.  1.
         21   -1    0    0  501  502 -0.00000000000E+00 -0.00000000000E+00 -0.58896408899E+03  0.58896408899E+03  0.00000000000E+00 0.  1.
      99926    2    1    2    0    0  0.00000000000E+00  0.00000000000E+00 -0.50207047906E+03  0.67585769892E+03  0.45244763592E+03 0.  0.
      99925    2    3    3    0    0 -0.59889720836E+02  0.44898089090E+02 -0.43869809460E+03  0.51690429607E+03  0.26292853787E+03 0.  0.
         25    1    4    4    0    0 -0.67813450580E+02  0.21045272556E+02 -0.26303753609E+03  0.29979629929E+03  0.12509000000E+03 0.  0.
         25    1    4    4    0    0  0.79237297448E+01  0.23852816534E+02 -0.17566055851E+03  0.21710799678E+03  0.12509000000E+03 0.  0.
         25    1    3    3    0    0  0.59889720836E+02 -0.44898089090E+02 -0.63372384460E+02  0.15895340285E+03  0.12509000000E+03 0.  0.
<mgrwt>
<rscale>  2 0.45244764E+03</rscale>
<asrwt>0</asrwt>
<pdfrwt beam="1">  1       21 0.12778473E-01 0.45244764E+03</pdfrwt>
<pdfrwt beam="2">  1       21 0.86612362E-01 0.45244764E+03</pdfrwt>
<totfact> 0.55338004E+04</totfact>
</mgrwt>
</event>
<event>
 7    0  0.4748297E-002  0.4624105E+03  0.7546771E-02  0.1024084E+00
         21   -1    0    0  502  501  0.00000000000E+00  0.00000000000E+00  0.27646357146E+03  0.27646357146E+03  0.00000000000E+00 0. -1.
         21   -1    0    0  501  502 -0.00000000000E+00 -0.00000000000E+00 -0.19335593727E+03  0.19335593727E+03  0.00000000000E+00 0. -1.
      99926    2    1    2    0    0 -0.17208456882E-14  0.00000000000E+00  0.83107634182E+02  0.46981950873E+03  0.46241052316E+03 0.  0.
      99925    2    3    3    0    0  0.41621428482E+00  0.98366319279E+02 -0.18058834932E+02  0.28125050657E+03  0.26286806562E+03 0.  0.
         25    1    4    4    0    0 -0.22554731644E+02  0.13753777527E+02 -0.52174094793E+01  0.12795550702E+03  0.12509000000E+03 0.  0.
         25    1    3    3    0    0 -0.41621428482E+00 -0.98366319279E+02  0.10116646911E+03  0.18856900216E+03  0.12509000000E+03 0.  0.
         25    1    4    4    0    0  0.22970945929E+02  0.84612541752E+02 -0.12841425453E+02  0.15329499955E+03  0.12509000000E+03 0.  0.
<mgrwt>
<rscale>  2 0.46241052E+03</rscale>
<asrwt>0</asrwt>
<pdfrwt beam="1">  1       21 0.40656408E-01 0.46241052E+03</pdfrwt>
<pdfrwt beam="2">  1       21 0.28434696E-01 0.46241052E+03</pdfrwt>
<totfact> 0.63622545E+04</totfact>
</mgrwt>
</event>
<event>
 7    0  0.4748297E-002  0.4518509E+03  0.7546771E-02  0.1027172E+00
         21   -1    0    0  502  501  0.00000000000E+00  0.00000000000E+00  0.36145916329E+03  0.36145916329E+03  0.00000000000E+00 0. -1.
         21   -1    0    0  501  502 -0.00000000000E+00 -0.00000000000E+00 -0.14121180732E+03  0.14121180732E+03  0.00000000000E+00 0. -1.
      99926    2    1    2    0    0  0.88817841970E-15 -0.14210854715E-13  0.22024735597E+03  0.50267097061E+03  0.45185086797E+03 0.  0.
      99925    2    3    3    0    0 -0.79881342150E+01  0.86976416785E+02  0.65104883652E+02  0.28508098421E+03  0.26344603682E+03 0.  0.
         25    1    3    3    0    0  0.79881342150E+01 -0.86976416785E+02  0.15514247232E+03  0.21758998640E+03  0.12509000000E+03 0.  0.
         25    1    4    4    0    0  0.13387804121E+02  0.71697385308E+02  0.61196879168E+02  0.15720150915E+03  0.12509000000E+03 0.  0.
         25    1    4    4    0    0 -0.21375938336E+02  0.15279031477E+02  0.39080044840E+01  0.12787947506E+03  0.12509000000E+03 0.  0.
<mgrwt>
<rscale>  2 0.45185087E+03</rscale>
<asrwt>0</asrwt>
<pdfrwt beam="1">  1       21 0.53155759E-01 0.45185087E+03</pdfrwt>
<pdfrwt beam="2">  1       21 0.20766442E-01 0.45185087E+03</pdfrwt>
<totfact> 0.66736011E+04</totfact>
</mgrwt>
</event>
<event>
 7    0  0.4748297E-002  0.4556377E+03  0.7546771E-02  0.1026054E+00
         21   -1    0    0  502  501  0.00000000000E+00  0.00000000000E+00  0.78837291360E+02  0.78837291360E+02  0.00000000000E+00 0. -1.
         21   -1    0    0  501  502 -0.00000000000E+00 -0.00000000000E+00 -0.65833597097E+03  0.65833597097E+03  0.00000000000E+00 0. -1.
      99926    2    1    2    0    0  0.00000000000E+00  0.00000000000E+00 -0.57949867961E+03  0.73717326233E+03  0.45563768394E+03 0.  0.
      99925    2    3    3    0    0 -0.99180328388E+02  0.51588306873E+02 -0.32993760571E+03  0.43646355405E+03  0.26295155335E+03 0.  0.
         25    1    4    4    0    0 -0.21077468421E+02  0.42073402692E+01 -0.18485406398E+03  0.22423312524E+03  0.12509000000E+03 0.  0.
         25    1    4    4    0    0 -0.78102859967E+02  0.47380966604E+02 -0.14508354173E+03  0.21223042881E+03  0.12509000000E+03 0.  0.
         25    1    3    3    0    0  0.99180328388E+02 -0.51588306873E+02 -0.24956107390E+03  0.30070970827E+03  0.12509000000E+03 0.  0.
<mgrwt>
<rscale>  2 0.45563768E+03</rscale>
<asrwt>0</asrwt>
<pdfrwt beam="1">  1       21 0.11593719E-01 0.45563768E+03</pdfrwt>
<pdfrwt beam="2">  1       21 0.96814114E-01 0.45563768E+03</pdfrwt>
<totfact> 0.50676194E+04</totfact>
</mgrwt>
</event>
<event>
 7    0  0.4748297E-002  0.4565755E+03  0.7546771E-02  0.1025779E+00
         21   -1    0    0  502  501  0.00000000000E+00  0.00000000000E+00  0.54397449977E+03  0.54397449977E+03  0.00000000000E+00 0.  1.
         21   -1    0    0  501  502 -0.00000000000E+00 -0.00000000000E+00 -0.95804680784E+02  0.95804680784E+02  0.00000000000E+00 0.  1.
      99926    2    1    2    0    0  0.00000000000E+00 -0.71054273576E-14  0.44816981898E+03  0.63977918055E+03  0.45657552849E+03 0.  0.
      99925    2    3    3    0    0  0.10474676098E+03  0.46613411929E+02  0.28053831573E+03  0.40125764465E+03  0.26298527846E+03 0.  0.
         25    1    3    3    0    0 -0.10474676098E+03 -0.46613411929E+02  0.16763150325E+03  0.23852153590E+03  0.12509000000E+03 0.  0.
         25    1    4    4    0    0  0.78095452528E+02  0.57833396022E+02  0.16019507137E+03  0.22528553081E+03  0.12509000000E+03 0.  0.
         25    1    4    4    0    0  0.26651308452E+02 -0.11219984094E+02  0.12034324436E+03  0.17597211384E+03  0.12509000000E+03 0.  0.
<mgrwt>
<rscale>  2 0.45657553E+03</rscale>
<asrwt>0</asrwt>
<pdfrwt beam="1">  1       21 0.79996249E-01 0.45657553E+03</pdfrwt>
<pdfrwt beam="2">  1       21 0.14088924E-01 0.45657553E+03</pdfrwt>
<totfact> 0.55599649E+04</totfact>
</mgrwt>
</event>
<event>
 7    0  0.4748297E-002  0.4555855E+03  0.7546771E-02  0.1026069E+00
         21   -1    0    0  502  501  0.00000000000E+00  0.00000000000E+00  0.21883201633E+03  0.21883201633E+03  0.00000000000E+00 0. -1.
         21   -1    0    0  501  502 -0.00000000000E+00 -0.00000000000E+00 -0.23712035725E+03  0.23712035725E+03  0.00000000000E+00 0. -1.
      99926    2    1    2    0    0  0.00000000000E+00  0.00000000000E+00 -0.18288340925E+02  0.45595237358E+03  0.45558545143E+03 0.  0.
      99925    2    3    3    0    0 -0.91277412041E+02 -0.63438712631E+02  0.12378322786E+02  0.28582304462E+03  0.26303146913E+03 0.  0.
         25    1    4    4    0    0 -0.54758909461E+02  0.82455422893E+01  0.39112913062E+01  0.13685515494E+03  0.12509000000E+03 0.  0.
         25    1    3    3    0    0  0.91277412041E+02  0.63438712631E+02 -0.30666663711E+02  0.17012932896E+03  0.12509000000E+03 0.  0.
         25    1    4    4    0    0 -0.36518502580E+02 -0.71684254920E+02  0.84670314796E+01  0.14896788968E+03  0.12509000000E+03 0.  0.
<mgrwt>
<rscale>  2 0.45558545E+03</rscale>
<asrwt>0</asrwt>
<pdfrwt beam="1">  1       21 0.32181179E-01 0.45558545E+03</pdfrwt>
<pdfrwt beam="2">  1       21 0.34870641E-01 0.45558545E+03</pdfrwt>
<totfact> 0.68157161E+04</totfact>
</mgrwt>
</event>
<event>
 7    0  0.4748297E-002  0.4591010E+03  0.7546771E-02  0.1025042E+00
         21   -1    0    0  502  501  0.00000000000E+00  0.00000000000E+00  0.29669905860E+03  0.29669905860E+03  0.00000000000E+00 0.  1.
         21   -1    0    0  501  502 -0.00000000000E+00 -0.00000000000E+00 -0.17759893147E+03  0.17759893147E+03  0.00000000000E+00 0.  1.
      99926    2    1    2    0    0  0.00000000000E+00  0.00000000000E+00  0.11910012713E+03  0.47429799007E+03  0.45910101622E+03 0.  0.
      99925    2    3    3    0    0 -0.96632498026E+02 -0.58652593319E+02  0.10485752814E+03  0.30509891766E+03  0.26327225826E+03 0.  0.
         25    1    3    3    0    0  0.96632498026E+02  0.58652593319E+02  0.14242598995E+02  0.16919907241E+03  0.12509000000E+03 0.  0.
         25    1    4    4    0    0 -0.58066678224E+02 -0.37579396022E+02  0.96068236320E+02  0.17222242669E+03  0.12509000000E+03 0.  0.
         25    1    4    4    0    0 -0.38565819802E+02 -0.21073197298E+02  0.87892918178E+01  0.13287649097E+03  0.12509000000E+03 0.  0.
<mgrwt>
<rscale>  2 0.45910102E+03</rscale>
<asrwt>0</asrwt>
<pdfrwt beam="1">  1       21 0.43632215E-01 0.45910102E+03</pdfrwt>
<pdfrwt beam="2">  1       21 0.26117490E-01 0.45910102E+03</pdfrwt>
<totfact> 0.64977465E+04</totfact>
</mgrwt>
</event>
<event>
 7    0  0.4748297E-002  0.4479622E+03  0.7546771E-02  0.1028331E+00
         21   -1    0    0  502  501  0.00000000000E+00  0.00000000000E+00  0.50710631041E+02  0.50710631041E+02  0.00000000000E+00 0. -1.
         21   -1    0    0  501  502 -0.00000000000E+00 -0.00000000000E+00 -0.98929008391E+03  0.98929008391E+03  0.00000000000E+00 0. -1.
      99926    2    1    2    0    0  0.00000000000E+00  0.71054273576E-14 -0.93857945287E+03  0.10400007150E+04  0.44796216107E+03 0.  0.
      99925    2    3    3    0    0 -0.13790886298E+02  0.62577760996E+02 -0.39723092365E+03  0.48070481572E+03  0.26301815228E+03 0.  0.
         25    1    3    3    0    0  0.13790886298E+02 -0.62577760996E+02 -0.54134852922E+03  0.55929589924E+03  0.12509000000E+03 0.  0.
         25    1    4    4    0    0 -0.19072545529E+02  0.71218742566E+02 -0.21523467643E+03  0.25963309752E+03  0.12509000000E+03 0.  0.
         25    1    4    4    0    0  0.52816592314E+01 -0.86409815706E+01 -0.18199624722E+03  0.22107171820E+03  0.12509000000E+03 0.  0.
<mgrwt>
<rscale>  2 0.44796216E+03</rscale>
<asrwt>0</asrwt>
<pdfrwt beam="1">  1       21 0.74574467E-02 0.44796216E+03</pdfrwt>
<pdfrwt beam="2">  1       21 0.14548382E+00 0.44796216E+03</pdfrwt>
<totfact> 0.39787762E+04</totfact>
</mgrwt>
</event>
<event>
 7    0  0.4748297E-002  0.4506618E+03  0.7546771E-02  0.1027525E+00
         21   -1    0    0  502  501  0.00000000000E+00  0.00000000000E+00  0.41743083957E+03  0.41743083957E+03  0.00000000000E+00 0.  1.
         21   -1    0    0  501  502 -0.00000000000E+00 -0.00000000000E+00 -0.12163453994E+03  0.12163453994E+03  0.00000000000E+00 0.  1.
      99926    2    1    2    0    0  0.35527136788E-14 -0.14210854715E-13  0.29579629963E+03  0.53906537951E+03  0.45066177174E+03 0.  0.
      99925    2    3    3    0    0  0.25182195822E+02 -0.80616362029E+02  0.10468737461E+03  0.29554275194E+03  0.26315951628E+03 0.  0.
         25    1    4    4    0    0 -0.20121151697E+02 -0.24418515061E+02  0.70876416244E+02  0.14721446635E+03  0.12509000000E+03 0.  0.
         25    1    4    4    0    0  0.45303347519E+02 -0.56197846968E+02  0.33810958362E+02  0.14832828559E+03  0.12509000000E+03 0.  0.
         25    1    3    3    0    0 -0.25182195822E+02  0.80616362029E+02  0.19110892503E+03  0.24352262757E+03  0.12509000000E+03 0.  0.
<mgrwt>
<rscale>  2 0.45066177E+03</rscale>
<asrwt>0</asrwt>
<pdfrwt beam="1">  1       21 0.61386888E-01 0.45066177E+03</pdfrwt>
<pdfrwt beam="2">  1       21 0.17887433E-01 0.45066177E+03</pdfrwt>
<totfact> 0.64790887E+04</totfact>
</mgrwt>
</event>
<event>
 7    0  0.4748297E-002  0.4525363E+03  0.7546771E-02  0.1026968E+00
         21   -1    0    0  502  501  0.00000000000E+00  0.00000000000E+00  0.24296385121E+03  0.24296385121E+03  0.00000000000E+00 0.  1.
         21   -1    0    0  501  502 -0.00000000000E+00 -0.00000000000E+00 -0.21071975145E+03  0.21071975145E+03  0.00000000000E+00 0.  1.
      99926    2    1    2    0    0 -0.17763568394E-14 -0.35527136788E-14  0.32244099762E+02  0.45368360265E+03  0.45253632931E+03 0.  0.
      99925    2    3    3    0    0 -0.12746540887E+02 -0.20893037524E+02 -0.88073028318E+02  0.27840464576E+03  0.26297014116E+03 0.  0.
         25    1    4    4    0    0 -0.16354014046E+02 -0.48267269178E+02 -0.56879058860E+02  0.14656028959E+03  0.12509000000E+03 0.  0.
         25    1    3    3    0    0  0.12746540887E+02  0.20893037524E+02  0.12031712808E+03  0.17527895690E+03  0.12509000000E+03 0.  0.
         25    1    4    4    0    0  0.36074731585E+01  0.27374231654E+02 -0.31193969458E+02  0.13184435616E+03  0.12509000000E+03 0.  0.
<mgrwt>
<rscale>  2 0.45253633E+03</rscale>
<asrwt>0</asrwt>
<pdfrwt beam="1">  1       21 0.35729978E-01 0.45253633E+03</pdfrwt>
<pdfrwt beam="2">  1       21 0.30988199E-01 0.45253633E+03</pdfrwt>
<totfact> 0.70008445E+04</totfact>
</mgrwt>
</event>
<event>
 7    0  0.4748297E-002  0.4514347E+03  0.7546771E-02  0.1027295E+00
         21   -1    0    0  502  501  0.00000000000E+00  0.00000000000E+00  0.10336567960E+04  0.10336567960E+04  0.00000000000E+00 0.  1.
         21   -1    0    0  501  502 -0.00000000000E+00 -0.00000000000E+00 -0.49289404582E+02  0.49289404582E+02  0.00000000000E+00 0.  1.
      99926    2    1    2    0    0 -0.71054273576E-14  0.14210854715E-13  0.98436739144E+03  0.10829462006E+04  0.45143472626E+03 0.  0.
      99925    2    3    3    0    0 -0.59349669026E+02 -0.66449475039E+02  0.77539117097E+03  0.82360764819E+03  0.26298322036E+03 0.  0.
         25    1    3    3    0    0  0.59349669026E+02  0.66449475039E+02  0.20897622047E+03  0.25933855242E+03  0.12509000000E+03 0.  0.
         25    1    4    4    0    0 -0.49247075644E+02 -0.50036326672E+02  0.31476432903E+03  0.34590894665E+03  0.12509000000E+03 0.  0.
         25    1    4    4    0    0 -0.10102593382E+02 -0.16413148367E+02  0.46062684194E+03  0.47769870154E+03  0.12509000000E+03 0.  0.
<mgrwt>
<rscale>  2 0.45143473E+03</rscale>
<asrwt>0</asrwt>
<pdfrwt beam="1">  1       21 0.15200834E+00 0.45143473E+03</pdfrwt>
<pdfrwt beam="2">  1       21 0.72484425E-02 0.45143473E+03</pdfrwt>
<totfact> 0.37112921E+04</totfact>
</mgrwt>
</event>
<event>
 7    0  0.4748297E-002  0.4503278E+03  0.7546771E-02  0.1027624E+00
         21   -1    0    0  502  501  0.00000000000E+00  0.00000000000E+00  0.25100965356E+03  0.25100965356E+03  0.00000000000E+00 0.  1.
         21   -1    0    0  501  502 -0.00000000000E+00 -0.00000000000E+00 -0.20197941629E+03  0.20197941629E+03  0.00000000000E+00 0.  1.
      99926    2    1    2    0    0  0.71054273576E-14 -0.35527136788E-14  0.49030237265E+02  0.45298906985E+03  0.45032780642E+03 0.  0.
      99925    2    3    3    0    0  0.34762021609E+02  0.13331579127E+02  0.13369843320E+03  0.29741805503E+03  0.26305151447E+03 0.  0.
         25    1    4    4    0    0  0.30548794158E+02  0.42321475868E+02  0.85188652503E+02  0.16009044556E+03  0.12509000000E+03 0.  0.
         25    1    4    4    0    0  0.42132274515E+01 -0.28989896740E+02  0.48509780700E+02  0.13732760947E+03  0.12509000000E+03 0.  0.
         25    1    3    3    0    0 -0.34762021609E+02 -0.13331579127E+02 -0.84668195937E+02  0.15557101482E+03  0.12509000000E+03 0.  0.
<mgrwt>
<rscale>  2 0.45032781E+03</rscale>
<asrwt>0</asrwt>
<pdfrwt beam="1">  1       21 0.36913184E-01 0.45032781E+03</pdfrwt>
<pdfrwt beam="2">  1       21 0.29702855E-01 0.45032781E+03</pdfrwt>
<totfact> 0.71314875E+04</totfact>
</mgrwt>
</event>
<event>
 7    0  0.4748297E-002  0.4397093E+03  0.7546771E-02  0.1030836E+00
         21   -1    0    0  502  501  0.00000000000E+00  0.00000000000E+00  0.25333933313E+03  0.25333933313E+03  0.00000000000E+00 0.  1.
         21   -1    0    0  501  502 -0.00000000000E+00 -0.00000000000E+00 -0.19079571329E+03  0.19079571329E+03  0.00000000000E+00 0.  1.
      99926    2    1    2    0    0  0.00000000000E+00 -0.71054273576E-14  0.62543619841E+02  0.44413504641E+03  0.43970926198E+03 0.  0.
      99925    2    3    3    0    0 -0.69633488777E+02 -0.48891777980E+02  0.89362316099E+02  0.29049267178E+03  0.26298505681E+03 0.  0.
         25    1    4    4    0    0 -0.71765198927E+02 -0.44038975555E+02  0.40885247088E+02  0.15623311645E+03  0.12509000000E+03 0.  0.
         25    1    3    3    0    0  0.69633488777E+02  0.48891777980E+02 -0.26818696258E+02  0.15364237463E+03  0.12509000000E+03 0.  0.
         25    1    4    4    0    0  0.21317101495E+01 -0.48528024257E+01  0.48477069011E+02  0.13425955534E+03  0.12509000000E+03 0.  0.
<mgrwt>
<rscale>  2 0.43970926E+03</rscale>
<asrwt>0</asrwt>
<pdfrwt beam="1">  1       21 0.37255784E-01 0.43970926E+03</pdfrwt>
<pdfrwt beam="2">  1       21 0.28058193E-01 0.43970926E+03</pdfrwt>
<totfact> 0.78496492E+04</totfact>
</mgrwt>
</event>
<event>
 7    0  0.4748297E-002  0.4284131E+03  0.7546771E-02  0.1034362E+00
         21   -1    0    0  502  501  0.00000000000E+00  0.00000000000E+00  0.45652189046E+02  0.45652189046E+02  0.00000000000E+00 0. -1.
         21   -1    0    0  501  502 -0.00000000000E+00 -0.00000000000E+00 -0.10050874096E+04  0.10050874096E+04  0.00000000000E+00 0. -1.
      99926    2    1    2    0    0  0.00000000000E+00 -0.17763568394E-14 -0.95943522056E+03  0.10507395987E+04  0.42841307371E+03 0.  0.
      99925    2    3    3    0    0 -0.40864616284E+02  0.42685384805E+01 -0.80433255958E+03  0.84728817736E+03  0.26316962552E+03 0.  0.
         25    1    3    3    0    0  0.40864616284E+02 -0.42685384805E+01 -0.15510266098E+03  0.20345142130E+03  0.12509000000E+03 0.  0.
         25    1    4    4    0    0 -0.55719479256E+02  0.23431283037E+02 -0.42334679215E+03  0.44555998465E+03  0.12509000000E+03 0.  0.
         25    1    4    4    0    0  0.14854862972E+02 -0.19162744557E+02 -0.38098576743E+03  0.40172819271E+03  0.12509000000E+03 0.  0.
<mgrwt>
<rscale>  2 0.42841307E+03</rscale>
<asrwt>0</asrwt>
<pdfrwt beam="1">  1       21 0.67135576E-02 0.42841307E+03</pdfrwt>
<pdfrwt beam="2">  1       21 0.14780696E+00 0.42841307E+03</pdfrwt>
<totfact> 0.46098912E+04</totfact>
</mgrwt>
</event>
<event>
 7    0  0.4748297E-002  0.4595432E+03  0.7546771E-02  0.1024914E+00
         21   -1    0    0  502  501  0.00000000000E+00  0.00000000000E+00  0.25292203473E+04  0.25292203473E+04  0.00000000000E+00 0. -1.
         21   -1    0    0  501  502 -0.00000000000E+00 -0.00000000000E+00 -0.20874017614E+02  0.20874017614E+02  0.00000000000E+00 0. -1.
      99926    2    1    2    0    0  0.00000000000E+00  0.00000000000E+00  0.25083463297E+04  0.25500943649E+04  0.45954320833E+03 0.  0.
      99925    2    3    3    0    0 -0.10823166863E+02 -0.11693523002E+03  0.15797485305E+04  0.16057785440E+04  0.26292265717E+03 0.  0.
         25    1    4    4    0    0  0.29977261285E+02 -0.78734159304E+02  0.80337053799E+03  0.81740408210E+03  0.12509000000E+03 0.  0.
         25    1    3    3    0    0  0.10823166863E+02  0.11693523002E+03  0.92859779915E+03  0.94431582093E+03  0.12509000000E+03 0.  0.
         25    1    4    4    0    0 -0.40800428147E+02 -0.38201070711E+02  0.77637799256E+03  0.78837446189E+03  0.12509000000E+03 0.  0.
<mgrwt>
<rscale>  2 0.45954321E+03</rscale>
<asrwt>0</asrwt>
<pdfrwt beam="1">  1       21 0.37194396E+00 0.45954321E+03</pdfrwt>
<pdfrwt beam="2">  1       21 0.30697102E-02 0.45954321E+03</pdfrwt>
<totfact> 0.64035571E+03</totfact>
</mgrwt>
</event>
<event>
 7    0  0.4748297E-002  0.4545943E+03  0.7546771E-02  0.1026361E+00
         21   -1    0    0  502  501  0.00000000000E+00  0.00000000000E+00  0.61472487811E+03  0.61472487811E+03  0.00000000000E+00 0. -1.
         21   -1    0    0  501  502 -0.00000000000E+00 -0.00000000000E+00 -0.84044077715E+02  0.84044077715E+02  0.00000000000E+00 0. -1.
      99926    2    1    2    0    0  0.00000000000E+00  0.00000000000E+00  0.53068080040E+03  0.69876895583E+03  0.45459426054E+03 0.  0.
      99925    2    3    3    0    0  0.10261494053E+03 -0.88238414097E+01  0.40474696334E+03  0.49355071684E+03  0.26299148192E+03 0.  0.
         25    1    4    4    0    0  0.31403716514E+02 -0.21528877829E+02  0.13753651008E+03  0.18977219422E+03  0.12509000000E+03 0.  0.
         25    1    3    3    0    0 -0.10261494053E+03  0.88238414097E+01  0.12593383706E+03  0.20521823899E+03  0.12509000000E+03 0.  0.
         25    1    4    4    0    0  0.71211224019E+02  0.12705036420E+02  0.26721045326E+03  0.30377852262E+03  0.12509000000E+03 0.  0.
<mgrwt>
<rscale>  2 0.45459426E+03</rscale>
<asrwt>0</asrwt>
<pdfrwt beam="1">  1       21 0.90400715E-01 0.45459426E+03</pdfrwt>
<pdfrwt beam="2">  1       21 0.12359424E-01 0.45459426E+03</pdfrwt>
<totfact> 0.53139331E+04</totfact>
</mgrwt>
</event>
<event>
 7    0  0.4748297E-002  0.4559722E+03  0.7546771E-02  0.1025956E+00
         21   -1    0    0  502  501  0.00000000000E+00  0.00000000000E+00  0.10583884169E+03  0.10583884169E+03  0.00000000000E+00 0. -1.
         21   -1    0    0  501  502 -0.00000000000E+00 -0.00000000000E+00 -0.49110186316E+03  0.49110186316E+03  0.00000000000E+00 0. -1.
      99926    2    1    2    0    0  0.00000000000E+00  0.00000000000E+00 -0.38526302147E+03  0.59694070485E+03  0.45597215858E+03 0.  0.
      99925    2    3    3    0    0  0.72893032375E+01  0.65176399963E+02 -0.12042035581E+03  0.29679033802E+03  0.26321539772E+03 0.  0.
         25    1    3    3    0    0 -0.72893032375E+01 -0.65176399963E+02 -0.26484266566E+03  0.30015036683E+03  0.12509000000E+03 0.  0.
         25    1    4    4    0    0  0.38888598075E+02  0.15320647430E+02 -0.71873604900E+02  0.15020109347E+03  0.12509000000E+03 0.  0.
         25    1    4    4    0    0 -0.31599294837E+02  0.49855752533E+02 -0.48546750911E+02  0.14658924455E+03  0.12509000000E+03 0.  0.
<mgrwt>
<rscale>  2 0.45597216E+03</rscale>
<asrwt>0</asrwt>
<pdfrwt beam="1">  1       21 0.15564535E-01 0.45597216E+03</pdfrwt>
<pdfrwt beam="2">  1       21 0.72220864E-01 0.45597216E+03</pdfrwt>
<totfact> 0.58416916E+04</totfact>
</mgrwt>
</event>
<event>
 7    0  0.4748297E-002  0.4531452E+03  0.7546771E-02  0.1026788E+00
         21   -1    0    0  502  501  0.00000000000E+00  0.00000000000E+00  0.39312509373E+03  0.39312509373E+03  0.00000000000E+00 0.  1.
         21   -1    0    0  501  502 -0.00000000000E+00 -0.00000000000E+00 -0.13058223715E+03  0.13058223715E+03  0.00000000000E+00 0.  1.
      99926    2    1    2    0    0 -0.14210854715E-13  0.00000000000E+00  0.26254285658E+03  0.52370733088E+03  0.45314524921E+03 0.  0.
      99925    2    3    3    0    0 -0.88909971290E+02 -0.62617392269E+02  0.13717584632E+03  0.31588453095E+03  0.26294467721E+03 0.  0.
         25    1    4    4    0    0 -0.21500750529E+02 -0.63926746921E+02  0.76171637004E+02  0.16124062028E+03  0.12509000000E+03 0.  0.
         25    1    4    4    0    0 -0.67409220761E+02  0.13093546523E+01  0.61004209320E+02  0.15464391067E+03  0.12509000000E+03 0.  0.
         25    1    3    3    0    0  0.88909971290E+02  0.62617392269E+02  0.12536701026E+03  0.20782279993E+03  0.12509000000E+03 0.  0.
<mgrwt>
<rscale>  2 0.45314525E+03</rscale>
<asrwt>0</asrwt>
<pdfrwt beam="1">  1       21 0.57812514E-01 0.45314525E+03</pdfrwt>
<pdfrwt beam="2">  1       21 0.19203270E-01 0.45314525E+03</pdfrwt>
<totfact> 0.64578800E+04</totfact>
</mgrwt>
</event>
<event>
 7    0  0.4748297E-002  0.4536970E+03  0.7546771E-02  0.1026625E+00
         21   -1    0    0  502  501  0.00000000000E+00  0.00000000000E+00  0.43428719759E+03  0.43428719759E+03  0.00000000000E+00 0. -1.
         21   -1    0    0  501  502 -0.00000000000E+00 -0.00000000000E+00 -0.11849356614E+03  0.11849356614E+03  0.00000000000E+00 0. -1.
      99926    2    1    2    0    0  0.14210854715E-13  0.00000000000E+00  0.31579363145E+03  0.55278076373E+03  0.45369698598E+03 0.  0.
      99925    2    3    3    0    0  0.92884693578E+02 -0.24583488268E+02  0.12844742144E+03  0.30787665045E+03  0.26278770447E+03 0.  0.
         25    1    3    3    0    0 -0.92884693578E+02  0.24583488268E+02  0.18734621001E+03  0.24490411328E+03  0.12509000000E+03 0.  0.
         25    1    4    4    0    0  0.79160447893E+02 -0.35477615006E+02  0.84707078473E+02  0.17420629989E+03  0.12509000000E+03 0.  0.
         25    1    4    4    0    0  0.13724245685E+02  0.10894126738E+02  0.43740342965E+02  0.13367035056E+03  0.12509000000E+03 0.  0.
<mgrwt>
<rscale>  2 0.45369699E+03</rscale>
<asrwt>0</asrwt>
<pdfrwt beam="1">  1       21 0.63865764E-01 0.45369699E+03</pdfrwt>
<pdfrwt beam="2">  1       21 0.17425525E-01 0.45369699E+03</pdfrwt>
<totfact> 0.62323111E+04</totfact>
</mgrwt>
</event>
<event>
 7    0  0.4748297E-002  0.4532753E+03  0.7546771E-02  0.1026750E+00
         21   -1    0    0  502  501  0.00000000000E+00  0.00000000000E+00  0.32286446424E+02  0.32286446424E+02  0.00000000000E+00 0.  1.
         21   -1    0    0  501  502 -0.00000000000E+00 -0.00000000000E+00 -0.15909032680E+04  0.15909032680E+04  0.00000000000E+00 0.  1.
      99926    2    1    2    0    0  0.00000000000E+00  0.00000000000E+00 -0.15586168215E+04  0.16231897144E+04  0.45327525027E+03 0.  0.
      99925    2    3    3    0    0  0.10644886577E+03 -0.62277199761E+01 -0.10982681330E+04  0.11343762851E+04  0.26314733268E+03 0.  0.
         25    1    3    3    0    0 -0.10644886577E+03  0.62277199761E+01 -0.46034868851E+03  0.48881342926E+03  0.12509000000E+03 0.  0.
         25    1    4    4    0    0  0.55902611000E+02 -0.83137283868E+01 -0.39210014272E+03  0.41543260587E+03  0.12509000000E+03 0.  0.
         25    1    4    4    0    0  0.50546254766E+02  0.20860084107E+01 -0.70616799031E+03  0.71894367926E+03  0.12509000000E+03 0.  0.
<mgrwt>
<rscale>  2 0.45327525E+03</rscale>
<asrwt>0</asrwt>
<pdfrwt beam="1">  1       21 0.47480062E-02 0.45327525E+03</pdfrwt>
<pdfrwt beam="2">  1       21 0.23395639E+00 0.45327525E+03</pdfrwt>
<totfact> 0.21193182E+04</totfact>
</mgrwt>
</event>
<event>
 7    0  0.4748297E-002  0.4697912E+03  0.7546771E-02  0.1021979E+00
         21   -1    0    0  502  501  0.00000000000E+00  0.00000000000E+00  0.39726389010E+03  0.39726389010E+03  0.00000000000E+00 0. -1.
         21   -1    0    0  501  502 -0.00000000000E+00 -0.00000000000E+00 -0.13888990074E+03  0.13888990074E+03  0.00000000000E+00 0. -1.
      99926    2    1    2    0    0 -0.71054273576E-14  0.00000000000E+00  0.25837398935E+03  0.53615379084E+03  0.46979119730E+03 0.  0.
      99925    2    3    3    0    0  0.52869995978E+02  0.95613733866E+02  0.23342379264E+03  0.36820367029E+03  0.26296397712E+03 0.  0.
         25    1    4    4    0    0  0.60671836197E+01  0.26273420436E+02  0.69267910743E+02  0.14550826402E+03  0.12509000000E+03 0.  0.
         25    1    4    4    0    0  0.46802812359E+02  0.69340313430E+02  0.16415588190E+03  0.22269540627E+03  0.12509000000E+03 0.  0.
         25    1    3    3    0    0 -0.52869995978E+02 -0.95613733866E+02  0.24950196708E+02  0.16795012055E+03  0.12509000000E+03 0.  0.
<mgrwt>
<rscale>  2 0.46979120E+03</rscale>
<asrwt>0</asrwt>
<pdfrwt beam="1">  1       21 0.58421160E-01 0.46979120E+03</pdfrwt>
<pdfrwt beam="2">  1       21 0.20424986E-01 0.46979120E+03</pdfrwt>
<totfact> 0.55939835E+04</totfact>
</mgrwt>
</event>
<event>
 7    0  0.4748297E-002  0.4596130E+03  0.7546771E-02  0.1024894E+00
         21   -1    0    0  502  501  0.00000000000E+00  0.00000000000E+00  0.73720671036E+03  0.73720671036E+03  0.00000000000E+00 0.  1.
         21   -1    0    0  501  502 -0.00000000000E+00 -0.00000000000E+00 -0.71636658246E+02  0.71636658246E+02  0.00000000000E+00 0.  1.
      99926    2    1    2    0    0  0.00000000000E+00  0.00000000000E+00  0.66557005211E+03  0.80884336860E+03  0.45961299010E+03 0.  0.
      99925    2    3    3    0    0  0.96009192073E+02  0.67084433023E+02  0.43345201059E+03  0.52032234785E+03  0.26293842259E+03 0.  0.
         25    1    3    3    0    0 -0.96009192073E+02 -0.67084433023E+02  0.23211804152E+03  0.28852102075E+03  0.12509000000E+03 0.  0.
         25    1    4    4    0    0  0.68802395831E+02  0.67302499428E+01  0.17792484263E+03  0.22821880654E+03  0.12509000000E+03 0.  0.
         25    1    4    4    0    0  0.27206796242E+02  0.60354183080E+02  0.25552716797E+03  0.29210354131E+03  0.12509000000E+03 0.  0.
<mgrwt>
<rscale>  2 0.45961299E+03</rscale>
<asrwt>0</asrwt>
<pdfrwt beam="1">  1       21 0.10841275E+00 0.45961299E+03</pdfrwt>
<pdfrwt beam="2">  1       21 0.10534803E-01 0.45961299E+03</pdfrwt>
<totfact> 0.45664435E+04</totfact>
</mgrwt>
</event>
<event>
 7    0  0.4748297E-002  0.4502113E+03  0.7546771E-02  0.1027659E+00
         21   -1    0    0  502  501  0.00000000000E+00  0.00000000000E+00  0.37668278210E+03  0.37668278210E+03  0.00000000000E+00 0. -1.
         21   -1    0    0  501  502 -0.00000000000E+00 -0.00000000000E+00 -0.13452314247E+03  0.13452314247E+03  0.00000000000E+00 0. -1.
      99926    2    1    2    0    0  0.00000000000E+00  0.00000000000E+00  0.24215963963E+03  0.51120592457E+03  0.45021129067E+03 0.  0.
      99925    2    3    3    0    0  0.57010379655E+02  0.68960731512E+02  0.22308272084E+03  0.35623107884E+03  0.26292378233E+03 0.  0.
         25    1    4    4    0    0  0.29512894875E+02  0.57137382775E+02  0.72646801198E+02  0.15830589786E+03  0.12509000000E+03 0.  0.
         25    1    4    4    0    0  0.27497484780E+02  0.11823348736E+02  0.15043591964E+03  0.19792518097E+03  0.12509000000E+03 0.  0.
         25    1    3    3    0    0 -0.57010379655E+02 -0.68960731512E+02  0.19076918790E+02  0.15497484573E+03  0.12509000000E+03 0.  0.
<mgrwt>
<rscale>  2 0.45021129E+03</rscale>
<asrwt>0</asrwt>
<pdfrwt beam="1">  1       21 0.55394526E-01 0.45021129E+03</pdfrwt>
<pdfrwt beam="2">  1       21 0.19782815E-01 0.45021129E+03</pdfrwt>
<totfact> 0.67000413E+04</totfact>
</mgrwt>
</event>
<event>
 7    0  0.4748297E-002  0.4594617E+03  0.7546771E-02  0.1024937E+00
         21   -1    0    0  502  501  0.00000000000E+00  0.00000000000E+00  0.16200846520E+04  0.16200846520E+04  0.00000000000E+00 0.  1.
         21   -1    0    0  501  502 -0.00000000000E+00 -0.00000000000E+00 -0.32576239581E+02  0.32576239581E+02  0.00000000000E+00 0.  1.
      99926    2    1    2    0    0  0.00000000000E+00 -0.71054273576E-14  0.15875084124E+04  0.16526608916E+04  0.45946171011E+03 0.  0.
      99925    2    3    3    0    0 -0.36338228370E+01 -0.61935788332E+02  0.63700173799E+03  0.69195297927E+03  0.26301799325E+03 0.  0.
         25    1    3    3    0    0  0.36338228370E+01  0.61935788332E+02  0.95050667445E+03  0.96070791233E+03  0.12509000000E+03 0.  0.
         25    1    4    4    0    0  0.15446358649E+02 -0.47307566155E+02  0.41149010618E+03  0.43295289743E+03  0.12509000000E+03 0.  0.
         25    1    4    4    0    0 -0.19080181486E+02 -0.14628222177E+02  0.22551163181E+03  0.25900008184E+03  0.12509000000E+03 0.  0.
<mgrwt>
<rscale>  2 0.45946171E+03</rscale>
<asrwt>0</asrwt>
<pdfrwt beam="1">  1       21 0.23824769E+00 0.45946171E+03</pdfrwt>
<pdfrwt beam="2">  1       21 0.47906246E-02 0.45946171E+03</pdfrwt>
<totfact> 0.19578450E+04</totfact>
</mgrwt>
</event>
<event>
 7    0  0.4748297E-002  0.4570030E+03  0.7546771E-02  0.1025654E+00
         21   -1    0    0  502  501  0.00000000000E+00  0.00000000000E+00  0.73457292986E+02  0.73457292986E+02  0.00000000000E+00 0. -1.
         21   -1    0    0  501  502 -0.00000000000E+00 -0.00000000000E+00 -0.71079302587E+03  0.71079302587E+03  0.00000000000E+00 0. -1.
      99926    2    1    2    0    0  0.00000000000E+00  0.00000000000E+00 -0.63733573289E+03  0.78425031886E+03  0.45700298272E+03 0.  0.
      99925    2    3    3    0    0  0.86027105401E+02  0.68695259058E+02 -0.34306964645E+03  0.44607915036E+03  0.26300213798E+03 0.  0.
         25    1    4    4    0    0  0.14291544617E+02  0.28389489408E+02 -0.20596625593E+03  0.24306340333E+03  0.12509000000E+03 0.  0.
         25    1    4    4    0    0  0.71735560785E+02  0.40305769651E+02 -0.13710339053E+03  0.20301574703E+03  0.12509000000E+03 0.  0.
         25    1    3    3    0    0 -0.86027105401E+02 -0.68695259058E+02 -0.29426608644E+03  0.33817116850E+03  0.12509000000E+03 0.  0.
<mgrwt>
<rscale>  2 0.45700298E+03</rscale>
<asrwt>0</asrwt>
<pdfrwt beam="1">  1       21 0.10802543E-01 0.45700298E+03</pdfrwt>
<pdfrwt beam="2">  1       21 0.10452838E+00 0.45700298E+03</pdfrwt>
<totfact> 0.47780473E+04</totfact>
</mgrwt>
</event>
<event>
 7    0  0.4748297E-002  0.4501050E+03  0.7546771E-02  0.1027691E+00
         21   -1    0    0  502  501  0.00000000000E+00  0.00000000000E+00  0.12243011437E+03  0.12243011437E+03  0.00000000000E+00 0.  1.
         21   -1    0    0  501  502 -0.00000000000E+00 -0.00000000000E+00 -0.41369425315E+03  0.41369425315E+03  0.00000000000E+00 0.  1.
      99926    2    1    2    0    0  0.00000000000E+00  0.00000000000E+00 -0.29126413878E+03  0.53612436752E+03  0.45010503097E+03 0.  0.
      99925    2    3    3    0    0 -0.95818584624E+02  0.51035243101E+02 -0.18505299780E+03  0.33936534799E+03  0.26294187613E+03 0.  0.
         25    1    3    3    0    0  0.95818584624E+02 -0.51035243101E+02 -0.10621114099E+03  0.19675901953E+03  0.12509000000E+03 0.  0.
         25    1    4    4    0    0 -0.29754614333E+02 -0.12487367743E+02 -0.77535962447E+02  0.15066719948E+03  0.12509000000E+03 0.  0.
         25    1    4    4    0    0 -0.66063970291E+02  0.63522610844E+02 -0.10751703535E+03  0.18869814851E+03  0.12509000000E+03 0.  0.
<mgrwt>
<rscale>  2 0.45010503E+03</rscale>
<asrwt>0</asrwt>
<pdfrwt beam="1">  1       21 0.18004429E-01 0.45010503E+03</pdfrwt>
<pdfrwt beam="2">  1       21 0.60837389E-01 0.45010503E+03</pdfrwt>
<totfact> 0.65285604E+04</totfact>
</mgrwt>
</event>
<event>
 7    0  0.4748297E-002  0.4608221E+03  0.7546771E-02  0.1024543E+00
         21   -1    0    0  502  501  0.00000000000E+00  0.00000000000E+00  0.29398917122E+03  0.29398917122E+03  0.00000000000E+00 0.  1.
         21   -1    0    0  501  502 -0.00000000000E+00 -0.00000000000E+00 -0.18058232186E+03  0.18058232186E+03  0.00000000000E+00 0.  1.
      99926    2    1    2    0    0  0.17763568394E-14  0.00000000000E+00  0.11340684937E+03  0.47457149308E+03  0.46082207907E+03 0.  0.
      99925    2    3    3    0    0 -0.12768161587E+02 -0.56954249287E+02  0.17674178559E+03  0.32269774713E+03  0.26360835489E+03 0.  0.
         25    1    3    3    0    0  0.12768161587E+02  0.56954249287E+02 -0.63334936223E+02  0.15187374595E+03  0.12509000000E+03 0.  0.
         25    1    4    4    0    0 -0.36302639137E+02 -0.55310511071E+02  0.10810863329E+03  0.17807896825E+03  0.12509000000E+03 0.  0.
         25    1    4    4    0    0  0.23534477550E+02 -0.16437382156E+01  0.68633152303E+02  0.14461877888E+03  0.12509000000E+03 0.  0.
<mgrwt>
<rscale>  2 0.46082208E+03</rscale>
<asrwt>0</asrwt>
<pdfrwt beam="1">  1       21 0.43233702E-01 0.46082208E+03</pdfrwt>
<pdfrwt beam="2">  1       21 0.26556224E-01 0.46082208E+03</pdfrwt>
<totfact> 0.64085743E+04</totfact>
</mgrwt>
</event>
<event>
 7    0  0.4748297E-002  0.4656806E+03  0.7546771E-02  0.1023146E+00
         21   -1    0    0  502  501  0.00000000000E+00  0.00000000000E+00  0.62079776703E+02  0.62079776703E+02  0.00000000000E+00 0.  1.
         21   -1    0    0  501  502 -0.00000000000E+00 -0.00000000000E+00 -0.87330527049E+03  0.87330527049E+03  0.00000000000E+00 0.  1.
      99926    2    1    2    0    0 -0.14210854715E-13  0.71054273576E-14 -0.81122549379E+03  0.93538504720E+03  0.46568056084E+03 0.  0.
      99925    2    3    3    0    0 -0.10830469140E+03  0.58026914992E+02 -0.50145491095E+03  0.57943230997E+03  0.26303563463E+03 0.  0.
         25    1    4    4    0    0 -0.52687973652E+02  0.69637058119E+02 -0.24909301497E+03  0.29209618388E+03  0.12509000000E+03 0.  0.
         25    1    3    3    0    0  0.10830469140E+03 -0.58026914992E+02 -0.30977058284E+03  0.35595273722E+03  0.12509000000E+03 0.  0.
         25    1    4    4    0    0 -0.55616717743E+02 -0.11610143126E+02 -0.25236189598E+03  0.28733612609E+03  0.12509000000E+03 0.  0.
<mgrwt>
<rscale>  2 0.46568056E+03</rscale>
<asrwt>0</asrwt>
<pdfrwt beam="1">  1       21 0.91293797E-02 0.46568056E+03</pdfrwt>
<pdfrwt beam="2">  1       21 0.12842723E+00 0.46568056E+03</pdfrwt>
<totfact> 0.38425470E+04</totfact>
</mgrwt>
</event>
<event>
 7    0  0.4748297E-002  0.4528914E+03  0.7546771E-02  0.1026863E+00
         21   -1    0    0  502  501  0.00000000000E+00  0.00000000000E+00  0.11913182632E+03  0.11913182632E+03  0.00000000000E+00 0.  1.
         21   -1    0    0  501  502 -0.00000000000E+00 -0.00000000000E+00 -0.43042782282E+03  0.43042782282E+03  0.00000000000E+00 0.  1.
      99926    2    1    2    0    0  0.00000000000E+00  0.00000000000E+00 -0.31129599650E+03  0.54955964915E+03  0.45289138934E+03 0.  0.
      99925    2    3    3    0    0 -0.93974713753E+02 -0.19543857679E+02 -0.12727102659E+03  0.30722536175E+03  0.26263339372E+03 0.  0.
         25    1    4    4    0    0 -0.88312289689E+02 -0.27626664973E+01 -0.64919010991E+02  0.16633904810E+03  0.12509000000E+03 0.  0.
         25    1    3    3    0    0  0.93974713753E+02  0.19543857679E+02 -0.18402496991E+03  0.24233428740E+03  0.12509000000E+03 0.  0.
         25    1    4    4    0    0 -0.56624240632E+01 -0.16781191182E+02 -0.62352015596E+02  0.14088631365E+03  0.12509000000E+03 0.  0.
<mgrwt>
<rscale>  2 0.45289139E+03</rscale>
<asrwt>0</asrwt>
<pdfrwt beam="1">  1       21 0.17519386E-01 0.45289139E+03</pdfrwt>
<pdfrwt beam="2">  1       21 0.63298209E-01 0.45289139E+03</pdfrwt>
<totfact> 0.62939094E+04</totfact>
</mgrwt>
</event>
<event>
 7    0  0.4748297E-002  0.4562512E+03  0.7546771E-02  0.1025874E+00
         21   -1    0    0  502  501  0.00000000000E+00  0.00000000000E+00  0.94298222721E+02  0.94298222721E+02  0.00000000000E+00 0. -1.
         21   -1    0    0  501  502 -0.00000000000E+00 -0.00000000000E+00 -0.55187983775E+03  0.55187983775E+03  0.00000000000E+00 0. -1.
      99926    2    1    2    0    0  0.00000000000E+00 -0.35527136788E-14 -0.45758161503E+03  0.64617806047E+03  0.45625119334E+03 0.  0.
      99925    2    3    3    0    0 -0.65192188653E+02  0.17773462163E+02 -0.15662474178E+03  0.31332904804E+03  0.26282668280E+03 0.  0.
         25    1    4    4    0    0 -0.57036118241E+02 -0.17840307966E+02 -0.59802601923E+02  0.15098097453E+03  0.12509000000E+03 0.  0.
         25    1    3    3    0    0  0.65192188653E+02 -0.17773462163E+02 -0.30095687325E+03  0.33284901243E+03  0.12509000000E+03 0.  0.
         25    1    4    4    0    0 -0.81560704124E+01  0.35613770129E+02 -0.96822139852E+02  0.16234807351E+03  0.12509000000E+03 0.  0.
<mgrwt>
<rscale>  2 0.45625119E+03</rscale>
<asrwt>0</asrwt>
<pdfrwt beam="1">  1       21 0.13867386E-01 0.45625119E+03</pdfrwt>
<pdfrwt beam="2">  1       21 0.81158796E-01 0.45625119E+03</pdfrwt>
<totfact> 0.55373536E+04</totfact>
</mgrwt>
</event>
<event>
 7    0  0.4748297E-002  0.4550449E+03  0.7546771E-02  0.1026228E+00
         21   -1    0    0  502  501  0.00000000000E+00  0.00000000000E+00  0.12639400431E+03  0.12639400431E+03  0.00000000000E+00 0. -1.
         21   -1    0    0  501  502 -0.00000000000E+00 -0.00000000000E+00 -0.40956432469E+03  0.40956432469E+03  0.00000000000E+00 0. -1.
      99926    2    1    2    0    0  0.00000000000E+00  0.00000000000E+00 -0.28317032039E+03  0.53595832900E+03  0.45504494292E+03 0.  0.
      99925    2    3    3    0    0  0.62349769429E+02 -0.39442305283E+02 -0.27933477016E+03  0.39068132208E+03  0.26298439575E+03 0.  0.
         25    1    4    4    0    0  0.29776537880E+02 -0.35394033721E+02 -0.19515272829E+03  0.23637147732E+03  0.12509000000E+03 0.  0.
         25    1    4    4    0    0  0.32573231549E+02 -0.40482715618E+01 -0.84182041861E+02  0.15430984475E+03  0.12509000000E+03 0.  0.
         25    1    3    3    0    0 -0.62349769429E+02  0.39442305283E+02 -0.38355502311E+01  0.14527700692E+03  0.12509000000E+03 0.  0.
<mgrwt>
<rscale>  2 0.45504494E+03</rscale>
<asrwt>0</asrwt>
<pdfrwt beam="1">  1       21 0.18587354E-01 0.45504494E+03</pdfrwt>
<pdfrwt beam="2">  1       21 0.60230047E-01 0.45504494E+03</pdfrwt>
<totfact> 0.62781707E+04</totfact>
</mgrwt>
</event>
<event>
 7    0  0.4748297E-002  0.4551652E+03  0.7546771E-02  0.1026193E+00
         21   -1    0    0  502  501  0.00000000000E+00  0.00000000000E+00  0.49613820103E+02  0.49613820103E+02  0.00000000000E+00 0.  1.
         21   -1    0    0  501  502 -0.00000000000E+00 -0.00000000000E+00 -0.10439397297E+04  0.10439397297E+04  0.00000000000E+00 0.  1.
      99926    2    1    2    0    0  0.00000000000E+00  0.00000000000E+00 -0.99432590965E+03  0.10935535499E+04  0.45516519177E+03 0.  0.
      99925    2    3    3    0    0  0.89838864332E+02 -0.66004916032E+02 -0.57924714692E+03  0.64593143484E+03  0.26319667705E+03 0.  0.
         25    1    4    4    0    0  0.40111345402E+02 -0.74205859837E+02 -0.29743795274E+03  0.33351502739E+03  0.12509000000E+03 0.  0.
         25    1    3    3    0    0 -0.89838864332E+02  0.66004916032E+02 -0.41507876273E+03  0.44762211502E+03  0.12509000000E+03 0.  0.
         25    1    4    4    0    0  0.49727518930E+02  0.82009438047E+01 -0.28180919418E+03  0.31241640745E+03  0.12509000000E+03 0.  0.
<mgrwt>
<rscale>  2 0.45516519E+03</rscale>
<asrwt>0</asrwt>
<pdfrwt beam="1">  1       21 0.72961498E-02 0.45516519E+03</pdfrwt>
<pdfrwt beam="2">  1       21 0.15352055E+00 0.45516519E+03</pdfrwt>
<totfact> 0.35672602E+04</totfact>
</mgrwt>
</event>
<event>
 7    0  0.4748297E-002  0.4551033E+03  0.7546771E-02  0.1026211E+00
         21   -1    0    0  502  501  0.00000000000E+00  0.00000000000E+00  0.20603341210E+03  0.20603341210E+03  0.00000000000E+00 0.  1.
         21   -1    0    0  501  502 -0.00000000000E+00 -0.00000000000E+00 -0.25131721098E+03  0.25131721098E+03  0.00000000000E+00 0.  1.
      99926    2    1    2    0    0 -0.17763568394E-14  0.00000000000E+00 -0.45283798885E+02  0.45735062308E+03  0.45510325201E+03 0.  0.
      99925    2    3    3    0    0  0.42441683777E+01 -0.92476913832E+02 -0.93990261473E+02  0.29428677008E+03  0.26305995749E+03 0.  0.
         25    1    4    4    0    0  0.17318190737E+02 -0.93143985668E+01 -0.57967984990E+02  0.13926404107E+03  0.12509000000E+03 0.  0.
         25    1    4    4    0    0 -0.13074022359E+02 -0.83162515265E+02 -0.36022276482E+02  0.15502272901E+03  0.12509000000E+03 0.  0.
         25    1    3    3    0    0 -0.42441683777E+01  0.92476913832E+02  0.48706462588E+02  0.16306385300E+03  0.12509000000E+03 0.  0.
<mgrwt>
<rscale>  2 0.45510325E+03</rscale>
<asrwt>0</asrwt>
<pdfrwt beam="1">  1       21 0.30299031E-01 0.45510325E+03</pdfrwt>
<pdfrwt beam="2">  1       21 0.36958413E-01 0.45510325E+03</pdfrwt>
<totfact> 0.68317625E+04</totfact>
</mgrwt>
</event>
<event>
 7    0  0.4748297E-002  0.4549042E+03  0.7546771E-02  0.1026270E+00
         21   -1    0    0  502  501  0.00000000000E+00  0.00000000000E+00  0.32152742138E+03  0.32152742138E+03  0.00000000000E+00 0. -1.
         21   -1    0    0  501  502 -0.00000000000E+00 -0.00000000000E+00 -0.16090216842E+03  0.16090216842E+03  0.00000000000E+00 0. -1.
      99926    2    1    2    0    0  0.00000000000E+00  0.00000000000E+00  0.16062525296E+03  0.48242958980E+03  0.45490420665E+03 0.  0.
      99925    2    3    3    0    0 -0.38675856646E+02  0.93531485059E+02  0.15448248631E+03  0.32140411894E+03  0.26304335861E+03 0.  0.
         25    1    4    4    0    0 -0.57341206117E+02  0.32401499477E+02  0.77775895760E+02  0.16135200386E+03  0.12509000000E+03 0.  0.
         25    1    3    3    0    0  0.38675856646E+02 -0.93531485059E+02  0.61427666510E+01  0.16102547086E+03  0.12509000000E+03 0.  0.
         25    1    4    4    0    0  0.18665349471E+02  0.61129985582E+02  0.76706590552E+02  0.16005211508E+03  0.12509000000E+03 0.  0.
<mgrwt>
<rscale>  2 0.45490421E+03</rscale>
<asrwt>0</asrwt>
<pdfrwt beam="1">  1       21 0.47283444E-01 0.45490421E+03</pdfrwt>
<pdfrwt beam="2">  1       21 0.23662084E-01 0.45490421E+03</pdfrwt>
<totfact> 0.66574276E+04</totfact>
</mgrwt>
</event>
<event>
 7    0  0.5706813E-002  0.3964664E+03  0.7546771E-02  0.1045010E+00
         21   -1    0    0  502  501  0.00000000000E+00  0.00000000000E+00  0.38842316242E+03  0.38842316242E+03  0.00000000000E+00 0.  1.
         21   -1    0    0  501  502 -0.00000000000E+00 -0.00000000000E+00 -0.10116905821E+03  0.10116905821E+03  0.00000000000E+00 0.  1.
      99926    2    1    2    0    0 -0.13322676296E-14 -0.71054273576E-14  0.28725410421E+03  0.48959222063E+03  0.39646641991E+03 0.  0.
      99925    2    3    3    0    0 -0.12143283125E+01  0.38574659561E+02  0.19897555684E+03  0.33169957045E+03  0.26257161664E+03 0.  0.
         25    1    4    4    0    0  0.20329525304E+02  0.34481356626E+02  0.63085600230E+02  0.14570365339E+03  0.12509000000E+03 0.  0.
         25    1    4    4    0    0 -0.21543853617E+02  0.40933029347E+01  0.13588995661E+03  0.18599591707E+03  0.12509000000E+03 0.  0.
         25    1    3    3    0    0  0.12143283125E+01 -0.38574659561E+02  0.88278547364E+02  0.15789265017E+03  0.12509000000E+03 0.  0.
<mgrwt>
<rscale>  2 0.39646642E+03</rscale>
<asrwt>0</asrwt>
<pdfrwt beam="1">  1       21 0.57121053E-01 0.39646642E+03</pdfrwt>
<pdfrwt beam="2">  1       21 0.14877803E-01 0.39646642E+03</pdfrwt>
<totfact> 0.10813461E+05</totfact>
</mgrwt>
</event>
<event>
 7    0  0.4748297E-002  0.4528511E+03  0.7546771E-02  0.1026875E+00
         21   -1    0    0  502  501  0.00000000000E+00  0.00000000000E+00  0.11644922555E+03  0.11644922555E+03  0.00000000000E+00 0.  1.
         21   -1    0    0  501  502 -0.00000000000E+00 -0.00000000000E+00 -0.44026505003E+03  0.44026505003E+03  0.00000000000E+00 0.  1.
      99926    2    1    2    0    0 -0.35527136788E-14  0.00000000000E+00 -0.32381582448E+03  0.55671427559E+03  0.45285107536E+03 0.  0.
      99925    2    3    3    0    0 -0.29116255923E+02 -0.62214626070E+02 -0.31158148080E+03  0.41348158616E+03  0.26299351106E+03 0.  0.
         25    1    3    3    0    0  0.29116255923E+02  0.62214626070E+02 -0.12234343684E+02  0.14323268943E+03  0.12509000000E+03 0.  0.
         25    1    4    4    0    0 -0.41487411254E+02 -0.42909447799E+02 -0.11888386511E+03  0.18260149914E+03  0.12509000000E+03 0.  0.
         25    1    4    4    0    0  0.12371155331E+02 -0.19305178271E+02 -0.19269761568E+03  0.23088008702E+03  0.12509000000E+03 0.  0.
<mgrwt>
<rscale>  2 0.45285108E+03</rscale>
<asrwt>0</asrwt>
<pdfrwt beam="1">  1       21 0.17124886E-01 0.45285108E+03</pdfrwt>
<pdfrwt beam="2">  1       21 0.64744861E-01 0.45285108E+03</pdfrwt>
<totfact> 0.62480351E+04</totfact>
</mgrwt>
</event>
<event>
 7    0  0.4748297E-002  0.4629281E+03  0.7546771E-02  0.1023935E+00
         21   -1    0    0  502  501  0.00000000000E+00  0.00000000000E+00  0.19937264909E+03  0.19937264909E+03  0.00000000000E+00 0. -1.
         21   -1    0    0  501  502 -0.00000000000E+00 -0.00000000000E+00 -0.26872090679E+03  0.26872090679E+03  0.00000000000E+00 0. -1.
      99926    2    1    2    0    0  0.00000000000E+00  0.17763568394E-14 -0.69348257700E+02  0.46809355588E+03  0.46292806807E+03 0.  0.
      99925    2    3    3    0    0  0.11856746371E+03 -0.14357597526E+02 -0.42296421085E+02  0.29304015253E+03  0.26423315406E+03 0.  0.
         25    1    3    3    0    0 -0.11856746371E+03  0.14357597526E+02 -0.27051836614E+02  0.17505340334E+03  0.12509000000E+03 0.  0.
         25    1    4    4    0    0  0.36269146774E+02 -0.43477909988E+02 -0.24318829703E+02  0.13944422987E+03  0.12509000000E+03 0.  0.
         25    1    4    4    0    0  0.82298316937E+02  0.29120312462E+02 -0.17977591383E+02  0.15359592267E+03  0.12509000000E+03 0.  0.
<mgrwt>
<rscale>  2 0.46292807E+03</rscale>
<asrwt>0</asrwt>
<pdfrwt beam="1">  1       21 0.29319507E-01 0.46292807E+03</pdfrwt>
<pdfrwt beam="2">  1       21 0.39517780E-01 0.46292807E+03</pdfrwt>
<totfact> 0.63484745E+04</totfact>
</mgrwt>
</event>
<event>
 7    0  0.4748297E-002  0.4553854E+03  0.7546771E-02  0.1026128E+00
         21   -1    0    0  502  501  0.00000000000E+00  0.00000000000E+00  0.37925707893E+02  0.37925707893E+02  0.00000000000E+00 0. -1.
         21   -1    0    0  501  502 -0.00000000000E+00 -0.00000000000E+00 -0.13669873822E+04  0.13669873822E+04  0.00000000000E+00 0. -1.
      99926    2    1    2    0    0  0.00000000000E+00  0.00000000000E+00 -0.13290616744E+04  0.14049130901E+04  0.45538539350E+03 0.  0.
      99925    2    3    3    0    0  0.10752002901E+03 -0.33080193743E+02 -0.88395817929E+03  0.92907752477E+03  0.26296031723E+03 0.  0.
         25    1    4    4    0    0  0.59212513988E+02  0.74081470813E+01 -0.54434917221E+03  0.56171570375E+03  0.12509000000E+03 0.  0.
         25    1    3    3    0    0 -0.10752002901E+03  0.33080193743E+02 -0.44510349506E+03  0.47583556537E+03  0.12509000000E+03 0.  0.
         25    1    4    4    0    0  0.48307515019E+02 -0.40488340824E+02 -0.33960900708E+03  0.36736182102E+03  0.12509000000E+03 0.  0.
<mgrwt>
<rscale>  2 0.45538539E+03</rscale>
<asrwt>0</asrwt>
<pdfrwt beam="1">  1       21 0.55773082E-02 0.45538539E+03</pdfrwt>
<pdfrwt beam="2">  1       21 0.20102762E+00 0.45538539E+03</pdfrwt>
<totfact> 0.26123034E+04</totfact>
</mgrwt>
</event>
<event>
 7    0  0.4748297E-002  0.4518520E+03  0.7546771E-02  0.1027171E+00
         21   -1    0    0  502  501  0.00000000000E+00  0.00000000000E+00  0.14580565908E+03  0.14580565908E+03  0.00000000000E+00 0.  1.
         21   -1    0    0  501  502 -0.00000000000E+00 -0.00000000000E+00 -0.35007248081E+03  0.35007248081E+03  0.00000000000E+00 0.  1.
      99926    2    1    2    0    0  0.00000000000E+00  0.00000000000E+00 -0.20426682173E+03  0.49587813989E+03  0.45185196155E+03 0.  0.
      99925    2    3    3    0    0  0.51808191443E+02  0.35959289040E+02 -0.22805071045E+03  0.35378542146E+03  0.26302060515E+03 0.  0.
         25    1    4    4    0    0  0.30212398767E+02  0.58554260675E+02 -0.11323637465E+03  0.18113910436E+03  0.12509000000E+03 0.  0.
         25    1    3    3    0    0 -0.51808191443E+02 -0.35959289040E+02  0.23783888712E+02  0.14209271843E+03  0.12509000000E+03 0.  0.
         25    1    4    4    0    0  0.21595792676E+02 -0.22594971635E+02 -0.11481433579E+03  0.17264631710E+03  0.12509000000E+03 0.  0.
<mgrwt>
<rscale>  2 0.45185196E+03</rscale>
<asrwt>0</asrwt>
<pdfrwt beam="1">  1       21 0.21442009E-01 0.45185196E+03</pdfrwt>
<pdfrwt beam="2">  1       21 0.51481246E-01 0.45185196E+03</pdfrwt>
<totfact> 0.67225544E+04</totfact>
</mgrwt>
</event>
<event>
 7    0  0.4748297E-002  0.4590008E+03  0.7546771E-02  0.1025071E+00
         21   -1    0    0  502  501  0.00000000000E+00  0.00000000000E+00  0.10630093139E+03  0.10630093139E+03  0.00000000000E+00 0. -1.
         21   -1    0    0  501  502 -0.00000000000E+00 -0.00000000000E+00 -0.49548419975E+03  0.49548419975E+03  0.00000000000E+00 0. -1.
      99926    2    1    2    0    0  0.00000000000E+00  0.00000000000E+00 -0.38918326835E+03  0.60178513114E+03  0.45900079269E+03 0.  0.
      99925    2    3    3    0    0 -0.58800240062E+02 -0.52482480847E+02 -0.13088665542E+03  0.30416704133E+03  0.26301025348E+03 0.  0.
         25    1    4    4    0    0 -0.65258267993E+01 -0.55662670327E+02 -0.83574893128E+02  0.16054030692E+03  0.12509000000E+03 0.  0.
         25    1    4    4    0    0 -0.52274413263E+02  0.31801894801E+01 -0.47311762289E+02  0.14362673441E+03  0.12509000000E+03 0.  0.
         25    1    3    3    0    0  0.58800240062E+02  0.52482480847E+02 -0.25829661294E+03  0.29761808981E+03  0.12509000000E+03 0.  0.
<mgrwt>
<rscale>  2 0.45900079E+03</rscale>
<asrwt>0</asrwt>
<pdfrwt beam="1">  1       21 0.15632490E-01 0.45900079E+03</pdfrwt>
<pdfrwt beam="2">  1       21 0.72865324E-01 0.45900079E+03</pdfrwt>
<totfact> 0.56753151E+04</totfact>
</mgrwt>
</event>
<event>
 7    0  0.4748297E-002  0.4455566E+03  0.7546771E-02  0.1029055E+00
         21   -1    0    0  502  501  0.00000000000E+00  0.00000000000E+00  0.21345152342E+03  0.21345152342E+03  0.00000000000E+00 0. -1.
         21   -1    0    0  501  502 -0.00000000000E+00 -0.00000000000E+00 -0.23251258632E+03  0.23251258632E+03  0.00000000000E+00 0. -1.
      99926    2    1    2    0    0  0.00000000000E+00  0.00000000000E+00 -0.19061062900E+02  0.44596410974E+03  0.44555657672E+03 0.  0.
      99925    2    3    3    0    0 -0.42487320067E+01  0.56233804609E+02 -0.99621330492E+02  0.28684856268E+03  0.26301596133E+03 0.  0.
         25    1    3    3    0    0  0.42487320067E+01 -0.56233804609E+02  0.80560267592E+02  0.15911554707E+03  0.12509000000E+03 0.  0.
         25    1    4    4    0    0 -0.17427859997E+02 -0.97504529505E+01 -0.40429000259E+02  0.13296922125E+03  0.12509000000E+03 0.  0.
         25    1    4    4    0    0  0.13179127991E+02  0.65984257559E+02 -0.59192330233E+02  0.15387934143E+03  0.12509000000E+03 0.  0.
<mgrwt>
<rscale>  2 0.44555658E+03</rscale>
<asrwt>0</asrwt>
<pdfrwt beam="1">  1       21 0.31389930E-01 0.44555658E+03</pdfrwt>
<pdfrwt beam="2">  1       21 0.34193027E-01 0.44555658E+03</pdfrwt>
<totfact> 0.74683514E+04</totfact>
</mgrwt>
</event>
<event>
 7    0  0.4748297E-002  0.4529409E+03  0.7546771E-02  0.1026849E+00
         21   -1    0    0  502  501  0.00000000000E+00  0.00000000000E+00  0.51056002558E+02  0.51056002558E+02  0.00000000000E+00 0. -1.
         21   -1    0    0  501  502 -0.00000000000E+00 -0.00000000000E+00 -0.10045611161E+04  0.10045611161E+04  0.00000000000E+00 0. -1.
      99926    2    1    2    0    0  0.00000000000E+00  0.14210854715E-13 -0.95350511349E+03  0.10556171186E+04  0.45294094499E+03 0.  0.
      99925    2    3    3    0    0 -0.12578508767E+02  0.10204640168E+03 -0.50117869302E+03  0.57518149781E+03  0.26283452228E+03 0.  0.
         25    1    3    3    0    0  0.12578508767E+02 -0.10204640168E+03 -0.45232642047E+03  0.48043562080E+03  0.12509000000E+03 0.  0.
         25    1    4    4    0    0 -0.40591376536E+02  0.33608357754E+02 -0.26836510968E+03  0.30073995702E+03  0.12509000000E+03 0.  0.
         25    1    4    4    0    0  0.28012867769E+02  0.68438043927E+02 -0.23281358335E+03  0.27444154079E+03  0.12509000000E+03 0.  0.
<mgrwt>
<rscale>  2 0.45294094E+03</rscale>
<asrwt>0</asrwt>
<pdfrwt beam="1">  1       21 0.75082356E-02 0.45294094E+03</pdfrwt>
<pdfrwt beam="2">  1       21 0.14772958E+00 0.45294094E+03</pdfrwt>
<totfact> 0.37673751E+04</totfact>
</mgrwt>
</event>
<event>
 7    0  0.4748297E-002  0.4573666E+03  0.7546771E-02  0.1025548E+00
         21   -1    0    0  502  501  0.00000000000E+00  0.00000000000E+00  0.98911402870E+03  0.98911402870E+03  0.00000000000E+00 0. -1.
         21   -1    0    0  501  502 -0.00000000000E+00 -0.00000000000E+00 -0.52871614244E+02  0.52871614244E+02  0.00000000000E+00 0. -1.
      99926    2    1    2    0    0  0.00000000000E+00  0.00000000000E+00  0.93624241446E+03  0.10419856429E+04  0.45736661605E+03 0.  0.
      99925    2    3    3    0    0 -0.53160278576E+02  0.83953220029E+02  0.45545052553E+03  0.53534720488E+03  0.26322479023E+03 0.  0.
         25    1    4    4    0    0  0.13864456992E+02  0.43707477821E+02  0.19851286003E+03  0.23907620225E+03  0.12509000000E+03 0.  0.
         25    1    4    4    0    0 -0.67024735568E+02  0.40245742208E+02  0.25693766551E+03  0.29627100263E+03  0.12509000000E+03 0.  0.
         25    1    3    3    0    0  0.53160278576E+02 -0.83953220029E+02  0.48079188892E+03  0.50663843806E+03  0.12509000000E+03 0.  0.
<mgrwt>
<rscale>  2 0.45736662E+03</rscale>
<asrwt>0</asrwt>
<pdfrwt beam="1">  1       21 0.14545793E+00 0.45736662E+03</pdfrwt>
<pdfrwt beam="2">  1       21 0.77752380E-02 0.45736662E+03</pdfrwt>
<totfact> 0.36886688E+04</totfact>
</mgrwt>
</event>
<event>
 7    0  0.4748297E-002  0.4486885E+03  0.7546771E-02  0.1028114E+00
         21   -1    0    0  502  501  0.00000000000E+00  0.00000000000E+00  0.20829630834E+03  0.20829630834E+03  0.00000000000E+00 0.  1.
         21   -1    0    0  501  502 -0.00000000000E+00 -0.00000000000E+00 -0.24162856875E+03  0.24162856875E+03  0.00000000000E+00 0.  1.
      99926    2    1    2    0    0  0.00000000000E+00  0.00000000000E+00 -0.33332260416E+02  0.44992487709E+03  0.44868848374E+03 0.  0.
      99925    2    3    3    0    0 -0.70712982596E+02 -0.80344952357E+02 -0.23900422501E+02  0.28502458921E+03  0.26308201949E+03 0.  0.
         25    1    4    4    0    0 -0.86110145685E+01 -0.69992298381E+02 -0.19483953710E+02  0.14491447118E+03  0.12509000000E+03 0.  0.
         25    1    4    4    0    0 -0.62101968028E+02 -0.10352653976E+02 -0.44164687915E+01  0.14011011803E+03  0.12509000000E+03 0.  0.
         25    1    3    3    0    0  0.70712982596E+02  0.80344952357E+02 -0.94318379145E+01  0.16490028788E+03  0.12509000000E+03 0.  0.
<mgrwt>
<rscale>  2 0.44868848E+03</rscale>
<asrwt>0</asrwt>
<pdfrwt beam="1">  1       21 0.30631810E-01 0.44868848E+03</pdfrwt>
<pdfrwt beam="2">  1       21 0.35533613E-01 0.44868848E+03</pdfrwt>
<totfact> 0.72502078E+04</totfact>
</mgrwt>
</event>
<event>
 7    0  0.4748297E-002  0.4347682E+03  0.7546771E-02  0.1032364E+00
         21   -1    0    0  502  501  0.00000000000E+00  0.00000000000E+00  0.10123738130E+04  0.10123738130E+04  0.00000000000E+00 0.  1.
         21   -1    0    0  501  502 -0.00000000000E+00 -0.00000000000E+00 -0.46678264939E+02  0.46678264939E+02  0.00000000000E+00 0.  1.
      99926    2    1    2    0    0  0.00000000000E+00  0.00000000000E+00  0.96569554809E+03  0.10590520780E+04  0.43476822819E+03 0.  0.
      99925    2    3    3    0    0  0.57827476501E+02 -0.54940704901E+02  0.50357063894E+03  0.57369711730E+03  0.26302565635E+03 0.  0.
         25    1    3    3    0    0 -0.57827476501E+02  0.54940704901E+02  0.46212490915E+03  0.48535496067E+03  0.12509000000E+03 0.  0.
         25    1    4    4    0    0  0.25718279841E+02 -0.64447950684E+02  0.22700857323E+03  0.26831952722E+03  0.12509000000E+03 0.  0.
         25    1    4    4    0    0  0.32109196660E+02  0.95072457829E+01  0.27656206571E+03  0.30537759008E+03  0.12509000000E+03 0.  0.
<mgrwt>
<rscale>  2 0.43476823E+03</rscale>
<asrwt>0</asrwt>
<pdfrwt beam="1">  1       21 0.14887849E+00 0.43476823E+03</pdfrwt>
<pdfrwt beam="2">  1       21 0.68644514E-02 0.43476823E+03</pdfrwt>
<totfact> 0.43406273E+04</totfact>
</mgrwt>
</event>
<event>
 7    0  0.4748297E-002  0.4583974E+03  0.7546771E-02  0.1025247E+00
         21   -1    0    0  502  501  0.00000000000E+00  0.00000000000E+00  0.29059995235E+03  0.29059995235E+03  0.00000000000E+00 0. -1.
         21   -1    0    0  501  502 -0.00000000000E+00 -0.00000000000E+00 -0.18077101597E+03  0.18077101597E+03  0.00000000000E+00 0. -1.
      99926    2    1    2    0    0  0.00000000000E+00 -0.71054273576E-14  0.10982893638E+03  0.47137096832E+03  0.45839741984E+03 0.  0.
      99925    2    3    3    0    0  0.63845187552E+02 -0.33322378344E+02  0.16285263562E+03  0.31759967824E+03  0.26298666472E+03 0.  0.
         25    1    3    3    0    0 -0.63845187552E+02  0.33322378344E+02 -0.53023699242E+02  0.15377129008E+03  0.12509000000E+03 0.  0.
         25    1    4    4    0    0  0.51447962806E+02  0.18613977596E+02  0.86451860741E+02  0.16160075917E+03  0.12509000000E+03 0.  0.
         25    1    4    4    0    0  0.12397224746E+02 -0.51936355940E+02  0.76400774878E+02  0.15599891907E+03  0.12509000000E+03 0.  0.
<mgrwt>
<rscale>  2 0.45839742E+03</rscale>
<asrwt>0</asrwt>
<pdfrwt beam="1">  1       21 0.42735287E-01 0.45839742E+03</pdfrwt>
<pdfrwt beam="2">  1       21 0.26583973E-01 0.45839742E+03</pdfrwt>
<totfact> 0.65549470E+04</totfact>
</mgrwt>
</event>
<event>
 7    0  0.4748297E-002  0.4567318E+03  0.7546771E-02  0.1025733E+00
         21   -1    0    0  502  501  0.00000000000E+00  0.00000000000E+00  0.28996522927E+03  0.28996522927E+03  0.00000000000E+00 0.  1.
         21   -1    0    0  501  502 -0.00000000000E+00 -0.00000000000E+00 -0.17985253539E+03  0.17985253539E+03  0.00000000000E+00 0.  1.
      99926    2    1    2    0    0  0.00000000000E+00  0.71054273576E-14  0.11011269388E+03  0.46981776466E+03  0.45673178852E+03 0.  0.
      99925    2    3    3    0    0  0.70701307172E+02 -0.34844957424E+02  0.15511337556E+03  0.31526869367E+03  0.26290938370E+03 0.  0.
         25    1    3    3    0    0 -0.70701307172E+02  0.34844957424E+02 -0.45000681683E+02  0.15454907100E+03  0.12509000000E+03 0.  0.
         25    1    4    4    0    0  0.52852592903E+02  0.92224135025E+01  0.10674365276E+03  0.17297446341E+03  0.12509000000E+03 0.  0.
         25    1    4    4    0    0  0.17848714269E+02 -0.44067370926E+02  0.48369722804E+02  0.14229423026E+03  0.12509000000E+03 0.  0.
<mgrwt>
<rscale>  2 0.45673179E+03</rscale>
<asrwt>0</asrwt>
<pdfrwt beam="1">  1       21 0.42641946E-01 0.45673179E+03</pdfrwt>
<pdfrwt beam="2">  1       21 0.26448902E-01 0.45673179E+03</pdfrwt>
<totfact> 0.66530682E+04</totfact>
</mgrwt>
</event>
<event>
 7    0  0.4748297E-002  0.4592782E+03  0.7546771E-02  0.1024991E+00
         21   -1    0    0  502  501  0.00000000000E+00  0.00000000000E+00  0.66577349435E+03  0.66577349435E+03  0.00000000000E+00 0. -1.
         21   -1    0    0  501  502 -0.00000000000E+00 -0.00000000000E+00 -0.79207284324E+02  0.79207284324E+02  0.00000000000E+00 0. -1.
      99926    2    1    2    0    0  0.00000000000E+00  0.00000000000E+00  0.58656621003E+03  0.74498077868E+03  0.45927817480E+03 0.  0.
      99925    2    3    3    0    0 -0.99921856245E+02  0.49842914985E+02  0.42556944084E+03  0.51252398416E+03  0.26287409881E+03 0.  0.
         25    1    3    3    0    0  0.99921856245E+02 -0.49842914985E+02  0.16099676919E+03  0.23245679452E+03  0.12509000000E+03 0.  0.
         25    1    4    4    0    0 -0.33629563281E+02  0.53621718858E+02  0.17010057402E+03  0.22042674439E+03  0.12509000000E+03 0.  0.
         25    1    4    4    0    0 -0.66292292964E+02 -0.37788038729E+01  0.25546886682E+03  0.29209723977E+03  0.12509000000E+03 0.  0.
<mgrwt>
<rscale>  2 0.45927817E+03</rscale>
<asrwt>0</asrwt>
<pdfrwt beam="1">  1       21 0.97907864E-01 0.45927817E+03</pdfrwt>
<pdfrwt beam="2">  1       21 0.11648130E-01 0.45927817E+03</pdfrwt>
<totfact> 0.48863813E+04</totfact>
</mgrwt>
</event>
<event>
 7    0  0.4748297E-002  0.4549103E+03  0.7546771E-02  0.1026268E+00
         21   -1    0    0  502  501  0.00000000000E+00  0.00000000000E+00  0.55793677722E+02  0.55793677722E+02  0.00000000000E+00 0.  1.
         21   -1    0    0  501  502 -0.00000000000E+00 -0.00000000000E+00 -0.92727078899E+03  0.92727078899E+03  0.00000000000E+00 0.  1.
      99926    2    1    2    0    0  0.00000000000E+00  0.00000000000E+00 -0.87147711127E+03  0.98306446671E+03  0.45491031011E+03 0.  0.
      99925    2    3    3    0    0 -0.15966520122E+02 -0.88370699021E+02 -0.40054753153E+03  0.48759853712E+03  0.26315337387E+03 0.  0.
         25    1    4    4    0    0 -0.78802740521E+01 -0.15547315179E+02 -0.24056618261E+03  0.27170464487E+03  0.12509000000E+03 0.  0.
         25    1    3    3    0    0  0.15966520122E+02  0.88370699021E+02 -0.47092957974E+03  0.49546592959E+03  0.12509000000E+03 0.  0.
         25    1    4    4    0    0 -0.80862460701E+01 -0.72823383842E+02 -0.15998134891E+03  0.21589389225E+03  0.12509000000E+03 0.  0.
<mgrwt>
<rscale>  2 0.45491031E+03</rscale>
<asrwt>0</asrwt>
<pdfrwt beam="1">  1       21 0.82049536E-02 0.45491031E+03</pdfrwt>
<pdfrwt beam="2">  1       21 0.13636333E+00 0.45491031E+03</pdfrwt>
<totfact> 0.39857858E+04</totfact>
</mgrwt>
</event>
<event>
 7    0  0.4748297E-002  0.4396595E+03  0.7546771E-02  0.1030851E+00
         21   -1    0    0  502  501  0.00000000000E+00  0.00000000000E+00  0.36839054154E+02  0.36839054154E+02  0.00000000000E+00 0.  1.
         21   -1    0    0  501  502 -0.00000000000E+00 -0.00000000000E+00 -0.13117902466E+04  0.13117902466E+04  0.00000000000E+00 0.  1.
      99926    2    1    2    0    0  0.00000000000E+00 -0.71054273576E-14 -0.12749511925E+04  0.13486293008E+04  0.43965946793E+03 0.  0.
      99925    2    3    3    0    0  0.82439683530E+02 -0.33916095784E+02 -0.93957998447E+03  0.97975539519E+03  0.26298951348E+03 0.  0.
         25    1    3    3    0    0 -0.82439683530E+02  0.33916095784E+02 -0.33537120800E+03  0.36887390559E+03  0.12509000000E+03 0.  0.
         25    1    4    4    0    0  0.52857454805E+02 -0.53694264753E+02 -0.44415681331E+03  0.46754654047E+03  0.12509000000E+03 0.  0.
         25    1    4    4    0    0  0.29582228725E+02  0.19778168968E+02 -0.49542317117E+03  0.51220885472E+03  0.12509000000E+03 0.  0.
<mgrwt>
<rscale>  2 0.43965947E+03</rscale>
<asrwt>0</asrwt>
<pdfrwt beam="1">  1       21 0.54175087E-02 0.43965947E+03</pdfrwt>
<pdfrwt beam="2">  1       21 0.19291030E+00 0.43965947E+03</pdfrwt>
<totfact> 0.31303472E+04</totfact>
</mgrwt>
</event>
<event>
 7    0  0.4748297E-002  0.4683720E+03  0.7546771E-02  0.1022381E+00
         21   -1    0    0  502  501  0.00000000000E+00  0.00000000000E+00  0.18842978011E+03  0.18842978011E+03  0.00000000000E+00 0. -1.
         21   -1    0    0  501  502 -0.00000000000E+00 -0.00000000000E+00 -0.29105315869E+03  0.29105315869E+03  0.00000000000E+00 0. -1.
      99926    2    1    2    0    0 -0.71054273576E-14  0.35527136788E-14 -0.10262337858E+03  0.47948293880E+03  0.46837200041E+03 0.  0.
      99925    2    3    3    0    0  0.60836507981E+02 -0.22358747711E+02  0.46047394436E+02  0.27466228273E+03  0.26290304813E+03 0.  0.
         25    1    3    3    0    0 -0.60836507981E+02  0.22358747711E+02 -0.14867077302E+03  0.20482065607E+03  0.12509000000E+03 0.  0.
         25    1    4    4    0    0  0.45072054863E+02  0.20021475813E+02  0.17648761091E+01  0.13447294342E+03  0.12509000000E+03 0.  0.
         25    1    4    4    0    0  0.15764453117E+02 -0.42380223524E+02  0.44282518327E+02  0.14018933931E+03  0.12509000000E+03 0.  0.
<mgrwt>
<rscale>  2 0.46837200E+03</rscale>
<asrwt>0</asrwt>
<pdfrwt beam="1">  1       21 0.27710262E-01 0.46837200E+03</pdfrwt>
<pdfrwt beam="2">  1       21 0.42801934E-01 0.46837200E+03</pdfrwt>
<totfact> 0.60101595E+04</totfact>
</mgrwt>
</event>
<event>
 7    0  0.4748297E-002  0.4484882E+03  0.7546771E-02  0.1028174E+00
         21   -1    0    0  502  501  0.00000000000E+00  0.00000000000E+00  0.86542746362E+02  0.86542746362E+02  0.00000000000E+00 0.  1.
         21   -1    0    0  501  502 -0.00000000000E+00 -0.00000000000E+00 -0.58104709239E+03  0.58104709239E+03  0.00000000000E+00 0.  1.
      99926    2    1    2    0    0  0.00000000000E+00  0.00000000000E+00 -0.49450434603E+03  0.66758983876E+03  0.44848817662E+03 0.  0.
      99925    2    3    3    0    0  0.27589282172E+02  0.57543421580E+02 -0.44073341155E+03  0.51721951139E+03  0.26305449824E+03 0.  0.
         25    1    3    3    0    0 -0.27589282172E+02 -0.57543421580E+02 -0.53770934482E+02  0.15037032737E+03  0.12509000000E+03 0.  0.
         25    1    4    4    0    0  0.15285676461E+02  0.43925925426E+02 -0.29815226692E+03  0.32665795750E+03  0.12509000000E+03 0.  0.
         25    1    4    4    0    0  0.12303605711E+02  0.13617496154E+02 -0.14258114463E+03  0.19056155388E+03  0.12509000000E+03 0.  0.
<mgrwt>
<rscale>  2 0.44848818E+03</rscale>
<asrwt>0</asrwt>
<pdfrwt beam="1">  1       21 0.12726875E-01 0.44848818E+03</pdfrwt>
<pdfrwt beam="2">  1       21 0.85448100E-01 0.44848818E+03</pdfrwt>
<totfact> 0.57597386E+04</totfact>
</mgrwt>
</event>
<event>
 7    0  0.4748297E-002  0.4475776E+03  0.7546771E-02  0.1028447E+00
         21   -1    0    0  502  501  0.00000000000E+00  0.00000000000E+00  0.64101415131E+02  0.64101415131E+02  0.00000000000E+00 0. -1.
         21   -1    0    0  501  502 -0.00000000000E+00 -0.00000000000E+00 -0.78128438631E+03  0.78128438631E+03  0.00000000000E+00 0. -1.
      99926    2    1    2    0    0  0.00000000000E+00  0.00000000000E+00 -0.71718297118E+03  0.84538580144E+03  0.44757763475E+03 0.  0.
      99925    2    3    3    0    0  0.82867344381E+02  0.66237842066E+02 -0.45556312955E+03  0.53660287102E+03  0.26296468906E+03 0.  0.
         25    1    4    4    0    0  0.11085005245E+02  0.22458107216E+01 -0.19257785876E+03  0.22991663879E+03  0.12509000000E+03 0.  0.
         25    1    4    4    0    0  0.71782339136E+02  0.63992031344E+02 -0.26298527079E+03  0.30668623223E+03  0.12509000000E+03 0.  0.
         25    1    3    3    0    0 -0.82867344381E+02 -0.66237842066E+02 -0.26161984163E+03  0.30878293042E+03  0.12509000000E+03 0.  0.
<mgrwt>
<rscale>  2 0.44757763E+03</rscale>
<asrwt>0</asrwt>
<pdfrwt beam="1">  1       21 0.94266789E-02 0.44757763E+03</pdfrwt>
<pdfrwt beam="2">  1       21 0.11489476E+00 0.44757763E+03</pdfrwt>
<totfact> 0.48403969E+04</totfact>
</mgrwt>
</event>
<event>
 7    0  0.4748297E-002  0.4479348E+03  0.7546771E-02  0.1028340E+00
         21   -1    0    0  502  501  0.00000000000E+00  0.00000000000E+00  0.29838152005E+03  0.29838152005E+03  0.00000000000E+00 0.  1.
         21   -1    0    0  501  502 -0.00000000000E+00 -0.00000000000E+00 -0.16811163933E+03  0.16811163933E+03  0.00000000000E+00 0.  1.
      99926    2    1    2    0    0  0.00000000000E+00  0.53290705182E-14  0.13026988072E+03  0.46649315937E+03  0.44793484562E+03 0.  0.
      99925    2    3    3    0    0 -0.98660771146E+02 -0.71209932920E+01  0.41588650110E+02  0.28401980496E+03  0.26296953718E+03 0.  0.
         25    1    4    4    0    0 -0.47750053709E+02  0.35902005216E+02  0.11334017803E+02  0.13908626700E+03  0.12509000000E+03 0.  0.
         25    1    3    3    0    0  0.98660771146E+02  0.71209932920E+01  0.88681230607E+02  0.18247335441E+03  0.12509000000E+03 0.  0.
         25    1    4    4    0    0 -0.50910717437E+02 -0.43022998508E+02  0.30254632307E+02  0.14493353796E+03  0.12509000000E+03 0.  0.
<mgrwt>
<rscale>  2 0.44793485E+03</rscale>
<asrwt>0</asrwt>
<pdfrwt beam="1">  1       21 0.43879636E-01 0.44793485E+03</pdfrwt>
<pdfrwt beam="2">  1       21 0.24722300E-01 0.44793485E+03</pdfrwt>
<totfact> 0.71628984E+04</totfact>
</mgrwt>
</event>
<event>
 7    0  0.4748297E-002  0.4536109E+03  0.7546771E-02  0.1026651E+00
         21   -1    0    0  502  501  0.00000000000E+00  0.00000000000E+00  0.27523032758E+03  0.27523032758E+03  0.00000000000E+00 0.  1.
         21   -1    0    0  501  502 -0.00000000000E+00 -0.00000000000E+00 -0.18690055612E+03  0.18690055612E+03  0.00000000000E+00 0.  1.
      99926    2    1    2    0    0  0.00000000000E+00 -0.14210854715E-13  0.88329771458E+02  0.46213088370E+03  0.45361085210E+03 0.  0.
      99925    2    3    3    0    0  0.77020963676E+02  0.74990955679E+02  0.24175053210E+02  0.28515854616E+03  0.26301157954E+03 0.  0.
         25    1    4    4    0    0  0.35476035763E+02  0.66621844400E+02  0.41686902381E+02  0.15192868457E+03  0.12509000000E+03 0.  0.
         25    1    3    3    0    0 -0.77020963676E+02 -0.74990955679E+02  0.64154718247E+02  0.17697233753E+03  0.12509000000E+03 0.  0.
         25    1    4    4    0    0  0.41544927913E+02  0.83691112789E+01 -0.17511849171E+02  0.13322986159E+03  0.12509000000E+03 0.  0.
<mgrwt>
<rscale>  2 0.45361085E+03</rscale>
<asrwt>0</asrwt>
<pdfrwt beam="1">  1       21 0.40475048E-01 0.45361085E+03</pdfrwt>
<pdfrwt beam="2">  1       21 0.27485376E-01 0.45361085E+03</pdfrwt>
<totfact> 0.68780096E+04</totfact>
</mgrwt>
</event>
<event>
 7    0  0.4748297E-002  0.4559036E+03  0.7546771E-02  0.1025976E+00
         21   -1    0    0  502  501  0.00000000000E+00  0.00000000000E+00  0.87171594879E+03  0.87171594879E+03  0.00000000000E+00 0. -1.
         21   -1    0    0  501  502 -0.00000000000E+00 -0.00000000000E+00 -0.59608901080E+02  0.59608901080E+02  0.00000000000E+00 0. -1.
      99926    2    1    2    0    0  0.00000000000E+00  0.00000000000E+00  0.81210704771E+03  0.93132484987E+03  0.45590362912E+03 0.  0.
      99925    2    3    3    0    0  0.77097688061E+02 -0.68043698876E+02  0.61179035844E+03  0.67374324618E+03  0.26280890515E+03 0.  0.
         25    1    3    3    0    0 -0.77097688061E+02  0.68043698876E+02  0.20031668927E+03  0.25758160369E+03  0.12509000000E+03 0.  0.
         25    1    4    4    0    0  0.15342320160E+02 -0.80890885992E+01  0.22174156440E+03  0.25518160126E+03  0.12509000000E+03 0.  0.
         25    1    4    4    0    0  0.61755367900E+02 -0.59954610277E+02  0.39004879404E+03  0.41856164491E+03  0.12509000000E+03 0.  0.
<mgrwt>
<rscale>  2 0.45590363E+03</rscale>
<asrwt>0</asrwt>
<pdfrwt beam="1">  1       21 0.12819351E+00 0.45590363E+03</pdfrwt>
<pdfrwt beam="2">  1       21 0.87660154E-02 0.45590363E+03</pdfrwt>
<totfact> 0.41611561E+04</totfact>
</mgrwt>
</event>
<event>
 7    0  0.4748297E-002  0.4599788E+03  0.7546771E-02  0.1024787E+00
         21   -1    0    0  502  501  0.00000000000E+00  0.00000000000E+00  0.10888632121E+03  0.10888632121E+03  0.00000000000E+00 0. -1.
         21   -1    0    0  501  502 -0.00000000000E+00 -0.00000000000E+00 -0.48578295467E+03  0.48578295467E+03  0.00000000000E+00 0. -1.
      99926    2    1    2    0    0  0.00000000000E+00  0.00000000000E+00 -0.37689663345E+03  0.59466927588E+03  0.45997877708E+03 0.  0.
      99925    2    3    3    0    0 -0.97356048603E+02 -0.45519829363E+02 -0.17352963838E+03  0.33283746374E+03  0.26290299885E+03 0.  0.
         25    1    4    4    0    0 -0.45560205950E+02 -0.52887274097E+02 -0.12069701605E+03  0.18731810887E+03  0.12509000000E+03 0.  0.
         25    1    4    4    0    0 -0.51795842653E+02  0.73674447339E+01 -0.52832622325E+02  0.14551935486E+03  0.12509000000E+03 0.  0.
         25    1    3    3    0    0  0.97356048603E+02  0.45519829363E+02 -0.20336699508E+03  0.26183181215E+03  0.12509000000E+03 0.  0.
<mgrwt>
<rscale>  2 0.45997878E+03</rscale>
<asrwt>0</asrwt>
<pdfrwt beam="1">  1       21 0.16012694E-01 0.45997878E+03</pdfrwt>
<pdfrwt beam="2">  1       21 0.71438669E-01 0.45997878E+03</pdfrwt>
<totfact> 0.56741879E+04</totfact>
</mgrwt>
</event>
<event>
 7    0  0.4748297E-002  0.4489223E+03  0.7546771E-02  0.1028044E+00
         21   -1    0    0  502  501  0.00000000000E+00  0.00000000000E+00  0.13043123175E+03  0.13043123175E+03  0.00000000000E+00 0. -1.
         21   -1    0    0  501  502 -0.00000000000E+00 -0.00000000000E+00 -0.38627871131E+03  0.38627871131E+03  0.00000000000E+00 0. -1.
      99926    2    1    2    0    0  0.00000000000E+00 -0.88817841970E-15 -0.25584747956E+03  0.51670994306E+03  0.44892230114E+03 0.  0.
      99925    2    3    3    0    0 -0.10617576011E+03  0.59962669081E+01 -0.14484353844E+03  0.31852157232E+03  0.26299637670E+03 0.  0.
         25    1    4    4    0    0 -0.34327133390E+02 -0.10006992103E+02 -0.10720715391E+03  0.16858046722E+03  0.12509000000E+03 0.  0.
         25    1    4    4    0    0 -0.71848626715E+02  0.16003259011E+02 -0.37636384532E+02  0.14994110511E+03  0.12509000000E+03 0.  0.
         25    1    3    3    0    0  0.10617576011E+03 -0.59962669081E+01 -0.11100394112E+03  0.19818837073E+03  0.12509000000E+03 0.  0.
<mgrwt>
<rscale>  2 0.44892230E+03</rscale>
<asrwt>0</asrwt>
<pdfrwt beam="1">  1       21 0.19181063E-01 0.44892230E+03</pdfrwt>
<pdfrwt beam="2">  1       21 0.56805693E-01 0.44892230E+03</pdfrwt>
<totfact> 0.67298947E+04</totfact>
</mgrwt>
</event>
<event>
 7    0  0.4748297E-002  0.4555029E+03  0.7546771E-02  0.1026094E+00
         21   -1    0    0  502  501  0.00000000000E+00  0.00000000000E+00  0.20751311979E+03  0.20751311979E+03  0.00000000000E+00 0. -1.
         21   -1    0    0  501  502 -0.00000000000E+00 -0.00000000000E+00 -0.24996360493E+03  0.24996360493E+03  0.00000000000E+00 0. -1.
      99926    2    1    2    0    0 -0.35527136788E-14  0.00000000000E+00 -0.42450485146E+02  0.45747672472E+03  0.45550291982E+03 0.  0.
      99925    2    3    3    0    0 -0.26770740580E+02 -0.46969956918E+02 -0.12709323791E+03  0.29705617398E+03  0.26299587444E+03 0.  0.
         25    1    4    4    0    0 -0.45233882554E+01 -0.26604575896E+02 -0.10702956840E+03  0.16682655997E+03  0.12509000000E+03 0.  0.
         25    1    3    3    0    0  0.26770740580E+02  0.46969956918E+02  0.84642752764E+02  0.16042055074E+03  0.12509000000E+03 0.  0.
         25    1    4    4    0    0 -0.22247352325E+02 -0.20365381022E+02 -0.20063669507E+02  0.13022961400E+03  0.12509000000E+03 0.  0.
<mgrwt>
<rscale>  2 0.45550292E+03</rscale>
<asrwt>0</asrwt>
<pdfrwt beam="1">  1       21 0.30516635E-01 0.45550292E+03</pdfrwt>
<pdfrwt beam="2">  1       21 0.36759354E-01 0.45550292E+03</pdfrwt>
<totfact> 0.68091107E+04</totfact>
</mgrwt>
</event>
<event>
 7    0  0.4748297E-002  0.4534035E+03  0.7546771E-02  0.1026712E+00
         21   -1    0    0  502  501  0.00000000000E+00  0.00000000000E+00  0.83405702528E+03  0.83405702528E+03  0.00000000000E+00 0. -1.
         21   -1    0    0  501  502 -0.00000000000E+00 -0.00000000000E+00 -0.61618898226E+02  0.61618898226E+02  0.00000000000E+00 0. -1.
      99926    2    1    2    0    0  0.00000000000E+00  0.00000000000E+00  0.77243812705E+03  0.89567592350E+03  0.45340346252E+03 0.  0.
      99925    2    3    3    0    0  0.18793554995E+02 -0.91751428883E+02  0.36694203116E+03  0.46111164253E+03  0.26307027623E+03 0.  0.
         25    1    3    3    0    0 -0.18793554995E+02  0.91751428883E+02  0.40549609589E+03  0.43456428097E+03  0.12509000000E+03 0.  0.
         25    1    4    4    0    0  0.11219393956E+02 -0.86895260845E+02  0.18091536930E+03  0.23675840029E+03  0.12509000000E+03 0.  0.
         25    1    4    4    0    0  0.75741610387E+01 -0.48561680382E+01  0.18602666186E+03  0.22435324225E+03  0.12509000000E+03 0.  0.
<mgrwt>
<rscale>  2 0.45340346E+03</rscale>
<asrwt>0</asrwt>
<pdfrwt beam="1">  1       21 0.12265544E+00 0.45340346E+03</pdfrwt>
<pdfrwt beam="2">  1       21 0.90616032E-02 0.45340346E+03</pdfrwt>
<totfact> 0.43968237E+04</totfact>
</mgrwt>
</event>
<event>
 7    0  0.4748297E-002  0.4462871E+03  0.7546771E-02  0.1028835E+00
         21   -1    0    0  502  501  0.00000000000E+00  0.00000000000E+00  0.18909336628E+03  0.18909336628E+03  0.00000000000E+00 0. -1.
         21   -1    0    0  501  502 -0.00000000000E+00 -0.00000000000E+00 -0.26332519404E+03  0.26332519404E+03  0.00000000000E+00 0. -1.
      99926    2    1    2    0    0  0.00000000000E+00  0.00000000000E+00 -0.74231827764E+02  0.45241856032E+03  0.44628711551E+03 0.  0.
      99925    2    3    3    0    0 -0.22799613508E+02 -0.10171212545E+03 -0.36281518862E+02  0.28522731388E+03  0.26300778151E+03 0.  0.
         25    1    4    4    0    0 -0.21843466066E+02 -0.68913222816E+02 -0.54931079227E+02  0.15456746376E+03  0.12509000000E+03 0.  0.
         25    1    3    3    0    0  0.22799613508E+02  0.10171212545E+03 -0.37950308902E+02  0.16719124644E+03  0.12509000000E+03 0.  0.
         25    1    4    4    0    0 -0.95614744154E+00 -0.32798902637E+02  0.18649560365E+02  0.13065985012E+03  0.12509000000E+03 0.  0.
<mgrwt>
<rscale>  2 0.44628712E+03</rscale>
<asrwt>0</asrwt>
<pdfrwt beam="1">  1       21 0.27807848E-01 0.44628712E+03</pdfrwt>
<pdfrwt beam="2">  1       21 0.38724293E-01 0.44628712E+03</pdfrwt>
<totfact> 0.73727564E+04</totfact>
</mgrwt>
</event>
<event>
 7    0  0.4748297E-002  0.4555652E+03  0.7546771E-02  0.1026075E+00
         21   -1    0    0  502  501  0.00000000000E+00  0.00000000000E+00  0.21323640877E+03  0.21323640877E+03  0.00000000000E+00 0.  1.
         21   -1    0    0  501  502 -0.00000000000E+00 -0.00000000000E+00 -0.24332107232E+03  0.24332107232E+03  0.00000000000E+00 0.  1.
      99926    2    1    2    0    0  0.35527136788E-14  0.14210854715E-13 -0.30084663546E+02  0.45655748108E+03  0.45556519462E+03 0.  0.
      99925    2    3    3    0    0  0.28557865547E+02  0.10394617237E+03 -0.54823162065E+02  0.28958484906E+03  0.26312249481E+03 0.  0.
         25    1    3    3    0    0 -0.28557865547E+02 -0.10394617237E+03  0.24738498519E+02  0.16697263202E+03  0.12509000000E+03 0.  0.
         25    1    4    4    0    0  0.25545418431E+02  0.94545295862E+02 -0.30148771355E+02  0.16170293098E+03  0.12509000000E+03 0.  0.
         25    1    4    4    0    0  0.30124471165E+01  0.94008765066E+01 -0.24674390710E+02  0.12788191809E+03  0.12509000000E+03 0.  0.
<mgrwt>
<rscale>  2 0.45556519E+03</rscale>
<asrwt>0</asrwt>
<pdfrwt beam="1">  1       21 0.31358296E-01 0.45556519E+03</pdfrwt>
<pdfrwt beam="2">  1       21 0.35782510E-01 0.45556519E+03</pdfrwt>
<totfact> 0.68124150E+04</totfact>
</mgrwt>
</event>
<event>
 7    0  0.4748297E-002  0.4550294E+03  0.7546771E-02  0.1026233E+00
         21   -1    0    0  502  501  0.00000000000E+00  0.00000000000E+00  0.39271748618E+03  0.39271748618E+03  0.00000000000E+00 0.  1.
         21   -1    0    0  501  502 -0.00000000000E+00 -0.00000000000E+00 -0.13180709074E+03  0.13180709074E+03  0.00000000000E+00 0.  1.
      99926    2    1    2    0    0  0.00000000000E+00  0.00000000000E+00  0.26091039544E+03  0.52452457692E+03  0.45502944668E+03 0.  0.
      99925    2    3    3    0    0  0.48110806038E+01  0.57035109552E+02  0.27673184849E+03  0.38605444767E+03  0.26302351677E+03 0.  0.
         25    1    4    4    0    0  0.15484661046E+02  0.53500222503E+02  0.10142627703E+03  0.17040201380E+03  0.12509000000E+03 0.  0.
         25    1    3    3    0    0 -0.48110806038E+01 -0.57035109552E+02 -0.15821453052E+02  0.13847012925E+03  0.12509000000E+03 0.  0.
         25    1    4    4    0    0 -0.10673580442E+02  0.35348870485E+01  0.17530557147E+03  0.21565243387E+03  0.12509000000E+03 0.  0.
<mgrwt>
<rscale>  2 0.45502945E+03</rscale>
<asrwt>0</asrwt>
<pdfrwt beam="1">  1       21 0.57752572E-01 0.45502945E+03</pdfrwt>
<pdfrwt beam="2">  1       21 0.19383396E-01 0.45502945E+03</pdfrwt>
<totfact> 0.63563845E+04</totfact>
</mgrwt>
</event>
<event>
 7    0  0.4748297E-002  0.4524246E+03  0.7546771E-02  0.1027001E+00
         21   -1    0    0  502  501  0.00000000000E+00  0.00000000000E+00  0.28845675535E+03  0.28845675535E+03  0.00000000000E+00 0.  1.
         21   -1    0    0  501  502 -0.00000000000E+00 -0.00000000000E+00 -0.17739920633E+03  0.17739920633E+03  0.00000000000E+00 0.  1.
      99926    2    1    2    0    0 -0.35527136788E-14  0.71054273576E-14  0.11105754902E+03  0.46585596168E+03  0.45242457696E+03 0.  0.
      99925    2    3    3    0    0  0.24561025664E+02 -0.51193475529E+02  0.16794341865E+03  0.31716996307E+03  0.26299767620E+03 0.  0.
         25    1    4    4    0    0 -0.19971450960E+02 -0.82803881069E+01  0.58235349699E+02  0.13966491233E+03  0.12509000000E+03 0.  0.
         25    1    3    3    0    0 -0.24561025664E+02  0.51193475529E+02 -0.56885869631E+02  0.14868599861E+03  0.12509000000E+03 0.  0.
         25    1    4    4    0    0  0.44532476624E+02 -0.42913087423E+02  0.10970806895E+03  0.17750505074E+03  0.12509000000E+03 0.  0.
<mgrwt>
<rscale>  2 0.45242458E+03</rscale>
<asrwt>0</asrwt>
<pdfrwt beam="1">  1       21 0.42420111E-01 0.45242458E+03</pdfrwt>
<pdfrwt beam="2">  1       21 0.26088118E-01 0.45242458E+03</pdfrwt>
<totfact> 0.69147150E+04</totfact>
</mgrwt>
</event>
<event>
 7    0  0.4748297E-002  0.4527205E+03  0.7546771E-02  0.1026914E+00
         21   -1    0    0  502  501  0.00000000000E+00  0.00000000000E+00  0.50659925005E+02  0.50659925005E+02  0.00000000000E+00 0.  1.
         21   -1    0    0  501  502 -0.00000000000E+00 -0.00000000000E+00 -0.10114300054E+04  0.10114300054E+04  0.00000000000E+00 0.  1.
      99926    2    1    2    0    0  0.00000000000E+00  0.35527136788E-14 -0.96077008038E+03  0.10620899304E+04  0.45272052403E+03 0.  0.
      99925    2    3    3    0    0  0.10910404863E+03  0.18003739631E+02 -0.58247452947E+03  0.64858919277E+03  0.26298961089E+03 0.  0.
         25    1    4    4    0    0  0.49601020208E+02  0.24049425844E+02 -0.37417103248E+03  0.39835926716E+03  0.12509000000E+03 0.  0.
         25    1    4    4    0    0  0.59503028422E+02 -0.60456862135E+01 -0.20830349699E+03  0.25022992561E+03  0.12509000000E+03 0.  0.
         25    1    3    3    0    0 -0.10910404863E+03 -0.18003739631E+02 -0.37829555091E+03  0.41350073761E+03  0.12509000000E+03 0.  0.
<mgrwt>
<rscale>  2 0.45272052E+03</rscale>
<asrwt>0</asrwt>
<pdfrwt beam="1">  1       21 0.74499898E-02 0.45272052E+03</pdfrwt>
<pdfrwt beam="2">  1       21 0.14873969E+00 0.45272052E+03</pdfrwt>
<totfact> 0.37499554E+04</totfact>
</mgrwt>
</event>
<event>
 7    0  0.4748297E-002  0.4561117E+03  0.7546771E-02  0.1025915E+00
         21   -1    0    0  502  501  0.00000000000E+00  0.00000000000E+00  0.11218025666E+03  0.11218025666E+03  0.00000000000E+00 0. -1.
         21   -1    0    0  501  502 -0.00000000000E+00 -0.00000000000E+00 -0.46362417841E+03  0.46362417841E+03  0.00000000000E+00 0. -1.
      99926    2    1    2    0    0  0.00000000000E+00  0.35527136788E-14 -0.35144392174E+03  0.57580443507E+03  0.45611173775E+03 0.  0.
      99925    2    3    3    0    0  0.23168446289E+02  0.24762586337E+02 -0.83149239688E+02  0.27784553336E+03  0.26293417763E+03 0.  0.
         25    1    4    4    0    0 -0.37579816482E+01 -0.10722413027E+02 -0.71552130413E+02  0.14455555345E+03  0.12509000000E+03 0.  0.
         25    1    4    4    0    0  0.26926427937E+02  0.35484999364E+02 -0.11597109276E+02  0.13328997991E+03  0.12509000000E+03 0.  0.
         25    1    3    3    0    0 -0.23168446289E+02 -0.24762586337E+02 -0.26829468205E+03  0.29795890170E+03  0.12509000000E+03 0.  0.
<mgrwt>
<rscale>  2 0.45611174E+03</rscale>
<asrwt>0</asrwt>
<pdfrwt beam="1">  1       21 0.16497096E-01 0.45611174E+03</pdfrwt>
<pdfrwt beam="2">  1       21 0.68180027E-01 0.45611174E+03</pdfrwt>
<totfact> 0.59666637E+04</totfact>
</mgrwt>
</event>
<event>
 7    0  0.4748297E-002  0.4527650E+03  0.7546771E-02  0.1026901E+00
         21   -1    0    0  502  501  0.00000000000E+00  0.00000000000E+00  0.18675981021E+03  0.18675981021E+03  0.00000000000E+00 0.  1.
         21   -1    0    0  501  502 -0.00000000000E+00 -0.00000000000E+00 -0.27441151928E+03  0.27441151928E+03  0.00000000000E+00 0.  1.
      99926    2    1    2    0    0  0.00000000000E+00  0.17763568394E-14 -0.87651709067E+02  0.46117132950E+03  0.45276503072E+03 0.  0.
      99925    2    3    3    0    0 -0.11014371932E+03 -0.14852397074E+02 -0.52720276844E+02  0.29023290298E+03  0.26287540352E+03 0.  0.
         25    1    4    4    0    0 -0.45866829711E+02 -0.32668894859E+02 -0.56647523773E+02  0.14841655167E+03  0.12509000000E+03 0.  0.
         25    1    3    3    0    0  0.11014371932E+03  0.14852397074E+02 -0.34931432223E+02  0.17093842652E+03  0.12509000000E+03 0.  0.
         25    1    4    4    0    0 -0.64276889604E+02  0.17816497785E+02  0.39272469296E+01  0.14181635131E+03  0.12509000000E+03 0.  0.
<mgrwt>
<rscale>  2 0.45276503E+03</rscale>
<asrwt>0</asrwt>
<pdfrwt beam="1">  1       21 0.27464678E-01 0.45276503E+03</pdfrwt>
<pdfrwt beam="2">  1       21 0.40354635E-01 0.45276503E+03</pdfrwt>
<totfact> 0.69318730E+04</totfact>
</mgrwt>
</event>
<event>
 7    0  0.4748297E-002  0.4622401E+03  0.7546771E-02  0.1024134E+00
         21   -1    0    0  502  501  0.00000000000E+00  0.00000000000E+00  0.30529955652E+02  0.30529955652E+02  0.00000000000E+00 0.  1.
         21   -1    0    0  501  502 -0.00000000000E+00 -0.00000000000E+00 -0.17496417362E+04  0.17496417362E+04  0.00000000000E+00 0.  1.
      99926    2    1    2    0    0  0.00000000000E+00  0.00000000000E+00 -0.17191117805E+04  0.17801716918E+04  0.46224013072E+03 0.  0.
      99925    2    3    3    0    0 -0.10501819308E+02  0.32708433578E+02 -0.15164736112E+04  0.15395685630E+04  0.26343693144E+03 0.  0.
         25    1    4    4    0    0 -0.29743148080E+02  0.41630425867E+02 -0.65454450529E+03  0.66835152781E+03  0.12509000000E+03 0.  0.
         25    1    4    4    0    0  0.19241328772E+02 -0.89219922888E+01 -0.86192910594E+03  0.87121703521E+03  0.12509000000E+03 0.  0.
         25    1    3    3    0    0  0.10501819308E+02 -0.32708433578E+02 -0.20263816928E+03  0.24060312879E+03  0.12509000000E+03 0.  0.
<mgrwt>
<rscale>  2 0.46224013E+03</rscale>
<asrwt>0</asrwt>
<pdfrwt beam="1">  1       21 0.44896992E-02 0.46224013E+03</pdfrwt>
<pdfrwt beam="2">  1       21 0.25730027E+00 0.46224013E+03</pdfrwt>
<totfact> 0.16685795E+04</totfact>
</mgrwt>
</event>
<event>
 7    0  0.4748297E-002  0.4580431E+03  0.7546771E-02  0.1025350E+00
         21   -1    0    0  502  501  0.00000000000E+00  0.00000000000E+00  0.29219261256E+03  0.29219261256E+03  0.00000000000E+00 0.  1.
         21   -1    0    0  501  502 -0.00000000000E+00 -0.00000000000E+00 -0.17950787629E+03  0.17950787629E+03  0.00000000000E+00 0.  1.
      99926    2    1    2    0    0  0.14210854715E-13  0.00000000000E+00  0.11268473627E+03  0.47170048885E+03  0.45804312176E+03 0.  0.
      99925    2    3    3    0    0 -0.93380818853E+02 -0.26259391856E+02  0.50010058649E+01  0.28025120866E+03  0.26288057537E+03 0.  0.
         25    1    3    3    0    0  0.93380818853E+02  0.26259391856E+02  0.10768373041E+03  0.19144928019E+03  0.12509000000E+03 0.  0.
         25    1    4    4    0    0 -0.87462047102E+02 -0.22457686267E+01  0.23528151704E+00  0.15265063582E+03  0.12509000000E+03 0.  0.
         25    1    4    4    0    0 -0.59187717507E+01 -0.24013623229E+02  0.47657243479E+01  0.12760057284E+03  0.12509000000E+03 0.  0.
<mgrwt>
<rscale>  2 0.45804312E+03</rscale>
<asrwt>0</asrwt>
<pdfrwt beam="1">  1       21 0.42969502E-01 0.45804312E+03</pdfrwt>
<pdfrwt beam="2">  1       21 0.26398217E-01 0.45804312E+03</pdfrwt>
<totfact> 0.65708844E+04</totfact>
</mgrwt>
</event>
<event>
 7    0  0.4748297E-002  0.4524117E+03  0.7546771E-02  0.1027005E+00
         21   -1    0    0  502  501  0.00000000000E+00  0.00000000000E+00  0.11185444233E+03  0.11185444233E+03  0.00000000000E+00 0.  1.
         21   -1    0    0  501  502 -0.00000000000E+00 -0.00000000000E+00 -0.45746142152E+03  0.45746142152E+03  0.00000000000E+00 0.  1.
      99926    2    1    2    0    0  0.00000000000E+00  0.00000000000E+00 -0.34560697919E+03  0.56931586385E+03  0.45241172483E+03 0.  0.
      99925    2    3    3    0    0 -0.19337090144E+02 -0.58220151831E+02 -0.33422792327E+03  0.42952852483E+03  0.26272217230E+03 0.  0.
         25    1    4    4    0    0 -0.31535830114E+02 -0.59510284008E+02 -0.15092865100E+03  0.20727505464E+03  0.12509000000E+03 0.  0.
         25    1    4    4    0    0  0.12198739970E+02  0.12901321764E+01 -0.18329927227E+03  0.22225347020E+03  0.12509000000E+03 0.  0.
         25    1    3    3    0    0  0.19337090144E+02  0.58220151831E+02 -0.11379055920E+02  0.13978733901E+03  0.12509000000E+03 0.  0.
<mgrwt>
<rscale>  2 0.45241172E+03</rscale>
<asrwt>0</asrwt>
<pdfrwt beam="1">  1       21 0.16449182E-01 0.45241172E+03</pdfrwt>
<pdfrwt beam="2">  1       21 0.67273739E-01 0.45241172E+03</pdfrwt>
<totfact> 0.61864402E+04</totfact>
</mgrwt>
</event>
<event>
 7    0  0.4748297E-002  0.4538515E+03  0.7546771E-02  0.1026580E+00
         21   -1    0    0  502  501  0.00000000000E+00  0.00000000000E+00  0.19938987060E+03  0.19938987060E+03  0.00000000000E+00 0.  1.
         21   -1    0    0  501  502 -0.00000000000E+00 -0.00000000000E+00 -0.25826433505E+03  0.25826433505E+03  0.00000000000E+00 0.  1.
      99926    2    1    2    0    0  0.00000000000E+00  0.00000000000E+00 -0.58874464448E+02  0.45765420566E+03  0.45385148385E+03 0.  0.
      99925    2    3    3    0    0  0.55192821079E+02  0.93256450476E+02 -0.66095524704E+02  0.29199592827E+03  0.26296385814E+03 0.  0.
         25    1    4    4    0    0  0.60753285763E+02  0.36706679949E+02 -0.55620945947E+02  0.15420616010E+03  0.12509000000E+03 0.  0.
         25    1    4    4    0    0 -0.55604646843E+01  0.56549770527E+02 -0.10474578757E+02  0.13778976818E+03  0.12509000000E+03 0.  0.
         25    1    3    3    0    0 -0.55192821079E+02 -0.93256450476E+02  0.72210602559E+01  0.16565827738E+03  0.12509000000E+03 0.  0.
<mgrwt>
<rscale>  2 0.45385148E+03</rscale>
<asrwt>0</asrwt>
<pdfrwt beam="1">  1       21 0.29322040E-01 0.45385148E+03</pdfrwt>
<pdfrwt beam="2">  1       21 0.37980049E-01 0.45385148E+03</pdfrwt>
<totfact> 0.68981504E+04</totfact>
</mgrwt>
</event>
<event>
 7    0  0.4748297E-002  0.4557336E+03  0.7546771E-02  0.1026026E+00
         21   -1    0    0  502  501  0.00000000000E+00  0.00000000000E+00  0.73836641928E+03  0.73836641928E+03  0.00000000000E+00 0.  1.
         21   -1    0    0  501  502 -0.00000000000E+00 -0.00000000000E+00 -0.70321819123E+02  0.70321819123E+02  0.00000000000E+00 0.  1.
      99926    2    1    2    0    0  0.00000000000E+00  0.00000000000E+00  0.66804460015E+03  0.80868823840E+03  0.45573356156E+03 0.  0.
      99925    2    3    3    0    0  0.76394868100E+02  0.45969354940E+02  0.54572370274E+03  0.61232310018E+03  0.26301304495E+03 0.  0.
         25    1    4    4    0    0  0.47335795633E+01 -0.13657691579E+01  0.22384582180E+03  0.25647364804E+03  0.12509000000E+03 0.  0.
         25    1    3    3    0    0 -0.76394868100E+02 -0.45969354940E+02  0.12232089741E+03  0.19636513822E+03  0.12509000000E+03 0.  0.
         25    1    4    4    0    0  0.71661288536E+02  0.47335124098E+02  0.32187788095E+03  0.35584945214E+03  0.12509000000E+03 0.  0.
<mgrwt>
<rscale>  2 0.45573356E+03</rscale>
<asrwt>0</asrwt>
<pdfrwt beam="1">  1       21 0.10858329E+00 0.45573356E+03</pdfrwt>
<pdfrwt beam="2">  1       21 0.10341444E-01 0.45573356E+03</pdfrwt>
<totfact> 0.47075862E+04</totfact>
</mgrwt>
</event>
<event>
 7    0  0.4748297E-002  0.4554913E+03  0.7546771E-02  0.1026097E+00
         21   -1    0    0  502  501  0.00000000000E+00  0.00000000000E+00  0.10005745788E+03  0.10005745788E+03  0.00000000000E+00 0. -1.
         21   -1    0    0  501  502 -0.00000000000E+00 -0.00000000000E+00 -0.51838304198E+03  0.51838304198E+03  0.00000000000E+00 0. -1.
      99926    2    1    2    0    0  0.14210854715E-13  0.71054273576E-14 -0.41832558411E+03  0.61844049986E+03  0.45549133641E+03 0.  0.
      99925    2    3    3    0    0  0.80876188525E+02  0.43262986232E+02 -0.17197102156E+03  0.32732072651E+03  0.26296802448E+03 0.  0.
         25    1    4    4    0    0 -0.17332088433E+01  0.15659319734E+02 -0.77754008951E+02  0.14812633903E+03  0.12509000000E+03 0.  0.
         25    1    3    3    0    0 -0.80876188525E+02 -0.43262986232E+02 -0.24635456255E+03  0.29111977335E+03  0.12509000000E+03 0.  0.
         25    1    4    4    0    0  0.82609397368E+02  0.27603666499E+02 -0.94217012607E+02  0.17919438747E+03  0.12509000000E+03 0.  0.
<mgrwt>
<rscale>  2 0.45549134E+03</rscale>
<asrwt>0</asrwt>
<pdfrwt beam="1">  1       21 0.14714332E-01 0.45549134E+03</pdfrwt>
<pdfrwt beam="2">  1       21 0.76232800E-01 0.45549134E+03</pdfrwt>
<totfact> 0.57334542E+04</totfact>
</mgrwt>
</event>
<event>
 7    0  0.4748297E-002  0.4607037E+03  0.7546771E-02  0.1024577E+00
         21   -1    0    0  502  501  0.00000000000E+00  0.00000000000E+00  0.72900544849E+02  0.72900544849E+02  0.00000000000E+00 0.  1.
         21   -1    0    0  501  502 -0.00000000000E+00 -0.00000000000E+00 -0.72786810306E+03  0.72786810306E+03  0.00000000000E+00 0.  1.
      99926    2    1    2    0    0  0.00000000000E+00  0.71054273576E-14 -0.65496755821E+03  0.80076864791E+03  0.46070372819E+03 0.  0.
      99925    2    3    3    0    0 -0.73444723504E+02  0.62827699007E+02 -0.52914010875E+03  0.59872533000E+03  0.26294736911E+03 0.  0.
         25    1    3    3    0    0  0.73444723504E+02 -0.62827699007E+02 -0.12582744946E+03  0.20204331790E+03  0.12509000000E+03 0.  0.
         25    1    4    4    0    0 -0.22962033384E+02  0.68796317232E+02 -0.25522668347E+03  0.29334000119E+03  0.12509000000E+03 0.  0.
         25    1    4    4    0    0 -0.50482690120E+02 -0.59686182253E+01 -0.27391342528E+03  0.30538532882E+03  0.12509000000E+03 0.  0.
<mgrwt>
<rscale>  2 0.46070373E+03</rscale>
<asrwt>0</asrwt>
<pdfrwt beam="1">  1       21 0.10720668E-01 0.46070373E+03</pdfrwt>
<pdfrwt beam="2">  1       21 0.10703943E+00 0.46070373E+03</pdfrwt>
<totfact> 0.45649751E+04</totfact>
</mgrwt>
</event>
<event>
 7    0  0.4748297E-002  0.4363268E+03  0.7546771E-02  0.1031880E+00
         21   -1    0    0  502  501  0.00000000000E+00  0.00000000000E+00  0.11097141242E+03  0.11097141242E+03  0.00000000000E+00 0. -1.
         21   -1    0    0  501  502 -0.00000000000E+00 -0.00000000000E+00 -0.42889665790E+03  0.42889665790E+03  0.00000000000E+00 0. -1.
      99926    2    1    2    0    0  0.00000000000E+00  0.71054273576E-14 -0.31792524548E+03  0.53986807032E+03  0.43632679454E+03 0.  0.
      99925    2    3    3    0    0 -0.27950568210E+02  0.54581994042E+02 -0.29276692198E+03  0.39830226344E+03  0.26300531195E+03 0.  0.
         25    1    3    3    0    0  0.27950568210E+02 -0.54581994042E+02 -0.25158323497E+02  0.14156580688E+03  0.12509000000E+03 0.  0.
         25    1    4    4    0    0 -0.64399451669E+00  0.34822605972E+02 -0.91136792910E+02  0.15863937638E+03  0.12509000000E+03 0.  0.
         25    1    4    4    0    0 -0.27306573693E+02  0.19759388070E+02 -0.20163012907E+03  0.23966288706E+03  0.12509000000E+03 0.  0.
<mgrwt>
<rscale>  2 0.43632679E+03</rscale>
<asrwt>0</asrwt>
<pdfrwt beam="1">  1       21 0.16319325E-01 0.43632679E+03</pdfrwt>
<pdfrwt beam="2">  1       21 0.63073038E-01 0.43632679E+03</pdfrwt>
<totfact> 0.72703910E+04</totfact>
</mgrwt>
</event>
<event>
 7    0  0.4748297E-002  0.4328124E+03  0.7546771E-02  0.1032975E+00
         21   -1    0    0  502  501  0.00000000000E+00  0.00000000000E+00  0.10488560279E+03  0.10488560279E+03  0.00000000000E+00 0. -1.
         21   -1    0    0  501  502 -0.00000000000E+00 -0.00000000000E+00 -0.44650220848E+03  0.44650220848E+03  0.00000000000E+00 0. -1.
      99926    2    1    2    0    0  0.71054273576E-14 -0.71054273576E-14 -0.34161660569E+03  0.55138781127E+03  0.43281244568E+03 0.  0.
      99925    2    3    3    0    0 -0.50644525154E+02  0.49424511375E+02 -0.14714803186E+03  0.30957551927E+03  0.26301484483E+03 0.  0.
         25    1    4    4    0    0 -0.38746535525E+02 -0.97057952836E+01 -0.51995459566E+02  0.14123219319E+03  0.12509000000E+03 0.  0.
         25    1    3    3    0    0  0.50644525154E+02 -0.49424511375E+02 -0.19446857383E+03  0.24181229200E+03  0.12509000000E+03 0.  0.
         25    1    4    4    0    0 -0.11897989629E+02  0.59130306659E+02 -0.95152572297E+02  0.16834332609E+03  0.12509000000E+03 0.  0.
<mgrwt>
<rscale>  2 0.43281245E+03</rscale>
<asrwt>0</asrwt>
<pdfrwt beam="1">  1       21 0.15424353E-01 0.43281245E+03</pdfrwt>
<pdfrwt beam="2">  1       21 0.65662090E-01 0.43281245E+03</pdfrwt>
<totfact> 0.73920980E+04</totfact>
</mgrwt>
</event>
<event>
 7    0  0.4748297E-002  0.4568522E+03  0.7546771E-02  0.1025698E+00
         21   -1    0    0  502  501  0.00000000000E+00  0.00000000000E+00  0.10932244428E+03  0.10932244428E+03  0.00000000000E+00 0.  1.
         21   -1    0    0  501  502 -0.00000000000E+00 -0.00000000000E+00 -0.47728972462E+03  0.47728972462E+03  0.00000000000E+00 0.  1.
      99926    2    1    2    0    0  0.35527136788E-14  0.00000000000E+00 -0.36796728034E+03  0.58661216890E+03  0.45685218321E+03 0.  0.
      99925    2    3    3    0    0 -0.17768518666E+02 -0.62853687040E+02 -0.10977078083E+03  0.29236865293E+03  0.26298954098E+03 0.  0.
         25    1    4    4    0    0  0.22250233393E+02 -0.33094519066E+02 -0.26205031617E+02  0.13388253008E+03  0.12509000000E+03 0.  0.
         25    1    3    3    0    0  0.17768518666E+02  0.62853687040E+02 -0.25819649951E+03  0.29424351597E+03  0.12509000000E+03 0.  0.
         25    1    4    4    0    0 -0.40018752060E+02 -0.29759167973E+02 -0.83565749215E+02  0.15848612285E+03  0.12509000000E+03 0.  0.
<mgrwt>
<rscale>  2 0.45685218E+03</rscale>
<asrwt>0</asrwt>
<pdfrwt beam="1">  1       21 0.16076830E-01 0.45685218E+03</pdfrwt>
<pdfrwt beam="2">  1       21 0.70189666E-01 0.45685218E+03</pdfrwt>
<totfact> 0.58646652E+04</totfact>
</mgrwt>
</event>
<event>
 7    0  0.4748297E-002  0.4529500E+03  0.7546771E-02  0.1026846E+00
         21   -1    0    0  502  501  0.00000000000E+00  0.00000000000E+00  0.67863937541E+02  0.67863937541E+02  0.00000000000E+00 0.  1.
         21   -1    0    0  501  502 -0.00000000000E+00 -0.00000000000E+00 -0.75579069638E+03  0.75579069638E+03  0.00000000000E+00 0.  1.
      99926    2    1    2    0    0  0.71054273576E-14 -0.14210854715E-13 -0.68792675884E+03  0.82365463392E+03  0.45295003085E+03 0.  0.
      99925    2    3    3    0    0  0.53788725595E+02 -0.94912449412E+02 -0.47193881463E+03  0.55125804767E+03  0.26316836876E+03 0.  0.
         25    1    4    4    0    0  0.59216791714E+02 -0.25068795981E+02 -0.21228105357E+03  0.25464843758E+03  0.12509000000E+03 0.  0.
         25    1    3    3    0    0 -0.53788725595E+02  0.94912449412E+02 -0.21598794421E+03  0.27239658624E+03  0.12509000000E+03 0.  0.
         25    1    4    4    0    0 -0.54280661189E+01 -0.69843653431E+02 -0.25965776105E+03  0.29660961010E+03  0.12509000000E+03 0.  0.
<mgrwt>
<rscale>  2 0.45295003E+03</rscale>
<asrwt>0</asrwt>
<pdfrwt beam="1">  1       21 0.99799909E-02 0.45295003E+03</pdfrwt>
<pdfrwt beam="2">  1       21 0.11114569E+00 0.45295003E+03</pdfrwt>
<totfact> 0.47399694E+04</totfact>
</mgrwt>
</event>
<event>
 7    0  0.4748297E-002  0.4547904E+03  0.7546771E-02  0.1026303E+00
         21   -1    0    0  502  501  0.00000000000E+00  0.00000000000E+00  0.10423542284E+04  0.10423542284E+04  0.00000000000E+00 0.  1.
         21   -1    0    0  501  502 -0.00000000000E+00 -0.00000000000E+00 -0.49607482574E+02  0.49607482574E+02  0.00000000000E+00 0.  1.
      99926    2    1    2    0    0  0.35527136788E-14  0.00000000000E+00  0.99274674583E+03  0.10919617110E+04  0.45479036587E+03 0.  0.
      99925    2    3    3    0    0 -0.22382613515E+02  0.11080396920E+03  0.61761209751E+03  0.68068076874E+03  0.26287469442E+03 0.  0.
         25    1    4    4    0    0  0.13768252394E+02  0.86879862677E+02  0.35687360777E+03  0.38825758890E+03  0.12509000000E+03 0.  0.
         25    1    4    4    0    0 -0.36150865909E+02  0.23924106519E+02  0.26073848974E+03  0.29242317984E+03  0.12509000000E+03 0.  0.
         25    1    3    3    0    0  0.22382613515E+02 -0.11080396920E+03  0.37513464832E+03  0.41128094224E+03  0.12509000000E+03 0.  0.
<mgrwt>
<rscale>  2 0.45479037E+03</rscale>
<asrwt>0</asrwt>
<pdfrwt beam="1">  1       21 0.15328737E+00 0.45479037E+03</pdfrwt>
<pdfrwt beam="2">  1       21 0.72952187E-02 0.45479037E+03</pdfrwt>
<totfact> 0.35832813E+04</totfact>
</mgrwt>
</event>
<event>
 7    0  0.4748297E-002  0.4593559E+03  0.7546771E-02  0.1024968E+00
         21   -1    0    0  502  501  0.00000000000E+00  0.00000000000E+00  0.90770415098E+02  0.90770415098E+02  0.00000000000E+00 0.  1.
         21   -1    0    0  501  502 -0.00000000000E+00 -0.00000000000E+00 -0.58115796122E+03  0.58115796122E+03  0.00000000000E+00 0.  1.
      99926    2    1    2    0    0  0.88817841970E-15 -0.14210854715E-13 -0.49038754613E+03  0.67192837632E+03  0.45935585063E+03 0.  0.
      99925    2    3    3    0    0 -0.69093323766E+01 -0.11627502682E+03 -0.32245698183E+03  0.43231242681E+03  0.26333991059E+03 0.  0.
         25    1    3    3    0    0  0.69093323766E+01  0.11627502682E+03 -0.16793056430E+03  0.23961594951E+03  0.12509000000E+03 0.  0.
         25    1    4    4    0    0  0.95496614342E+01 -0.60605954094E+02 -0.10356367939E+03  0.17360075315E+03  0.12509000000E+03 0.  0.
         25    1    4    4    0    0 -0.16458993811E+02 -0.55669072723E+02 -0.21889330244E+03  0.25871167366E+03  0.12509000000E+03 0.  0.
<mgrwt>
<rscale>  2 0.45935585E+03</rscale>
<asrwt>0</asrwt>
<pdfrwt beam="1">  1       21 0.13348590E-01 0.45935585E+03</pdfrwt>
<pdfrwt beam="2">  1       21 0.85464406E-01 0.45935585E+03</pdfrwt>
<totfact> 0.52623599E+04</totfact>
</mgrwt>
</event>
<event>
 7    0  0.4748297E-002  0.4592124E+03  0.7546771E-02  0.1025010E+00
         21   -1    0    0  502  501  0.00000000000E+00  0.00000000000E+00  0.32216285382E+03  0.32216285382E+03  0.00000000000E+00 0.  1.
         21   -1    0    0  501  502 -0.00000000000E+00 -0.00000000000E+00 -0.16364087185E+03  0.16364087185E+03  0.00000000000E+00 0.  1.
      99926    2    1    2    0    0 -0.14210854715E-13  0.00000000000E+00  0.15852198198E+03  0.48580372567E+03  0.45921241393E+03 0.  0.
      99925    2    3    3    0    0 -0.66109683551E+02 -0.65000327117E+02  0.17501972162E+03  0.32923036811E+03  0.26299277470E+03 0.  0.
         25    1    4    4    0    0 -0.72199304869E+02 -0.20634637107E+02  0.95879656636E+02  0.17458219992E+03  0.12509000000E+03 0.  0.
         25    1    4    4    0    0  0.60896213186E+01 -0.44365690010E+02  0.79140064985E+02  0.15464816819E+03  0.12509000000E+03 0.  0.
         25    1    3    3    0    0  0.66109683551E+02  0.65000327117E+02 -0.16497739644E+02  0.15657335756E+03  0.12509000000E+03 0.  0.
<mgrwt>
<rscale>  2 0.45921241E+03</rscale>
<asrwt>0</asrwt>
<pdfrwt beam="1">  1       21 0.47376890E-01 0.45921241E+03</pdfrwt>
<pdfrwt beam="2">  1       21 0.24064834E-01 0.45921241E+03</pdfrwt>
<totfact> 0.64109304E+04</totfact>
</mgrwt>
</event>
<event>
 7    0  0.4748297E-002  0.4507555E+03  0.7546771E-02  0.1027497E+00
         21   -1    0    0  502  501  0.00000000000E+00  0.00000000000E+00  0.19331804431E+04  0.19331804431E+04  0.00000000000E+00 0. -1.
         21   -1    0    0  501  502 -0.00000000000E+00 -0.00000000000E+00 -0.26275425097E+02  0.26275425097E+02  0.00000000000E+00 0. -1.
      99926    2    1    2    0    0  0.00000000000E+00  0.00000000000E+00  0.19069050180E+04  0.19594558682E+04  0.45075553432E+03 0.  0.
      99925    2    3    3    0    0 -0.85975085005E+02  0.66639179578E+02  0.12451249994E+04  0.12772295153E+04  0.26295717344E+03 0.  0.
         25    1    4    4    0    0 -0.81105964044E+02  0.23096920250E+02  0.72009959142E+03  0.73573267890E+03  0.12509000000E+03 0.  0.
         25    1    3    3    0    0  0.85975085005E+02 -0.66639179578E+02  0.66178001858E+03  0.68222635290E+03  0.12509000000E+03 0.  0.
         25    1    4    4    0    0 -0.48691209605E+01  0.43542259329E+02  0.52502540796E+03  0.54149683636E+03  0.12509000000E+03 0.  0.
<mgrwt>
<rscale>  2 0.45075553E+03</rscale>
<asrwt>0</asrwt>
<pdfrwt beam="1">  1       21 0.28429115E+00 0.45075553E+03</pdfrwt>
<pdfrwt beam="2">  1       21 0.38640344E-02 0.45075553E+03</pdfrwt>
<totfact> 0.14867089E+04</totfact>
</mgrwt>
</event>
<event>
 7    0  0.4748297E-002  0.4963320E+03  0.7546771E-02  0.1014741E+00
         21   -1    0    0  502  501  0.00000000000E+00  0.00000000000E+00  0.69597394971E+02  0.69597394971E+02  0.00000000000E+00 0. -1.
         21   -1    0    0  501  502 -0.00000000000E+00 -0.00000000000E+00 -0.88489465978E+03  0.88489465978E+03  0.00000000000E+00 0. -1.
      99926    2    1    2    0    0  0.00000000000E+00  0.00000000000E+00 -0.81529726480E+03  0.95449205475E+03  0.49633199834E+03 0.  0.
      99925    2    3    3    0    0 -0.81371837575E+02  0.30627960647E+02 -0.26449158091E+03  0.38300814646E+03  0.26302090403E+03 0.  0.
         25    1    4    4    0    0 -0.77295999963E+02 -0.40562961823E+01 -0.13703810435E+03  0.20104247136E+03  0.12509000000E+03 0.  0.
         25    1    4    4    0    0 -0.40758376124E+01  0.34684256829E+02 -0.12745347657E+03  0.18196567509E+03  0.12509000000E+03 0.  0.
         25    1    3    3    0    0  0.81371837575E+02 -0.30627960647E+02 -0.55080568389E+03  0.57148390829E+03  0.12509000000E+03 0.  0.
<mgrwt>
<rscale>  2 0.49633200E+03</rscale>
<asrwt>0</asrwt>
<pdfrwt beam="1">  1       21 0.10234910E-01 0.49633200E+03</pdfrwt>
<pdfrwt beam="2">  1       21 0.13013158E+00 0.49633200E+03</pdfrwt>
<totfact> 0.30012477E+04</totfact>
</mgrwt>
</event>
<event>
 7    0  0.4748297E-002  0.4566106E+03  0.7546771E-02  0.1025769E+00
         21   -1    0    0  502  501  0.00000000000E+00  0.00000000000E+00  0.24524291462E+03  0.24524291462E+03  0.00000000000E+00 0. -1.
         21   -1    0    0  501  502 -0.00000000000E+00 -0.00000000000E+00 -0.21253743252E+03  0.21253743252E+03  0.00000000000E+00 0. -1.
      99926    2    1    2    0    0  0.00000000000E+00  0.00000000000E+00  0.32705482104E+02  0.45778034714E+03  0.45661055361E+03 0.  0.
      99925    2    3    3    0    0 -0.63097893152E+02 -0.77582203835E+02 -0.35823751517E+02  0.28358474894E+03  0.26293844562E+03 0.  0.
         25    1    4    4    0    0 -0.69910175905E+02 -0.53513267011E+02 -0.30035353120E+02  0.15588692369E+03  0.12509000000E+03 0.  0.
         25    1    3    3    0    0  0.63097893152E+02  0.77582203835E+02  0.68529233621E+02  0.17419559820E+03  0.12509000000E+03 0.  0.
         25    1    4    4    0    0  0.68122827538E+01 -0.24068936824E+02 -0.57883983968E+01  0.12769782524E+03  0.12509000000E+03 0.  0.
<mgrwt>
<rscale>  2 0.45661055E+03</rscale>
<asrwt>0</asrwt>
<pdfrwt beam="1">  1       21 0.36065135E-01 0.45661055E+03</pdfrwt>
<pdfrwt beam="2">  1       21 0.31255504E-01 0.45661055E+03</pdfrwt>
<totfact> 0.67471422E+04</totfact>
</mgrwt>
</event>
<event>
 7    0  0.4748297E-002  0.4455841E+03  0.7546771E-02  0.1029047E+00
         21   -1    0    0  502  501  0.00000000000E+00  0.00000000000E+00  0.53322788278E+03  0.53322788278E+03  0.00000000000E+00 0.  1.
         21   -1    0    0  501  502 -0.00000000000E+00 -0.00000000000E+00 -0.93086454100E+02  0.93086454100E+02  0.00000000000E+00 0.  1.
      99926    2    1    2    0    0 -0.71054273576E-14 -0.35527136788E-14  0.44014142868E+03  0.62631433688E+03  0.44558407887E+03 0.  0.
      99925    2    3    3    0    0 -0.62817387073E+02 -0.26920319127E+02  0.16920841306E+03  0.32017231959E+03  0.26307432311E+03 0.  0.
         25    1    4    4    0    0 -0.20806331156E+02  0.64614518095E+01  0.12205270891E+03  0.17612218948E+03  0.12509000000E+03 0.  0.
         25    1    4    4    0    0 -0.42011055917E+02 -0.33381770937E+02  0.47155704159E+02  0.14405013011E+03  0.12509000000E+03 0.  0.
         25    1    3    3    0    0  0.62817387073E+02  0.26920319127E+02  0.27093301562E+03  0.30614201729E+03  0.12509000000E+03 0.  0.
<mgrwt>
<rscale>  2 0.44558408E+03</rscale>
<asrwt>0</asrwt>
<pdfrwt beam="1">  1       21 0.78415864E-01 0.44558408E+03</pdfrwt>
<pdfrwt beam="2">  1       21 0.13689185E-01 0.44558408E+03</pdfrwt>
<totfact> 0.61535246E+04</totfact>
</mgrwt>
</event>
<event>
 7    0  0.4748297E-002  0.4585273E+03  0.7546771E-02  0.1025209E+00
         21   -1    0    0  502  501  0.00000000000E+00  0.00000000000E+00  0.35496084930E+03  0.35496084930E+03  0.00000000000E+00 0. -1.
         21   -1    0    0  501  502 -0.00000000000E+00 -0.00000000000E+00 -0.14807782319E+03  0.14807782319E+03  0.00000000000E+00 0. -1.
      99926    2    1    2    0    0  0.14210854715E-13  0.00000000000E+00  0.20688302610E+03  0.50303867249E+03  0.45852733782E+03 0.  0.
      99925    2    3    3    0    0  0.84538294270E+02  0.58537863970E+02  0.18970723017E+03  0.34020157358E+03  0.26301116472E+03 0.  0.
         25    1    3    3    0    0 -0.84538294270E+02 -0.58537863970E+02  0.17175795929E+02  0.16283709891E+03  0.12509000000E+03 0.  0.
         25    1    4    4    0    0  0.52625679671E+02  0.62764232535E+02  0.12901598066E+03  0.19748782852E+03  0.12509000000E+03 0.  0.
         25    1    4    4    0    0  0.31912614599E+02 -0.42263685649E+01  0.60691249513E+02  0.14271374506E+03  0.12509000000E+03 0.  0.
<mgrwt>
<rscale>  2 0.45852734E+03</rscale>
<asrwt>0</asrwt>
<pdfrwt beam="1">  1       21 0.52200125E-01 0.45852734E+03</pdfrwt>
<pdfrwt beam="2">  1       21 0.21776150E-01 0.45852734E+03</pdfrwt>
<totfact> 0.63267592E+04</totfact>
</mgrwt>
</event>
<event>
 7    0  0.4748297E-002  0.4416085E+03  0.7546771E-02  0.1030254E+00
         21   -1    0    0  502  501  0.00000000000E+00  0.00000000000E+00  0.34657237870E+03  0.34657237870E+03  0.00000000000E+00 0.  1.
         21   -1    0    0  501  502 -0.00000000000E+00 -0.00000000000E+00 -0.14067626771E+03  0.14067626771E+03  0.00000000000E+00 0.  1.
      99926    2    1    2    0    0  0.00000000000E+00  0.22204460493E-15  0.20589611098E+03  0.48724864641E+03  0.44160846336E+03 0.  0.
      99925    2    3    3    0    0  0.85496406172E+02  0.97126514866E+00  0.74027463153E+02  0.28638195628E+03  0.26310450539E+03 0.  0.
         25    1    4    4    0    0  0.23811697369E+02  0.25448310479E+02  0.78881077289E+01  0.13009359624E+03  0.12509000000E+03 0.  0.
         25    1    3    3    0    0 -0.85496406172E+02 -0.97126514866E+00  0.13186864783E+03  0.20086669013E+03  0.12509000000E+03 0.  0.
         25    1    4    4    0    0  0.61684708802E+02 -0.24477045330E+02  0.66139355424E+02  0.15628836004E+03  0.12509000000E+03 0.  0.
<mgrwt>
<rscale>  2 0.44160846E+03</rscale>
<asrwt>0</asrwt>
<pdfrwt beam="1">  1       21 0.50966526E-01 0.44160846E+03</pdfrwt>
<pdfrwt beam="2">  1       21 0.20687686E-01 0.44160846E+03</pdfrwt>
<totfact> 0.73705465E+04</totfact>
</mgrwt>
</event>
<event>
 7    0  0.4748297E-002  0.4625907E+03  0.7546771E-02  0.1024033E+00
         21   -1    0    0  502  501  0.00000000000E+00  0.00000000000E+00  0.91342785707E+02  0.91342785707E+02  0.00000000000E+00 0.  1.
         21   -1    0    0  501  502 -0.00000000000E+00 -0.00000000000E+00 -0.58567873992E+03  0.58567873992E+03  0.00000000000E+00 0.  1.
      99926    2    1    2    0    0  0.17763568394E-14 -0.14210854715E-13 -0.49433595421E+03  0.67702152563E+03  0.46259065115E+03 0.  0.
      99925    2    3    3    0    0  0.63010963625E+01 -0.10103572556E+03 -0.21371481951E+03  0.35353481647E+03  0.26280205617E+03 0.  0.
         25    1    4    4    0    0  0.42451726757E+02 -0.50408680351E+02 -0.96635514734E+02  0.17125745230E+03  0.12509000000E+03 0.  0.
         25    1    4    4    0    0 -0.36150630395E+02 -0.50627045213E+02 -0.11707930477E+03  0.18227736418E+03  0.12509000000E+03 0.  0.
         25    1    3    3    0    0 -0.63010963625E+01  0.10103572556E+03 -0.28062113471E+03  0.32348670915E+03  0.12509000000E+03 0.  0.
<mgrwt>
<rscale>  2 0.46259065E+03</rscale>
<asrwt>0</asrwt>
<pdfrwt beam="1">  1       21 0.13432763E-01 0.46259065E+03</pdfrwt>
<pdfrwt beam="2">  1       21 0.86129224E-01 0.46259065E+03</pdfrwt>
<totfact> 0.51045739E+04</totfact>
</mgrwt>
</event>
<event>
 7    0  0.4748297E-002  0.4536912E+03  0.7546771E-02  0.1026627E+00
         21   -1    0    0  502  501  0.00000000000E+00  0.00000000000E+00  0.85566441764E+02  0.85566441764E+02  0.00000000000E+00 0.  1.
         21   -1    0    0  501  502 -0.00000000000E+00 -0.00000000000E+00 -0.60139144496E+03  0.60139144496E+03  0.00000000000E+00 0.  1.
      99926    2    1    2    0    0  0.00000000000E+00  0.00000000000E+00 -0.51582500319E+03  0.68695788672E+03  0.45369119918E+03 0.  0.
      99925    2    3    3    0    0  0.10178022665E+03 -0.40836295688E+02 -0.29121476962E+03  0.40745103044E+03  0.26302753198E+03 0.  0.
         25    1    4    4    0    0  0.68108711643E+02 -0.45656920903E+02 -0.19628672631E+03  0.24677791241E+03  0.12509000000E+03 0.  0.
         25    1    4    4    0    0  0.33671515010E+02  0.48206252149E+01 -0.94928043313E+02  0.16067311803E+03  0.12509000000E+03 0.  0.
         25    1    3    3    0    0 -0.10178022665E+03  0.40836295688E+02 -0.22461023357E+03  0.27950685628E+03  0.12509000000E+03 0.  0.
<mgrwt>
<rscale>  2 0.45369120E+03</rscale>
<asrwt>0</asrwt>
<pdfrwt beam="1">  1       21 0.12583301E-01 0.45369120E+03</pdfrwt>
<pdfrwt beam="2">  1       21 0.88439916E-01 0.45369120E+03</pdfrwt>
<totfact> 0.54172997E+04</totfact>
</mgrwt>
</event>
<event>
 7    0  0.4748297E-002  0.4516037E+03  0.7546771E-02  0.1027245E+00
         21   -1    0    0  502  501  0.00000000000E+00  0.00000000000E+00  0.50339455702E+03  0.50339455702E+03  0.00000000000E+00 0. -1.
         21   -1    0    0  501  502 -0.00000000000E+00 -0.00000000000E+00 -0.10128532434E+03  0.10128532434E+03  0.00000000000E+00 0. -1.
      99926    2    1    2    0    0  0.00000000000E+00  0.00000000000E+00  0.40210923268E+03  0.60467988136E+03  0.45160372443E+03 0.  0.
      99925    2    3    3    0    0  0.98533472401E+02  0.44973401222E+02  0.22805420803E+03  0.36452553160E+03  0.26294236895E+03 0.  0.
         25    1    4    4    0    0  0.72941267661E+02  0.10531332194E+02  0.15908576963E+03  0.21537671110E+03  0.12509000000E+03 0.  0.
         25    1    3    3    0    0 -0.98533472401E+02 -0.44973401222E+02  0.17405502465E+03  0.24015434975E+03  0.12509000000E+03 0.  0.
         25    1    4    4    0    0  0.25592204739E+02  0.34442069028E+02  0.68968438396E+02  0.14914882050E+03  0.12509000000E+03 0.  0.
<mgrwt>
<rscale>  2 0.45160372E+03</rscale>
<asrwt>0</asrwt>
<pdfrwt beam="1">  1       21 0.74028610E-01 0.45160372E+03</pdfrwt>
<pdfrwt beam="2">  1       21 0.14894901E-01 0.45160372E+03</pdfrwt>
<totfact> 0.59984427E+04</totfact>
</mgrwt>
</event>
<event>
 7    0  0.4748297E-002  0.4403505E+03  0.7546771E-02  0.1030639E+00
         21   -1    0    0  502  501  0.00000000000E+00  0.00000000000E+00  0.18060315941E+03  0.18060315941E+03  0.00000000000E+00 0. -1.
         21   -1    0    0  501  502 -0.00000000000E+00 -0.00000000000E+00 -0.26841795508E+03  0.26841795508E+03  0.00000000000E+00 0. -1.
      99926    2    1    2    0    0  0.14210854715E-13  0.00000000000E+00 -0.87814795672E+02  0.44902111448E+03  0.44035045465E+03 0.  0.
      99925    2    3    3    0    0 -0.90563265843E+02  0.38861563954E+02 -0.47185610607E+02  0.28467341887E+03  0.26286982956E+03 0.  0.
         25    1    3    3    0    0  0.90563265843E+02 -0.38861563954E+02 -0.40629185065E+02  0.16434769561E+03  0.12509000000E+03 0.  0.
         25    1    4    4    0    0 -0.49856257677E+02  0.54724007625E+02 -0.43420622841E+01  0.14541913576E+03  0.12509000000E+03 0.  0.
         25    1    4    4    0    0 -0.40707008166E+02 -0.15862443671E+02 -0.42843548323E+02  0.13925428312E+03  0.12509000000E+03 0.  0.
<mgrwt>
<rscale>  2 0.44035045E+03</rscale>
<asrwt>0</asrwt>
<pdfrwt beam="1">  1       21 0.26559288E-01 0.44035045E+03</pdfrwt>
<pdfrwt beam="2">  1       21 0.39473228E-01 0.44035045E+03</pdfrwt>
<totfact> 0.77668772E+04</totfact>
</mgrwt>
</event>
<event>
 6    0  0.4748297E-002  0.4538633E+03  0.7546771E-02  0.1026576E+00
         21   -1    0    0  502  501  0.00000000000E+00  0.00000000000E+00  0.11307147513E+03  0.11307147513E+03  0.00000000000E+00 0.  1.
         21   -1    0    0  501  502 -0.00000000000E+00 -0.00000000000E+00 -0.45544623421E+03  0.45544623421E+03  0.00000000000E+00 0.  1.
      99926    2    1    2    0    0 -0.71054273576E-14 -0.14210854715E-13 -0.34237475908E+03  0.56851770933E+03  0.45386331661E+03 0.  0.
         25    1    3    3    0    0 -0.58744543075E+02  0.93427986338E+02 -0.12204182249E+03  0.20669161693E+03  0.12509000000E+03 0.  0.
         25    1    3    3    0    0  0.21626281541E+02 -0.23428573192E+02 -0.56259239642E+02  0.14081620731E+03  0.12509000000E+03 0.  0.
         25    1    3    3    0    0  0.37118261534E+02 -0.69999413146E+02 -0.16407369695E+03  0.22100988509E+03  0.12509000000E+03 0.  0.
<mgrwt>
<rscale>  2 0.45386332E+03</rscale>
<asrwt>0</asrwt>
<pdfrwt beam="1">  1       21 0.16628158E-01 0.45386332E+03</pdfrwt>
<pdfrwt beam="2">  1       21 0.66977387E-01 0.45386332E+03</pdfrwt>
<totfact> 0.61207520E+04</totfact>
</mgrwt>
</event>
<event>
 7    0  0.4748297E-002  0.4531933E+03  0.7546771E-02  0.1026774E+00
         21   -1    0    0  502  501  0.00000000000E+00  0.00000000000E+00  0.34254131208E+03  0.34254131208E+03  0.00000000000E+00 0. -1.
         21   -1    0    0  501  502 -0.00000000000E+00 -0.00000000000E+00 -0.14989738163E+03  0.14989738163E+03  0.00000000000E+00 0. -1.
      99926    2    1    2    0    0  0.00000000000E+00 -0.14210854715E-13  0.19264393045E+03  0.49243869371E+03  0.45319331761E+03 0.  0.
      99925    2    3    3    0    0 -0.27113936312E+02  0.10830786419E+03  0.11556675319E+03  0.30790100558E+03  0.26264347661E+03 0.  0.
         25    1    4    4    0    0 -0.45646123648E+02  0.55792323816E+02  0.85229353641E+02  0.16765411663E+03  0.12509000000E+03 0.  0.
         25    1    3    3    0    0  0.27113936312E+02 -0.10830786419E+03  0.77077177255E+02  0.18453768813E+03  0.12509000000E+03 0.  0.
         25    1    4    4    0    0  0.18532187336E+02  0.52515540377E+02  0.30337399553E+02  0.14024688895E+03  0.12509000000E+03 0.  0.
<mgrwt>
<rscale>  2 0.45319332E+03</rscale>
<asrwt>0</asrwt>
<pdfrwt beam="1">  1       21 0.50373722E-01 0.45319332E+03</pdfrwt>
<pdfrwt beam="2">  1       21 0.22043733E-01 0.45319332E+03</pdfrwt>
<totfact> 0.66757542E+04</totfact>
</mgrwt>
</event>
<event>
 7    0  0.4748297E-002  0.4374578E+03  0.7546771E-02  0.1031530E+00
         21   -1    0    0  502  501  0.00000000000E+00  0.00000000000E+00  0.73239127710E+03  0.73239127710E+03  0.00000000000E+00 0. -1.
         21   -1    0    0  501  502 -0.00000000000E+00 -0.00000000000E+00 -0.65323464536E+02  0.65323464536E+02  0.00000000000E+00 0. -1.
      99926    2    1    2    0    0  0.00000000000E+00  0.00000000000E+00  0.66706781257E+03  0.79771474164E+03  0.43745781793E+03 0.  0.
      99925    2    3    3    0    0  0.59266091566E+02 -0.70291706322E+02  0.37751808392E+03  0.46917258750E+03  0.26296315253E+03 0.  0.
         25    1    4    4    0    0  0.26242365972E+01 -0.64698131199E+02  0.20173066575E+03  0.24603963990E+03  0.12509000000E+03 0.  0.
         25    1    3    3    0    0 -0.59266091566E+02  0.70291706322E+02  0.28954972865E+03  0.32854215414E+03  0.12509000000E+03 0.  0.
         25    1    4    4    0    0  0.56641854969E+02 -0.55935751228E+01  0.17578741817E+03  0.22313294760E+03  0.12509000000E+03 0.  0.
<mgrwt>
<rscale>  2 0.43745782E+03</rscale>
<asrwt>0</asrwt>
<pdfrwt beam="1">  1       21 0.10770459E+00 0.43745782E+03</pdfrwt>
<pdfrwt beam="2">  1       21 0.96063923E-02 0.43745782E+03</pdfrwt>
<totfact> 0.55075442E+04</totfact>
</mgrwt>
</event>
<event>
 7    0  0.4748297E-002  0.4515840E+03  0.7546771E-02  0.1027251E+00
         21   -1    0    0  502  501  0.00000000000E+00  0.00000000000E+00  0.47824982167E+02  0.47824982167E+02  0.00000000000E+00 0.  1.
         21   -1    0    0  501  502 -0.00000000000E+00 -0.00000000000E+00 -0.10660125682E+04  0.10660125682E+04  0.00000000000E+00 0.  1.
      99926    2    1    2    0    0  0.71054273576E-14  0.00000000000E+00 -0.10181875860E+04  0.11138375504E+04  0.45158402126E+03 0.  0.
      99925    2    3    3    0    0  0.50945826253E+02  0.38760120720E+02 -0.42271110290E+03  0.50200622211E+03  0.26311166138E+03 0.  0.
         25    1    3    3    0    0 -0.50945826253E+02 -0.38760120720E+02 -0.59547648314E+03  0.61183132827E+03  0.12509000000E+03 0.  0.
         25    1    4    4    0    0  0.38519225777E+02  0.13358916543E+02 -0.28456926585E+03  0.31351134999E+03  0.12509000000E+03 0.  0.
         25    1    4    4    0    0  0.12426600475E+02  0.25401204177E+02 -0.13814183705E+03  0.18849487213E+03  0.12509000000E+03 0.  0.
<mgrwt>
<rscale>  2 0.45158402E+03</rscale>
<asrwt>0</asrwt>
<pdfrwt beam="1">  1       21 0.70330865E-02 0.45158402E+03</pdfrwt>
<pdfrwt beam="2">  1       21 0.15676653E+00 0.45158402E+03</pdfrwt>
<totfact> 0.35961163E+04</totfact>
</mgrwt>
</event>
<event>
 7    0  0.4748297E-002  0.4490343E+03  0.7546771E-02  0.1028010E+00
         21   -1    0    0  502  501  0.00000000000E+00  0.00000000000E+00  0.12914780844E+03  0.12914780844E+03  0.00000000000E+00 0.  1.
         21   -1    0    0  501  502 -0.00000000000E+00 -0.00000000000E+00 -0.39031200384E+03  0.39031200384E+03  0.00000000000E+00 0.  1.
      99926    2    1    2    0    0 -0.17763568394E-14 -0.14210854715E-13 -0.26116419540E+03  0.51945981227E+03  0.44903425215E+03 0.  0.
      99925    2    3    3    0    0  0.55758815326E+01  0.10426707766E+03 -0.19347861412E+03  0.34301843404E+03  0.26329633122E+03 0.  0.
         25    1    3    3    0    0 -0.55758815326E+01 -0.10426707766E+03 -0.67685581284E+02  0.17644137823E+03  0.12509000000E+03 0.  0.
         25    1    4    4    0    0  0.26621896006E+02  0.79491883788E+02 -0.13042423397E+03  0.19921263475E+03  0.12509000000E+03 0.  0.
         25    1    4    4    0    0 -0.21046014473E+02  0.24775193867E+02 -0.63054380143E+02  0.14380579930E+03  0.12509000000E+03 0.  0.
<mgrwt>
<rscale>  2 0.44903425E+03</rscale>
<asrwt>0</asrwt>
<pdfrwt beam="1">  1       21 0.18992325E-01 0.44903425E+03</pdfrwt>
<pdfrwt beam="2">  1       21 0.57398823E-01 0.44903425E+03</pdfrwt>
<totfact> 0.67040651E+04</totfact>
</mgrwt>
</event>
<event>
 7    0  0.4748297E-002  0.4536109E+03  0.7546771E-02  0.1026651E+00
         21   -1    0    0  502  501  0.00000000000E+00  0.00000000000E+00  0.80368812348E+03  0.80368812348E+03  0.00000000000E+00 0.  1.
         21   -1    0    0  501  502 -0.00000000000E+00 -0.00000000000E+00 -0.64005803227E+02  0.64005803227E+02  0.00000000000E+00 0.  1.
      99926    2    1    2    0    0  0.00000000000E+00  0.00000000000E+00  0.73968232026E+03  0.86769392671E+03  0.45361086357E+03 0.  0.
      99925    2    3    3    0    0  0.71661097339E+02  0.73484064361E+02  0.55111958663E+03  0.61922132621E+03  0.26299625754E+03 0.  0.
         25    1    4    4    0    0  0.73588505122E+01  0.62540777436E+02  0.30301502442E+03  0.33381299352E+03  0.12509000000E+03 0.  0.
         25    1    3    3    0    0 -0.71661097339E+02 -0.73484064361E+02  0.18856273362E+03  0.24847260050E+03  0.12509000000E+03 0.  0.
         25    1    4    4    0    0  0.64302246826E+02  0.10943286925E+02  0.24810456222E+03  0.28540833269E+03  0.12509000000E+03 0.  0.
<mgrwt>
<rscale>  2 0.45361086E+03</rscale>
<asrwt>0</asrwt>
<pdfrwt beam="1">  1       21 0.11818942E+00 0.45361086E+03</pdfrwt>
<pdfrwt beam="2">  1       21 0.94126186E-02 0.45361086E+03</pdfrwt>
<totfact> 0.45147667E+04</totfact>
</mgrwt>
</event>
<event>
 7    0  0.4748297E-002  0.4499921E+03  0.7546771E-02  0.1027724E+00
         21   -1    0    0  502  501  0.00000000000E+00  0.00000000000E+00  0.81684006635E+03  0.81684006635E+03  0.00000000000E+00 0. -1.
         21   -1    0    0  501  502 -0.00000000000E+00 -0.00000000000E+00 -0.61974473444E+02  0.61974473444E+02  0.00000000000E+00 0. -1.
      99926    2    1    2    0    0  0.14210854715E-13  0.00000000000E+00  0.75486559290E+03  0.87881453979E+03  0.44999214660E+03 0.  0.
      99925    2    3    3    0    0  0.10112690093E+03  0.27983841369E+02  0.42457537315E+03  0.51037338732E+03  0.26307223633E+03 0.  0.
         25    1    4    4    0    0  0.81462694635E+02  0.14615334649E+02  0.28058870079E+03  0.31816238894E+03  0.12509000000E+03 0.  0.
         25    1    4    4    0    0  0.19664206297E+02  0.13368506721E+02  0.14398667236E+03  0.19221099838E+03  0.12509000000E+03 0.  0.
         25    1    3    3    0    0 -0.10112690093E+03 -0.27983841369E+02  0.33029021976E+03  0.36844115248E+03  0.12509000000E+03 0.  0.
<mgrwt>
<rscale>  2 0.44999215E+03</rscale>
<asrwt>0</asrwt>
<pdfrwt beam="1">  1       21 0.12012353E+00 0.44999215E+03</pdfrwt>
<pdfrwt beam="2">  1       21 0.91138936E-02 0.44999215E+03</pdfrwt>
<totfact> 0.45937809E+04</totfact>
</mgrwt>
</event>
<event>
 7    0  0.4748297E-002  0.4556946E+03  0.7546771E-02  0.1026037E+00
         21   -1    0    0  502  501  0.00000000000E+00  0.00000000000E+00  0.66820262965E+02  0.66820262965E+02  0.00000000000E+00 0.  1.
         21   -1    0    0  501  502 -0.00000000000E+00 -0.00000000000E+00 -0.77692594112E+03  0.77692594112E+03  0.00000000000E+00 0.  1.
      99926    2    1    2    0    0 -0.14210854715E-13  0.00000000000E+00 -0.71010567815E+03  0.84374620408E+03  0.45569461568E+03 0.  0.
      99925    2    3    3    0    0  0.77031390018E+02 -0.13071107461E+02 -0.59989985872E+03  0.65963341355E+03  0.26292909860E+03 0.  0.
         25    1    3    3    0    0 -0.77031390018E+02  0.13071107461E+02 -0.11020581943E+03  0.18411279053E+03  0.12509000000E+03 0.  0.
         25    1    4    4    0    0  0.77736654739E+01  0.13206565969E+02 -0.32663984168E+03  0.35010846538E+03  0.12509000000E+03 0.  0.
         25    1    4    4    0    0  0.69257724545E+02 -0.26277673431E+02 -0.27326001704E+03  0.30952494818E+03  0.12509000000E+03 0.  0.
<mgrwt>
<rscale>  2 0.45569462E+03</rscale>
<asrwt>0</asrwt>
<pdfrwt beam="1">  1       21 0.98265095E-02 0.45569462E+03</pdfrwt>
<pdfrwt beam="2">  1       21 0.11425381E+00 0.45569462E+03</pdfrwt>
<totfact> 0.45472142E+04</totfact>
</mgrwt>
</event>
<event>
 7    0  0.4748297E-002  0.4547889E+03  0.7546771E-02  0.1026304E+00
         21   -1    0    0  502  501  0.00000000000E+00  0.00000000000E+00  0.88883828631E+02  0.88883828631E+02  0.00000000000E+00 0. -1.
         21   -1    0    0  501  502 -0.00000000000E+00 -0.00000000000E+00 -0.58175071632E+03  0.58175071632E+03  0.00000000000E+00 0. -1.
      99926    2    1    2    0    0  0.00000000000E+00  0.00000000000E+00 -0.49286688769E+03  0.67063454495E+03  0.45478887838E+03 0.  0.
      99925    2    3    3    0    0 -0.26944676090E+02  0.10979876084E+03 -0.30754102283E+03  0.42008521301E+03  0.26288461730E+03 0.  0.
         25    1    4    4    0    0 -0.19473087892E+02  0.65548867180E+02 -0.10188044531E+03  0.17522268226E+03  0.12509000000E+03 0.  0.
         25    1    3    3    0    0  0.26944676090E+02 -0.10979876084E+03 -0.18532586486E+03  0.25054933194E+03  0.12509000000E+03 0.  0.
         25    1    4    4    0    0 -0.74715881972E+01  0.44249893663E+02 -0.20566057752E+03  0.24486253075E+03  0.12509000000E+03 0.  0.
<mgrwt>
<rscale>  2 0.45478888E+03</rscale>
<asrwt>0</asrwt>
<pdfrwt beam="1">  1       21 0.13071151E-01 0.45478888E+03</pdfrwt>
<pdfrwt beam="2">  1       21 0.85551577E-01 0.45478888E+03</pdfrwt>
<totfact> 0.54617445E+04</totfact>
</mgrwt>
</event>
<event>
 7    0  0.4748297E-002  0.4530662E+03  0.7546771E-02  0.1026812E+00
         21   -1    0    0  502  501  0.00000000000E+00  0.00000000000E+00  0.14950291490E+03  0.14950291490E+03  0.00000000000E+00 0.  1.
         21   -1    0    0  501  502 -0.00000000000E+00 -0.00000000000E+00 -0.34325248254E+03  0.34325248254E+03  0.00000000000E+00 0.  1.
      99926    2    1    2    0    0  0.71054273576E-14  0.14210854715E-13 -0.19374956764E+03  0.49275539744E+03  0.45306620570E+03 0.  0.
      99925    2    3    3    0    0 -0.50675134430E+02  0.70808835377E+02 -0.19744232624E+03  0.34029882991E+03  0.26313107196E+03 0.  0.
         25    1    4    4    0    0 -0.34171779540E+02 -0.17187209394E+01 -0.11320530850E+03  0.17214416775E+03  0.12509000000E+03 0.  0.
         25    1    4    4    0    0 -0.16503354890E+02  0.72527556316E+02 -0.84237017741E+02  0.16815466216E+03  0.12509000000E+03 0.  0.
         25    1    3    3    0    0  0.50675134430E+02 -0.70808835377E+02  0.36927585994E+01  0.15245656753E+03  0.12509000000E+03 0.  0.
<mgrwt>
<rscale>  2 0.45306621E+03</rscale>
<asrwt>0</asrwt>
<pdfrwt beam="1">  1       21 0.21985723E-01 0.45306621E+03</pdfrwt>
<pdfrwt beam="2">  1       21 0.50478305E-01 0.45306621E+03</pdfrwt>
<totfact> 0.66802317E+04</totfact>
</mgrwt>
</event>
<event>
 6    0  0.4748297E-002  0.4536918E+03  0.7546771E-02  0.1026627E+00
         21   -1    0    0  502  501  0.00000000000E+00  0.00000000000E+00  0.97013124605E+02  0.97013124605E+02  0.00000000000E+00 0. -1.
         21   -1    0    0  501  502 -0.00000000000E+00 -0.00000000000E+00 -0.53043411456E+03  0.53043411456E+03  0.00000000000E+00 0. -1.
      99926    2    1    2    0    0  0.00000000000E+00  0.00000000000E+00 -0.43342098995E+03  0.62744723916E+03  0.45369183748E+03 0.  0.
         25    1    3    3    0    0  0.26837901345E+02 -0.49516312565E+02 -0.18344304204E+03  0.22906548393E+03  0.12509000000E+03 0.  0.
         25    1    3    3    0    0 -0.22243390021E+02  0.10320052744E+03 -0.18641565801E+03  0.24807946895E+03  0.12509000000E+03 0.  0.
         25    1    3    3    0    0 -0.45945113241E+01 -0.53684214876E+02 -0.63562289902E+02  0.15030228627E+03  0.12509000000E+03 0.  0.
<mgrwt>
<rscale>  2 0.45369184E+03</rscale>
<asrwt>0</asrwt>
<pdfrwt beam="1">  1       21 0.14266636E-01 0.45369184E+03</pdfrwt>
<pdfrwt beam="2">  1       21 0.78005016E-01 0.45369184E+03</pdfrwt>
<totfact> 0.57612529E+04</totfact>
</mgrwt>
</event>
<event>
 7    0  0.4748297E-002  0.4534880E+03  0.7546771E-02  0.1026687E+00
         21   -1    0    0  502  501  0.00000000000E+00  0.00000000000E+00  0.58697624362E+03  0.58697624362E+03  0.00000000000E+00 0. -1.
         21   -1    0    0  501  502 -0.00000000000E+00 -0.00000000000E+00 -0.87589324580E+02  0.87589324580E+02  0.00000000000E+00 0. -1.
      99926    2    1    2    0    0  0.00000000000E+00  0.71054273576E-14  0.49938691904E+03  0.67456556820E+03  0.45348804934E+03 0.  0.
      99925    2    3    3    0    0  0.22374081645E+02 -0.44854373800E+02  0.16580966607E+03  0.31479646700E+03  0.26285253641E+03 0.  0.
         25    1    4    4    0    0  0.11739443307E+02 -0.18814910242E+02  0.12979568547E+03  0.18162115362E+03  0.12509000000E+03 0.  0.
         25    1    3    3    0    0 -0.22374081645E+02  0.44854373800E+02  0.33357725297E+03  0.35976910120E+03  0.12509000000E+03 0.  0.
         25    1    4    4    0    0  0.10634638338E+02 -0.26039463558E+02  0.36013980599E+02  0.13317531338E+03  0.12509000000E+03 0.  0.
<mgrwt>
<rscale>  2 0.45348805E+03</rscale>
<asrwt>0</asrwt>
<pdfrwt beam="1">  1       21 0.86320034E-01 0.45348805E+03</pdfrwt>
<pdfrwt beam="2">  1       21 0.12880783E-01 0.45348805E+03</pdfrwt>
<totfact> 0.54957952E+04</totfact>
</mgrwt>
</event>
<event>
 7    0  0.4748297E-002  0.4521855E+03  0.7546771E-02  0.1027072E+00
         21   -1    0    0  502  501  0.00000000000E+00  0.00000000000E+00  0.37048891279E+03  0.37048891279E+03  0.00000000000E+00 0.  1.
         21   -1    0    0  501  502 -0.00000000000E+00 -0.00000000000E+00 -0.13797427669E+03  0.13797427669E+03  0.00000000000E+00 0.  1.
      99926    2    1    2    0    0 -0.71054273576E-14 -0.13877787808E-14  0.23251463610E+03  0.50846318948E+03  0.45218553610E+03 0.  0.
      99925    2    3    3    0    0 -0.35952996525E+02  0.35028186403E+00  0.29128406676E+02  0.26699640693E+03  0.26295603546E+03 0.  0.
         25    1    4    4    0    0 -0.47008288791E+02 -0.19129342391E+02 -0.60783851393E+01  0.13513018102E+03  0.12509000000E+03 0.  0.
         25    1    3    3    0    0  0.35952996525E+02 -0.35028186403E+00  0.20338622942E+03  0.24146678255E+03  0.12509000000E+03 0.  0.
         25    1    4    4    0    0  0.11055292267E+02  0.19479624255E+02  0.35206791815E+02  0.13186622592E+03  0.12509000000E+03 0.  0.
<mgrwt>
<rscale>  2 0.45218554E+03</rscale>
<asrwt>0</asrwt>
<pdfrwt beam="1">  1       21 0.54483664E-01 0.45218554E+03</pdfrwt>
<pdfrwt beam="2">  1       21 0.20290335E-01 0.45218554E+03</pdfrwt>
<totfact> 0.66145233E+04</totfact>
</mgrwt>
</event>
<event>
 7    0  0.4748297E-002  0.4396966E+03  0.7546771E-02  0.1030840E+00
         21   -1    0    0  502  501  0.00000000000E+00  0.00000000000E+00  0.12685850783E+03  0.12685850783E+03  0.00000000000E+00 0.  1.
         21   -1    0    0  501  502 -0.00000000000E+00 -0.00000000000E+00 -0.38100139642E+03  0.38100139642E+03  0.00000000000E+00 0.  1.
      99926    2    1    2    0    0  0.17763568394E-14  0.00000000000E+00 -0.25414288858E+03  0.50785990425E+03  0.43969657098E+03 0.  0.
      99925    2    3    3    0    0 -0.10039507476E+02 -0.89539735655E+02 -0.20733154196E+03  0.34674824656E+03  0.26292550700E+03 0.  0.
         25    1    4    4    0    0 -0.29709618638E+02 -0.40469308967E+02 -0.14288963459E+03  0.19643162215E+03  0.12509000000E+03 0.  0.
         25    1    3    3    0    0  0.10039507476E+02  0.89539735655E+02 -0.46811346622E+02  0.16111165769E+03  0.12509000000E+03 0.  0.
         25    1    4    4    0    0  0.19670111162E+02 -0.49070426688E+02 -0.64441907374E+02  0.15031662441E+03  0.12509000000E+03 0.  0.
<mgrwt>
<rscale>  2 0.43969657E+03</rscale>
<asrwt>0</asrwt>
<pdfrwt beam="1">  1       21 0.18655663E-01 0.43969657E+03</pdfrwt>
<pdfrwt beam="2">  1       21 0.56029616E-01 0.43969657E+03</pdfrwt>
<totfact> 0.73216028E+04</totfact>
</mgrwt>
</event>
<event>
 7    0  0.4748297E-002  0.4435801E+03  0.7546771E-02  0.1029654E+00
         21   -1    0    0  502  501  0.00000000000E+00  0.00000000000E+00  0.43757566720E+03  0.43757566720E+03  0.00000000000E+00 0. -1.
         21   -1    0    0  501  502 -0.00000000000E+00 -0.00000000000E+00 -0.11241671972E+03  0.11241671972E+03  0.00000000000E+00 0. -1.
      99926    2    1    2    0    0  0.00000000000E+00  0.00000000000E+00  0.32515894747E+03  0.54999238692E+03  0.44358007682E+03 0.  0.
      99925    2    3    3    0    0 -0.12530995381E+02 -0.10080544045E+03  0.19455790937E+03  0.34257275929E+03  0.26302956610E+03 0.  0.
         25    1    4    4    0    0  0.32082393879E+02 -0.59142277099E+02  0.85886276926E+02  0.16598508849E+03  0.12509000000E+03 0.  0.
         25    1    4    4    0    0 -0.44613389260E+02 -0.41663163353E+02  0.10867163244E+03  0.17658767080E+03  0.12509000000E+03 0.  0.
         25    1    3    3    0    0  0.12530995381E+02  0.10080544045E+03  0.13060103810E+03  0.20741962762E+03  0.12509000000E+03 0.  0.
<mgrwt>
<rscale>  2 0.44358008E+03</rscale>
<asrwt>0</asrwt>
<pdfrwt beam="1">  1       21 0.64349362E-01 0.44358008E+03</pdfrwt>
<pdfrwt beam="2">  1       21 0.16531871E-01 0.44358008E+03</pdfrwt>
<totfact> 0.67787232E+04</totfact>
</mgrwt>
</event>
<event>
 7    0  0.4748297E-002  0.4564635E+03  0.7546771E-02  0.1025812E+00
         21   -1    0    0  502  501  0.00000000000E+00  0.00000000000E+00  0.35502958989E+03  0.35502958989E+03  0.00000000000E+00 0. -1.
         21   -1    0    0  501  502 -0.00000000000E+00 -0.00000000000E+00 -0.14671941326E+03  0.14671941326E+03  0.00000000000E+00 0. -1.
      99926    2    1    2    0    0  0.00000000000E+00  0.00000000000E+00  0.20831017663E+03  0.50174900315E+03  0.45646350618E+03 0.  0.
      99925    2    3    3    0    0 -0.53877452984E+02 -0.74120990398E+02  0.55455026552E+02  0.28401313986E+03  0.26304277691E+03 0.  0.
         25    1    4    4    0    0 -0.25057948199E+02 -0.21706323856E+02 -0.11727637391E+02  0.12993887348E+03  0.12509000000E+03 0.  0.
         25    1    3    3    0    0  0.53877452984E+02  0.74120990398E+02  0.15285515007E+03  0.21773586329E+03  0.12509000000E+03 0.  0.
         25    1    4    4    0    0 -0.28819504785E+02 -0.52414666542E+02  0.67182663944E+02  0.15407426638E+03  0.12509000000E+03 0.  0.
<mgrwt>
<rscale>  2 0.45646351E+03</rscale>
<asrwt>0</asrwt>
<pdfrwt beam="1">  1       21 0.52210234E-01 0.45646351E+03</pdfrwt>
<pdfrwt beam="2">  1       21 0.21576384E-01 0.45646351E+03</pdfrwt>
<totfact> 0.64396597E+04</totfact>
</mgrwt>
</event>
<event>
 7    0  0.4748297E-002  0.4570003E+03  0.7546771E-02  0.1025655E+00
         21   -1    0    0  502  501  0.00000000000E+00  0.00000000000E+00  0.23964946672E+04  0.23964946672E+04  0.00000000000E+00 0. -1.
         21   -1    0    0  501  502 -0.00000000000E+00 -0.00000000000E+00 -0.21786955886E+02  0.21786955886E+02  0.00000000000E+00 0. -1.
      99926    2    1    2    0    0  0.14210854715E-13  0.00000000000E+00  0.23747077113E+04  0.24182816231E+04  0.45700032208E+03 0.  0.
      99925    2    3    3    0    0  0.10233944135E+03  0.51507996072E+02  0.15428033777E+04  0.15692593835E+04  0.26307093257E+03 0.  0.
         25    1    3    3    0    0 -0.10233944135E+03 -0.51507996072E+02  0.83190433364E+03  0.84902223960E+03  0.12509000000E+03 0.  0.
         25    1    4    4    0    0  0.27649193856E+02 -0.10381896797E+02  0.71352353184E+03  0.72500731051E+03  0.12509000000E+03 0.  0.
         25    1    4    4    0    0  0.74690247497E+02  0.61889892869E+02  0.82927984584E+03  0.84425207297E+03  0.12509000000E+03 0.  0.
<mgrwt>
<rscale>  2 0.45700032E+03</rscale>
<asrwt>0</asrwt>
<pdfrwt beam="1">  1       21 0.35242550E+00 0.45700032E+03</pdfrwt>
<pdfrwt beam="2">  1       21 0.32039658E-02 0.45700032E+03</pdfrwt>
<totfact> 0.78811645E+03</totfact>
</mgrwt>
</event>
<event>
 7    0  0.4748297E-002  0.4539569E+03  0.7546771E-02  0.1026549E+00
         21   -1    0    0  502  501  0.00000000000E+00  0.00000000000E+00  0.12846365815E+03  0.12846365815E+03  0.00000000000E+00 0. -1.
         21   -1    0    0  501  502 -0.00000000000E+00 -0.00000000000E+00 -0.40104113110E+03  0.40104113110E+03  0.00000000000E+00 0. -1.
      99926    2    1    2    0    0 -0.14210854715E-13  0.00000000000E+00 -0.27257747295E+03  0.52950478925E+03  0.45395687359E+03 0.  0.
      99925    2    3    3    0    0  0.82214634571E+02 -0.43749254747E+02 -0.99137933446E+02  0.29626237160E+03  0.26319160235E+03 0.  0.
         25    1    4    4    0    0  0.29056156316E+02  0.68351102431E+01 -0.76066385788E+02  0.14941412952E+03  0.12509000000E+03 0.  0.
         25    1    3    3    0    0 -0.82214634571E+02  0.43749254747E+02 -0.17343953950E+03  0.23324241765E+03  0.12509000000E+03 0.  0.
         25    1    4    4    0    0  0.53158478255E+02 -0.50584364990E+02 -0.23071547657E+02  0.14684824208E+03  0.12509000000E+03 0.  0.
<mgrwt>
<rscale>  2 0.45395687E+03</rscale>
<asrwt>0</asrwt>
<pdfrwt beam="1">  1       21 0.18891714E-01 0.45395687E+03</pdfrwt>
<pdfrwt beam="2">  1       21 0.58976638E-01 0.45395687E+03</pdfrwt>
<totfact> 0.63765635E+04</totfact>
</mgrwt>
</event>
<event>
 6    0  0.4748297E-002  0.4624721E+03  0.7546771E-02  0.1024067E+00
         21   -1    0    0  502  501  0.00000000000E+00  0.00000000000E+00  0.48340536404E+02  0.48340536404E+02  0.00000000000E+00 0. -1.
         21   -1    0    0  501  502 -0.00000000000E+00 -0.00000000000E+00 -0.11061131298E+04  0.11061131298E+04  0.00000000000E+00 0. -1.
      99926    2    1    2    0    0  0.00000000000E+00  0.00000000000E+00 -0.10577725934E+04  0.11544536662E+04  0.46247206193E+03 0.  0.
         25    1    3    3    0    0 -0.64380466719E+02  0.76669967569E+02 -0.41031505478E+03  0.44048732184E+03  0.12509000000E+03 0.  0.
         25    1    3    3    0    0 -0.36339164619E+02 -0.31710172349E+02 -0.28084763501E+03  0.31120567492E+03  0.12509000000E+03 0.  0.
         25    1    3    3    0    0  0.10071963134E+03 -0.44959795220E+02 -0.36660990359E+03  0.40276066943E+03  0.12509000000E+03 0.  0.
<mgrwt>
<rscale>  2 0.46247206E+03</rscale>
<asrwt>0</asrwt>
<pdfrwt beam="1">  1       21 0.71089031E-02 0.46247206E+03</pdfrwt>
<pdfrwt beam="2">  1       21 0.16266368E+00 0.46247206E+03</pdfrwt>
<totfact> 0.31744760E+04</totfact>
</mgrwt>
</event>
<event>
 7    0  0.4748297E-002  0.4552263E+03  0.7546771E-02  0.1026175E+00
         21   -1    0    0  502  501  0.00000000000E+00  0.00000000000E+00  0.57775331984E+03  0.57775331984E+03  0.00000000000E+00 0. -1.
         21   -1    0    0  501  502 -0.00000000000E+00 -0.00000000000E+00 -0.89671048794E+02  0.89671048794E+02  0.00000000000E+00 0. -1.
      99926    2    1    2    0    0 -0.35527136788E-14 -0.35527136788E-14  0.48808227105E+03  0.66742436864E+03  0.45522630036E+03 0.  0.
      99925    2    3    3    0    0 -0.21101419762E+02  0.19964829935E+02  0.14613963537E+03  0.30216262886E+03  0.26287182600E+03 0.  0.
         25    1    3    3    0    0  0.21101419762E+02 -0.19964829935E+02  0.34194263568E+03  0.36526173978E+03  0.12509000000E+03 0.  0.
         25    1    4    4    0    0 -0.42461648524E+02  0.33843497263E+02  0.66686472753E+02  0.15179910293E+03  0.12509000000E+03 0.  0.
         25    1    4    4    0    0  0.21360228762E+02 -0.13878667328E+02  0.79453162612E+02  0.15036352593E+03  0.12509000000E+03 0.  0.
<mgrwt>
<rscale>  2 0.45522630E+03</rscale>
<asrwt>0</asrwt>
<pdfrwt beam="1">  1       21 0.84963722E-01 0.45522630E+03</pdfrwt>
<pdfrwt beam="2">  1       21 0.13186919E-01 0.45522630E+03</pdfrwt>
<totfact> 0.54609977E+04</totfact>
</mgrwt>
</event>
<event>
 7    0  0.4748297E-002  0.4534442E+03  0.7546771E-02  0.1026700E+00
         21   -1    0    0  502  501  0.00000000000E+00  0.00000000000E+00  0.20334887846E+03  0.20334887846E+03  0.00000000000E+00 0. -1.
         21   -1    0    0  501  502 -0.00000000000E+00 -0.00000000000E+00 -0.25278186219E+03  0.25278186219E+03  0.00000000000E+00 0. -1.
      99926    2    1    2    0    0  0.00000000000E+00  0.00000000000E+00 -0.49432983727E+02  0.45613074064E+03  0.45344418916E+03 0.  0.
      99925    2    3    3    0    0  0.10827940862E+03 -0.21175957519E+02 -0.48620273271E+02  0.28933439744E+03  0.26301637033E+03 0.  0.
         25    1    4    4    0    0  0.39302737960E+02 -0.26351741818E+01  0.14737338163E+02  0.13197100663E+03  0.12509000000E+03 0.  0.
         25    1    4    4    0    0  0.68976670657E+02 -0.18540783338E+02 -0.63357611434E+02  0.15736339081E+03  0.12509000000E+03 0.  0.
         25    1    3    3    0    0 -0.10827940862E+03  0.21175957519E+02 -0.81271045622E+00  0.16679634320E+03  0.12509000000E+03 0.  0.
<mgrwt>
<rscale>  2 0.45344419E+03</rscale>
<asrwt>0</asrwt>
<pdfrwt beam="1">  1       21 0.29904247E-01 0.45344419E+03</pdfrwt>
<pdfrwt beam="2">  1       21 0.37173803E-01 0.45344419E+03</pdfrwt>
<totfact> 0.69319462E+04</totfact>
</mgrwt>
</event>
<event>
 7    0  0.4748297E-002  0.4613401E+03  0.7546771E-02  0.1024393E+00
         21   -1    0    0  502  501  0.00000000000E+00  0.00000000000E+00  0.71869482327E+02  0.71869482327E+02  0.00000000000E+00 0. -1.
         21   -1    0    0  501  502 -0.00000000000E+00 -0.00000000000E+00 -0.74035131551E+03  0.74035131551E+03  0.00000000000E+00 0. -1.
      99926    2    1    2    0    0  0.00000000000E+00 -0.14210854715E-13 -0.66848183318E+03  0.81222079784E+03  0.46134007320E+03 0.  0.
      99925    2    3    3    0    0 -0.19789880848E+02 -0.10711272937E+03 -0.33518199129E+03  0.43992915291E+03  0.26329815061E+03 0.  0.
         25    1    3    3    0    0  0.19789880848E+02  0.10711272937E+03 -0.33329984189E+03  0.37229164493E+03  0.12509000000E+03 0.  0.
         25    1    4    4    0    0 -0.39934341324E+02 -0.29847303231E+02 -0.18474591181E+03  0.22861358918E+03  0.12509000000E+03 0.  0.
         25    1    4    4    0    0  0.20144460475E+02 -0.77265426143E+02 -0.15043607948E+03  0.21131556373E+03  0.12509000000E+03 0.  0.
<mgrwt>
<rscale>  2 0.46134007E+03</rscale>
<asrwt>0</asrwt>
<pdfrwt beam="1">  1       21 0.10569042E-01 0.46134007E+03</pdfrwt>
<pdfrwt beam="2">  1       21 0.10887519E+00 0.46134007E+03</pdfrwt>
<totfact> 0.44903356E+04</totfact>
</mgrwt>
</event>
<event>
 7    0  0.4748297E-002  0.4584536E+03  0.7546771E-02  0.1025231E+00
         21   -1    0    0  502  501  0.00000000000E+00  0.00000000000E+00  0.59468234501E+03  0.59468234501E+03  0.00000000000E+00 0.  1.
         21   -1    0    0  501  502 -0.00000000000E+00 -0.00000000000E+00 -0.88357972232E+02  0.88357972232E+02  0.00000000000E+00 0.  1.
      99926    2    1    2    0    0  0.00000000000E+00  0.00000000000E+00  0.50632437278E+03  0.68304031724E+03  0.45845360126E+03 0.  0.
      99925    2    3    3    0    0 -0.10834707371E+03 -0.40368141743E+02  0.33696211469E+03  0.44283257837E+03  0.26303716559E+03 0.  0.
         25    1    3    3    0    0  0.10834707371E+03  0.40368141743E+02  0.16936225809E+03  0.24020773887E+03  0.12509000000E+03 0.  0.
         25    1    4    4    0    0 -0.94145398805E+02 -0.33543952889E+02  0.20789572853E+03  0.26240559242E+03  0.12509000000E+03 0.  0.
         25    1    4    4    0    0 -0.14201674903E+02 -0.68241888542E+01  0.12906638616E+03  0.18042698595E+03  0.12509000000E+03 0.  0.
<mgrwt>
<rscale>  2 0.45845360E+03</rscale>
<asrwt>0</asrwt>
<pdfrwt beam="1">  1       21 0.87453284E-01 0.45845360E+03</pdfrwt>
<pdfrwt beam="2">  1       21 0.12993820E-01 0.45845360E+03</pdfrwt>
<totfact> 0.52394041E+04</totfact>
</mgrwt>
</event>
<event>
 7    0  0.4748297E-002  0.4599180E+03  0.7546771E-02  0.1024805E+00
         21   -1    0    0  502  501  0.00000000000E+00  0.00000000000E+00  0.19539603264E+03  0.19539603264E+03  0.00000000000E+00 0.  1.
         21   -1    0    0  501  502 -0.00000000000E+00 -0.00000000000E+00 -0.27063564490E+03  0.27063564490E+03  0.00000000000E+00 0.  1.
      99926    2    1    2    0    0  0.35527136788E-14 -0.71054273576E-14 -0.75239612255E+02  0.46603167754E+03  0.45991795488E+03 0.  0.
      99925    2    3    3    0    0  0.21530803223E+02  0.58212461986E+02  0.54160167860E+02  0.27565290401E+03  0.26305690161E+03 0.  0.
         25    1    4    4    0    0  0.40006051472E+02  0.58070463028E+02  0.34537932514E+02  0.14769238204E+03  0.12509000000E+03 0.  0.
         25    1    4    4    0    0 -0.18475248249E+02  0.14199895826E+00  0.19622235346E+02  0.12796052196E+03  0.12509000000E+03 0.  0.
         25    1    3    3    0    0 -0.21530803223E+02 -0.58212461986E+02 -0.12939978011E+03  0.19037877353E+03  0.12509000000E+03 0.  0.
<mgrwt>
<rscale>  2 0.45991795E+03</rscale>
<asrwt>0</asrwt>
<pdfrwt beam="1">  1       21 0.28734711E-01 0.45991795E+03</pdfrwt>
<pdfrwt beam="2">  1       21 0.39799359E-01 0.45991795E+03</pdfrwt>
<totfact> 0.65149100E+04</totfact>
</mgrwt>
</event>
<event>
 7    0  0.4748297E-002  0.4569574E+03  0.7546771E-02  0.1025667E+00
         21   -1    0    0  502  501  0.00000000000E+00  0.00000000000E+00  0.62185515203E+02  0.62185515203E+02  0.00000000000E+00 0.  1.
         21   -1    0    0  501  502 -0.00000000000E+00 -0.00000000000E+00 -0.83946422742E+03  0.83946422742E+03  0.00000000000E+00 0.  1.
      99926    2    1    2    0    0  0.00000000000E+00  0.00000000000E+00 -0.77727871222E+03  0.90164974262E+03  0.45695739616E+03 0.  0.
      99925    2    3    3    0    0  0.11348059945E+03 -0.77205010457E+01 -0.52170682473E+03  0.59521549134E+03  0.26299432991E+03 0.  0.
         25    1    3    3    0    0 -0.11348059945E+03  0.77205010457E+01 -0.25557188748E+03  0.30643425129E+03  0.12509000000E+03 0.  0.
         25    1    4    4    0    0  0.29979222846E+02 -0.23303391956E+02 -0.29552357043E+03  0.32314623726E+03  0.12509000000E+03 0.  0.
         25    1    4    4    0    0  0.83501376607E+02  0.15582890910E+02 -0.22618325431E+03  0.27206925408E+03  0.12509000000E+03 0.  0.
<mgrwt>
<rscale>  2 0.45695740E+03</rscale>
<asrwt>0</asrwt>
<pdfrwt beam="1">  1       21 0.91449292E-02 0.45695740E+03</pdfrwt>
<pdfrwt beam="2">  1       21 0.12345062E+00 0.45695740E+03</pdfrwt>
<totfact> 0.42507260E+04</totfact>
</mgrwt>
</event>
<event>
 7    0  0.4748297E-002  0.4137225E+03  0.7546771E-02  0.1039129E+00
         21   -1    0    0  502  501  0.00000000000E+00  0.00000000000E+00  0.64776192635E+02  0.64776192635E+02  0.00000000000E+00 0.  1.
         21   -1    0    0  501  502 -0.00000000000E+00 -0.00000000000E+00 -0.66060648449E+03  0.66060648449E+03  0.00000000000E+00 0.  1.
      99926    2    1    2    0    0  0.00000000000E+00  0.00000000000E+00 -0.59583029185E+03  0.72538267712E+03  0.41372248136E+03 0.  0.
      99925    2    3    3    0    0 -0.11245200737E+02  0.40601005806E+02 -0.29901127788E+03  0.40053820454E+03  0.26315055156E+03 0.  0.
         25    1    4    4    0    0 -0.34948243552E+02  0.26970414170E+02 -0.11046072969E+03  0.17262057778E+03  0.12509000000E+03 0.  0.
         25    1    4    4    0    0  0.23703042815E+02  0.13630591636E+02 -0.18855054819E+03  0.22791762677E+03  0.12509000000E+03 0.  0.
         25    1    3    3    0    0  0.11245200737E+02 -0.40601005806E+02 -0.29681901397E+03  0.32484447258E+03  0.12509000000E+03 0.  0.
<mgrwt>
<rscale>  2 0.41372248E+03</rscale>
<asrwt>0</asrwt>
<pdfrwt beam="1">  1       21 0.95259103E-02 0.41372248E+03</pdfrwt>
<pdfrwt beam="2">  1       21 0.97148016E-01 0.41372248E+03</pdfrwt>
<totfact> 0.72315523E+04</totfact>
</mgrwt>
</event>
<event>
 7    0  0.4748297E-002  0.4515445E+03  0.7546771E-02  0.1027262E+00
         21   -1    0    0  502  501  0.00000000000E+00  0.00000000000E+00  0.37091918069E+03  0.37091918069E+03  0.00000000000E+00 0.  1.
         21   -1    0    0  501  502 -0.00000000000E+00 -0.00000000000E+00 -0.13742376070E+03  0.13742376070E+03  0.00000000000E+00 0.  1.
      99926    2    1    2    0    0  0.00000000000E+00 -0.71054273576E-14  0.23349541999E+03  0.50834294139E+03  0.45154449936E+03 0.  0.
      99925    2    3    3    0    0 -0.90604224783E+02  0.59831520520E+02  0.16483119268E+03  0.32903532692E+03  0.26326030442E+03 0.  0.
         25    1    4    4    0    0 -0.30860199966E+02  0.53791896001E+02  0.11733282886E+03  0.18237439745E+03  0.12509000000E+03 0.  0.
         25    1    4    4    0    0 -0.59744024817E+02  0.60396245188E+01  0.47498363822E+02  0.14666092946E+03  0.12509000000E+03 0.  0.
         25    1    3    3    0    0  0.90604224783E+02 -0.59831520520E+02  0.68664227308E+02  0.17930761447E+03  0.12509000000E+03 0.  0.
<mgrwt>
<rscale>  2 0.45154450E+03</rscale>
<asrwt>0</asrwt>
<pdfrwt beam="1">  1       21 0.54546938E-01 0.45154450E+03</pdfrwt>
<pdfrwt beam="2">  1       21 0.20209377E-01 0.45154450E+03</pdfrwt>
<totfact> 0.66493288E+04</totfact>
</mgrwt>
</event>
<event>
 7    0  0.4748297E-002  0.4582453E+03  0.7546771E-02  0.1025291E+00
         21   -1    0    0  502  501  0.00000000000E+00  0.00000000000E+00  0.68682503150E+02  0.68682503150E+02  0.00000000000E+00 0. -1.
         21   -1    0    0  501  502 -0.00000000000E+00 -0.00000000000E+00 -0.76434573181E+03  0.76434573181E+03  0.00000000000E+00 0. -1.
      99926    2    1    2    0    0  0.00000000000E+00  0.14210854715E-13 -0.69566322866E+03  0.83302823496E+03  0.45824525369E+03 0.  0.
      99925    2    3    3    0    0 -0.15742867742E+02 -0.11509932045E+03 -0.43559335962E+03  0.52193413933E+03  0.26301707055E+03 0.  0.
         25    1    3    3    0    0  0.15742867742E+02  0.11509932045E+03 -0.26006986903E+03  0.31109409562E+03  0.12509000000E+03 0.  0.
         25    1    4    4    0    0 -0.47380376437E+02 -0.68622806341E+02 -0.23256424740E+03  0.27692530922E+03  0.12509000000E+03 0.  0.
         25    1    4    4    0    0  0.31637508695E+02 -0.46476514109E+02 -0.20302911223E+03  0.24500883011E+03  0.12509000000E+03 0.  0.
<mgrwt>
<rscale>  2 0.45824525E+03</rscale>
<asrwt>0</asrwt>
<pdfrwt beam="1">  1       21 0.10100368E-01 0.45824525E+03</pdfrwt>
<pdfrwt beam="2">  1       21 0.11240378E+00 0.45824525E+03</pdfrwt>
<totfact> 0.45050322E+04</totfact>
</mgrwt>
</event>
<event>
 7    0  0.4748297E-002  0.4538950E+03  0.7546771E-02  0.1026567E+00
         21   -1    0    0  502  501  0.00000000000E+00  0.00000000000E+00  0.27808334377E+03  0.27808334377E+03  0.00000000000E+00 0.  1.
         21   -1    0    0  501  502 -0.00000000000E+00 -0.00000000000E+00 -0.18521483008E+03  0.18521483008E+03  0.00000000000E+00 0.  1.
      99926    2    1    2    0    0 -0.14210854715E-13  0.00000000000E+00  0.92868513685E+02  0.46329817385E+03  0.45389496259E+03 0.  0.
      99925    2    3    3    0    0  0.74539010927E+02  0.52452291603E+02  0.12518999168E+03  0.30518589386E+03  0.26298020601E+03 0.  0.
         25    1    3    3    0    0 -0.74539010927E+02 -0.52452291603E+02 -0.32321477991E+02  0.15811227999E+03  0.12509000000E+03 0.  0.
         25    1    4    4    0    0  0.74148787290E+02  0.46940052769E+02  0.61612345182E+02  0.16475739859E+03  0.12509000000E+03 0.  0.
         25    1    4    4    0    0  0.39022363693E+00  0.55122388340E+01  0.63577646494E+02  0.14042849527E+03  0.12509000000E+03 0.  0.
<mgrwt>
<rscale>  2 0.45389496E+03</rscale>
<asrwt>0</asrwt>
<pdfrwt beam="1">  1       21 0.40894610E-01 0.45389496E+03</pdfrwt>
<pdfrwt beam="2">  1       21 0.27237475E-01 0.45389496E+03</pdfrwt>
<totfact> 0.68536845E+04</totfact>
</mgrwt>
</event>
<event>
 7    0  0.4748297E-002  0.4524717E+03  0.7546771E-02  0.1026988E+00
         21   -1    0    0  502  501  0.00000000000E+00  0.00000000000E+00  0.18608346758E+03  0.18608346758E+03  0.00000000000E+00 0. -1.
         21   -1    0    0  501  502 -0.00000000000E+00 -0.00000000000E+00 -0.27505217133E+03  0.27505217133E+03  0.00000000000E+00 0. -1.
      99926    2    1    2    0    0  0.00000000000E+00  0.00000000000E+00 -0.88968703755E+02  0.46113563891E+03  0.45247170876E+03 0.  0.
      99925    2    3    3    0    0  0.51146527461E+02  0.39364505402E+02 -0.14777241157E+03  0.30858756220E+03  0.26310466808E+03 0.  0.
         25    1    3    3    0    0 -0.51146527461E+02 -0.39364505402E+02  0.58803707813E+02  0.15254807671E+03  0.12509000000E+03 0.  0.
         25    1    4    4    0    0  0.20858264649E+02  0.58951049487E+02 -0.64169220285E+02  0.15386841902E+03  0.12509000000E+03 0.  0.
         25    1    4    4    0    0  0.30288262813E+02 -0.19586544085E+02 -0.83603191282E+02  0.15471914318E+03  0.12509000000E+03 0.  0.
<mgrwt>
<rscale>  2 0.45247171E+03</rscale>
<asrwt>0</asrwt>
<pdfrwt beam="1">  1       21 0.27365216E-01 0.45247171E+03</pdfrwt>
<pdfrwt beam="2">  1       21 0.40448848E-01 0.45247171E+03</pdfrwt>
<totfact> 0.69484062E+04</totfact>
</mgrwt>
</event>
<event>
 7    0  0.4748297E-002  0.4660112E+03  0.7546771E-02  0.1023052E+00
         21   -1    0    0  502  501  0.00000000000E+00  0.00000000000E+00  0.13163294394E+03  0.13163294394E+03  0.00000000000E+00 0.  1.
         21   -1    0    0  501  502 -0.00000000000E+00 -0.00000000000E+00 -0.41244690031E+03  0.41244690031E+03  0.00000000000E+00 0.  1.
      99926    2    1    2    0    0  0.00000000000E+00  0.00000000000E+00 -0.28081395637E+03  0.54407984426E+03  0.46601115741E+03 0.  0.
      99925    2    3    3    0    0  0.82125225965E+02  0.62989729717E+01 -0.68144671278E+02  0.28396455689E+03  0.26307402674E+03 0.  0.
         25    1    4    4    0    0  0.17735223631E+02  0.36636998656E+02 -0.27176756412E+02  0.13432383265E+03  0.12509000000E+03 0.  0.
         25    1    3    3    0    0 -0.82125225965E+02 -0.62989729717E+01 -0.21266928509E+03  0.26011528737E+03  0.12509000000E+03 0.  0.
         25    1    4    4    0    0  0.64390002334E+02 -0.30338025684E+02 -0.40967914867E+02  0.14964072424E+03  0.12509000000E+03 0.  0.
<mgrwt>
<rscale>  2 0.46601116E+03</rscale>
<asrwt>0</asrwt>
<pdfrwt beam="1">  1       21 0.19357786E-01 0.46601116E+03</pdfrwt>
<pdfrwt beam="2">  1       21 0.60653956E-01 0.46601116E+03</pdfrwt>
<totfact> 0.57114508E+04</totfact>
</mgrwt>
</event>
<event>
 7    0  0.4748297E-002  0.4591117E+03  0.7546771E-02  0.1025039E+00
         21   -1    0    0  502  501  0.00000000000E+00  0.00000000000E+00  0.10359092014E+03  0.10359092014E+03  0.00000000000E+00 0.  1.
         21   -1    0    0  501  502 -0.00000000000E+00 -0.00000000000E+00 -0.50869208934E+03  0.50869208934E+03  0.00000000000E+00 0.  1.
      99926    2    1    2    0    0  0.00000000000E+00  0.00000000000E+00 -0.40510116920E+03  0.61228300948E+03  0.45911167096E+03 0.  0.
      99925    2    3    3    0    0  0.80998012543E+02 -0.74895681684E+02 -0.20196157191E+03  0.34944609187E+03  0.26297158293E+03 0.  0.
         25    1    4    4    0    0  0.63708702895E+02 -0.96407070532E+01 -0.12272348864E+03  0.18670914499E+03  0.12509000000E+03 0.  0.
         25    1    3    3    0    0 -0.80998012543E+02  0.74895681684E+02 -0.20313959729E+03  0.26283691761E+03  0.12509000000E+03 0.  0.
         25    1    4    4    0    0  0.17289309648E+02 -0.65254974631E+02 -0.79238083270E+02  0.16273694689E+03  0.12509000000E+03 0.  0.
<mgrwt>
<rscale>  2 0.45911167E+03</rscale>
<asrwt>0</asrwt>
<pdfrwt beam="1">  1       21 0.15233959E-01 0.45911167E+03</pdfrwt>
<pdfrwt beam="2">  1       21 0.74807660E-01 0.45911167E+03</pdfrwt>
<totfact> 0.56084776E+04</totfact>
</mgrwt>
</event>
<event>
 7    0  0.4748297E-002  0.4573612E+03  0.7546771E-02  0.1025549E+00
         21   -1    0    0  502  501  0.00000000000E+00  0.00000000000E+00  0.45639311524E+03  0.45639311524E+03  0.00000000000E+00 0. -1.
         21   -1    0    0  501  502 -0.00000000000E+00 -0.00000000000E+00 -0.11458284675E+03  0.11458284675E+03  0.00000000000E+00 0. -1.
      99926    2    1    2    0    0  0.00000000000E+00  0.00000000000E+00  0.34181026849E+03  0.57097596199E+03  0.45736122434E+03 0.  0.
      99925    2    3    3    0    0  0.18237895679E+02  0.11081200649E+03  0.18238767438E+03  0.33929731984E+03  0.26314537021E+03 0.  0.
         25    1    4    4    0    0 -0.37309409275E+01  0.29926393470E+02  0.12119660750E+03  0.17676434798E+03  0.12509000000E+03 0.  0.
         25    1    3    3    0    0 -0.18237895679E+02 -0.11081200649E+03  0.15942259410E+03  0.23167864216E+03  0.12509000000E+03 0.  0.
         25    1    4    4    0    0  0.21968836606E+02  0.80885613018E+02  0.61191066885E+02  0.16253297186E+03  0.12509000000E+03 0.  0.
<mgrwt>
<rscale>  2 0.45736122E+03</rscale>
<asrwt>0</asrwt>
<pdfrwt beam="1">  1       21 0.67116634E-01 0.45736122E+03</pdfrwt>
<pdfrwt beam="2">  1       21 0.16850419E-01 0.45736122E+03</pdfrwt>
<totfact> 0.59384703E+04</totfact>
</mgrwt>
</event>
<event>
 7    0  0.4748297E-002  0.4729656E+03  0.7546771E-02  0.1021087E+00
         21   -1    0    0  502  501  0.00000000000E+00  0.00000000000E+00  0.42031127790E+02  0.42031127790E+02  0.00000000000E+00 0.  1.
         21   -1    0    0  501  502 -0.00000000000E+00 -0.00000000000E+00 -0.13305405537E+04  0.13305405537E+04  0.00000000000E+00 0.  1.
      99926    2    1    2    0    0 -0.14210854715E-13  0.00000000000E+00 -0.12885094260E+04  0.13725716815E+04  0.47296562262E+03 0.  0.
      99925    2    3    3    0    0  0.81651374222E+02 -0.31503048353E+02 -0.52337598832E+03  0.59235627893E+03  0.26325680822E+03 0.  0.
         25    1    3    3    0    0 -0.81651374222E+02  0.31503048353E+02 -0.76513343764E+03  0.78021540260E+03  0.12509000000E+03 0.  0.
         25    1    4    4    0    0  0.37633220465E+02 -0.56561860614E+02 -0.25998394843E+03  0.29640287600E+03  0.12509000000E+03 0.  0.
         25    1    4    4    0    0  0.44018153757E+02  0.25058812261E+02 -0.26339203989E+03  0.29595340294E+03  0.12509000000E+03 0.  0.
<mgrwt>
<rscale>  2 0.47296562E+03</rscale>
<asrwt>0</asrwt>
<pdfrwt beam="1">  1       21 0.61810494E-02 0.47296562E+03</pdfrwt>
<pdfrwt beam="2">  1       21 0.19566769E+00 0.47296562E+03</pdfrwt>
<totfact> 0.23600509E+04</totfact>
</mgrwt>
</event>
<event>
 7    0  0.4748297E-002  0.4492329E+03  0.7546771E-02  0.1027951E+00
         21   -1    0    0  502  501  0.00000000000E+00  0.00000000000E+00  0.14348608600E+03  0.14348608600E+03  0.00000000000E+00 0.  1.
         21   -1    0    0  501  502 -0.00000000000E+00 -0.00000000000E+00 -0.35161977196E+03  0.35161977196E+03  0.00000000000E+00 0.  1.
      99926    2    1    2    0    0  0.00000000000E+00 -0.88817841970E-15 -0.20813368595E+03  0.49510585796E+03  0.44923287876E+03 0.  0.
      99925    2    3    3    0    0  0.35501565213E+02  0.57870101997E+01 -0.19927174544E+02  0.26627611851E+03  0.26308179029E+03 0.  0.
         25    1    4    4    0    0  0.36633355600E+02 -0.12905355112E+02  0.22430949384E+02  0.13288794725E+03  0.12509000000E+03 0.  0.
         25    1    3    3    0    0 -0.35501565213E+02 -0.57870101997E+01 -0.18820651141E+03  0.22882973945E+03  0.12509000000E+03 0.  0.
         25    1    4    4    0    0 -0.11317903865E+01  0.18692365312E+02 -0.42358123928E+02  0.13338817126E+03  0.12509000000E+03 0.  0.
<mgrwt>
<rscale>  2 0.44923288E+03</rscale>
<asrwt>0</asrwt>
<pdfrwt beam="1">  1       21 0.21100895E-01 0.44923288E+03</pdfrwt>
<pdfrwt beam="2">  1       21 0.51708790E-01 0.44923288E+03</pdfrwt>
<totfact> 0.68707903E+04</totfact>
</mgrwt>
</event>
<event>
 7    0  0.4748297E-002  0.4536015E+03  0.7546771E-02  0.1026653E+00
         21   -1    0    0  502  501  0.00000000000E+00  0.00000000000E+00  0.88129685115E+02  0.88129685115E+02  0.00000000000E+00 0. -1.
         21   -1    0    0  501  502 -0.00000000000E+00 -0.00000000000E+00 -0.58366922820E+03  0.58366922820E+03  0.00000000000E+00 0. -1.
      99926    2    1    2    0    0  0.00000000000E+00  0.00000000000E+00 -0.49553954309E+03  0.67179891332E+03  0.45360152245E+03 0.  0.
      99925    2    3    3    0    0  0.44561400167E+02  0.92522458786E+02 -0.37770080793E+03  0.47160001380E+03  0.26306377353E+03 0.  0.
         25    1    3    3    0    0 -0.44561400167E+02 -0.92522458786E+02 -0.11783873516E+03  0.20019889952E+03  0.12509000000E+03 0.  0.
         25    1    4    4    0    0  0.56332611808E+02  0.71722420072E+02 -0.19753853008E+03  0.25097100961E+03  0.12509000000E+03 0.  0.
         25    1    4    4    0    0 -0.11771211641E+02  0.20800038713E+02 -0.18016227785E+03  0.22062900420E+03  0.12509000000E+03 0.  0.
<mgrwt>
<rscale>  2 0.45360152E+03</rscale>
<asrwt>0</asrwt>
<pdfrwt beam="1">  1       21 0.12960248E-01 0.45360152E+03</pdfrwt>
<pdfrwt beam="2">  1       21 0.85833711E-01 0.45360152E+03</pdfrwt>
<totfact> 0.55065693E+04</totfact>
</mgrwt>
</event>
<event>
 7    0  0.4748297E-002  0.4527704E+03  0.7546771E-02  0.1026899E+00
         21   -1    0    0  502  501  0.00000000000E+00  0.00000000000E+00  0.38448854172E+03  0.38448854172E+03  0.00000000000E+00 0.  1.
         21   -1    0    0  501  502 -0.00000000000E+00 -0.00000000000E+00 -0.13329464791E+03  0.13329464791E+03  0.00000000000E+00 0.  1.
      99926    2    1    2    0    0  0.14210854715E-13  0.35527136788E-14  0.25119389382E+03  0.51778318963E+03  0.45277042657E+03 0.  0.
      99925    2    3    3    0    0  0.92288462497E+02  0.27228628310E+02  0.22184447080E+03  0.35726074497E+03  0.26298614443E+03 0.  0.
         25    1    4    4    0    0  0.57513722590E+02  0.43115038411E+01  0.64842938864E+02  0.15224497421E+03  0.12509000000E+03 0.  0.
         25    1    4    4    0    0  0.34774739906E+02  0.22917124469E+02  0.15700153194E+03  0.20501577076E+03  0.12509000000E+03 0.  0.
         25    1    3    3    0    0 -0.92288462497E+02 -0.27228628310E+02  0.29349423014E+02  0.16052244466E+03  0.12509000000E+03 0.  0.
<mgrwt>
<rscale>  2 0.45277043E+03</rscale>
<asrwt>0</asrwt>
<pdfrwt beam="1">  1       21 0.56542432E-01 0.45277043E+03</pdfrwt>
<pdfrwt beam="2">  1       21 0.19602154E-01 0.45277043E+03</pdfrwt>
<totfact> 0.65184017E+04</totfact>
</mgrwt>
</event>
<event>
 7    0  0.4748297E-002  0.4583429E+03  0.7546771E-02  0.1025263E+00
         21   -1    0    0  502  501  0.00000000000E+00  0.00000000000E+00  0.38976780264E+03  0.38976780264E+03  0.00000000000E+00 0. -1.
         21   -1    0    0  501  502 -0.00000000000E+00 -0.00000000000E+00 -0.13474573833E+03  0.13474573833E+03  0.00000000000E+00 0. -1.
      99926    2    1    2    0    0  0.00000000000E+00  0.14210854715E-13  0.25502206430E+03  0.52451354097E+03  0.45834288626E+03 0.  0.
      99925    2    3    3    0    0  0.47110926194E+02 -0.98363783252E+02  0.20607621643E+03  0.35148730786E+03  0.26302290277E+03 0.  0.
         25    1    3    3    0    0 -0.47110926194E+02  0.98363783252E+02  0.48945847870E+02  0.17302623312E+03  0.12509000000E+03 0.  0.
         25    1    4    4    0    0  0.16342131147E+02 -0.50643285531E+02  0.15182486853E+03  0.20378936779E+03  0.12509000000E+03 0.  0.
         25    1    4    4    0    0  0.30768795047E+02 -0.47720497721E+02  0.54251347906E+02  0.14769794007E+03  0.12509000000E+03 0.  0.
<mgrwt>
<rscale>  2 0.45834289E+03</rscale>
<asrwt>0</asrwt>
<pdfrwt beam="1">  1       21 0.57318794E-01 0.45834289E+03</pdfrwt>
<pdfrwt beam="2">  1       21 0.19815550E-01 0.45834289E+03</pdfrwt>
<totfact> 0.61922009E+04</totfact>
</mgrwt>
</event>
<event>
 7    0  0.4748297E-002  0.4521043E+03  0.7546771E-02  0.1027096E+00
         21   -1    0    0  502  501  0.00000000000E+00  0.00000000000E+00  0.44526401457E+03  0.44526401457E+03  0.00000000000E+00 0. -1.
         21   -1    0    0  501  502 -0.00000000000E+00 -0.00000000000E+00 -0.11476241478E+03  0.11476241478E+03  0.00000000000E+00 0. -1.
      99926    2    1    2    0    0  0.71054273576E-14  0.00000000000E+00  0.33050159979E+03  0.56002642935E+03  0.45210429561E+03 0.  0.
      99925    2    3    3    0    0 -0.41513274758E+02 -0.71883638259E+02  0.29938094437E+03  0.40670776537E+03  0.26247218353E+03 0.  0.
         25    1    4    4    0    0 -0.56121358031E+02 -0.55888355894E+02  0.17026198977E+03  0.22563193128E+03  0.12509000000E+03 0.  0.
         25    1    4    4    0    0  0.14608083273E+02 -0.15995282364E+02  0.12911895460E+03  0.18107583409E+03  0.12509000000E+03 0.  0.
         25    1    3    3    0    0  0.41513274758E+02  0.71883638259E+02  0.31120655416E+02  0.15331866398E+03  0.12509000000E+03 0.  0.
<mgrwt>
<rscale>  2 0.45210430E+03</rscale>
<asrwt>0</asrwt>
<pdfrwt beam="1">  1       21 0.65480001E-01 0.45210430E+03</pdfrwt>
<pdfrwt beam="2">  1       21 0.16876826E-01 0.45210430E+03</pdfrwt>
<totfact> 0.62631034E+04</totfact>
</mgrwt>
</event>
<event>
 7    0  0.4748297E-002  0.4416421E+03  0.7546771E-02  0.1030244E+00
         21   -1    0    0  502  501  0.00000000000E+00  0.00000000000E+00  0.24505838014E+03  0.24505838014E+03  0.00000000000E+00 0. -1.
         21   -1    0    0  501  502 -0.00000000000E+00 -0.00000000000E+00 -0.19898088826E+03  0.19898088826E+03  0.00000000000E+00 0. -1.
      99926    2    1    2    0    0  0.35527136788E-14 -0.71054273576E-14  0.46077491882E+02  0.44403926841E+03  0.44164209110E+03 0.  0.
      99925    2    3    3    0    0  0.28967001450E+02  0.45123544181E+02  0.11377093133E+03  0.29203554721E+03  0.26356349256E+03 0.  0.
         25    1    4    4    0    0  0.19059081906E+02  0.33722793757E+02  0.10103153388E+03  0.16539454150E+03  0.12509000000E+03 0.  0.
         25    1    3    3    0    0 -0.28967001450E+02 -0.45123544181E+02 -0.67693439446E+02  0.15200372119E+03  0.12509000000E+03 0.  0.
         25    1    4    4    0    0  0.99079195436E+01  0.11400750424E+02  0.12739397451E+02  0.12664100571E+03  0.12509000000E+03 0.  0.
<mgrwt>
<rscale>  2 0.44164209E+03</rscale>
<asrwt>0</asrwt>
<pdfrwt beam="1">  1       21 0.36037997E-01 0.44164209E+03</pdfrwt>
<pdfrwt beam="2">  1       21 0.29261895E-01 0.44164209E+03</pdfrwt>
<totfact> 0.77268758E+04</totfact>
</mgrwt>
</event>
<event>
 7    0  0.4748297E-002  0.4251089E+03  0.7546771E-02  0.1035416E+00
         21   -1    0    0  502  501  0.00000000000E+00  0.00000000000E+00  0.45195920958E+02  0.45195920958E+02  0.00000000000E+00 0.  1.
         21   -1    0    0  501  502 -0.00000000000E+00 -0.00000000000E+00 -0.99963431201E+03  0.99963431201E+03  0.00000000000E+00 0.  1.
      99926    2    1    2    0    0  0.00000000000E+00  0.00000000000E+00 -0.95443839105E+03  0.10448302330E+04  0.42510889594E+03 0.  0.
      99925    2    3    3    0    0  0.72090843202E+02 -0.37130969949E+02 -0.58833218215E+03  0.64953659161E+03  0.26303465300E+03 0.  0.
         25    1    4    4    0    0  0.25016439061E+02 -0.19798374120E+02 -0.19593627902E+03  0.23464085616E+03  0.12509000000E+03 0.  0.
         25    1    4    4    0    0  0.47074404140E+02 -0.17332595829E+02 -0.39239590313E+03  0.41489573545E+03  0.12509000000E+03 0.  0.
         25    1    3    3    0    0 -0.72090843202E+02  0.37130969949E+02 -0.36610620889E+03  0.39529364135E+03  0.12509000000E+03 0.  0.
<mgrwt>
<rscale>  2 0.42510890E+03</rscale>
<asrwt>0</asrwt>
<pdfrwt beam="1">  1       21 0.66464585E-02 0.42510890E+03</pdfrwt>
<pdfrwt beam="2">  1       21 0.14700506E+00 0.42510890E+03</pdfrwt>
<totfact> 0.47652263E+04</totfact>
</mgrwt>
</event>
<event>
 7    0  0.4748297E-002  0.4588306E+03  0.7546771E-02  0.1025121E+00
         21   -1    0    0  502  501  0.00000000000E+00  0.00000000000E+00  0.76280386143E+03  0.76280386143E+03  0.00000000000E+00 0. -1.
         21   -1    0    0  501  502 -0.00000000000E+00 -0.00000000000E+00 -0.68997253462E+02  0.68997253462E+02  0.00000000000E+00 0. -1.
      99926    2    1    2    0    0  0.00000000000E+00  0.00000000000E+00  0.69380660796E+03  0.83180111489E+03  0.45883056293E+03 0.  0.
      99925    2    3    3    0    0 -0.92663261521E+02  0.70650693140E+02  0.42536629594E+03  0.51354695593E+03  0.26308931895E+03 0.  0.
         25    1    4    4    0    0 -0.66754213848E+02  0.13644227345E+02  0.26409033190E+03  0.30005583065E+03  0.12509000000E+03 0.  0.
         25    1    4    4    0    0 -0.25909047672E+02  0.57006465795E+02  0.16127596405E+03  0.21349112528E+03  0.12509000000E+03 0.  0.
         25    1    3    3    0    0  0.92663261521E+02 -0.70650693140E+02  0.26844031202E+03  0.31825415896E+03  0.12509000000E+03 0.  0.
<mgrwt>
<rscale>  2 0.45883056E+03</rscale>
<asrwt>0</asrwt>
<pdfrwt beam="1">  1       21 0.11217703E+00 0.45883056E+03</pdfrwt>
<pdfrwt beam="2">  1       21 0.10146655E-01 0.45883056E+03</pdfrwt>
<totfact> 0.44900039E+04</totfact>
</mgrwt>
</event>
<event>
 7    0  0.4748297E-002  0.4556109E+03  0.7546771E-02  0.1026062E+00
         21   -1    0    0  502  501  0.00000000000E+00  0.00000000000E+00  0.34074131015E+03  0.34074131015E+03  0.00000000000E+00 0. -1.
         21   -1    0    0  501  502 -0.00000000000E+00 -0.00000000000E+00 -0.15230122068E+03  0.15230122068E+03  0.00000000000E+00 0. -1.
      99926    2    1    2    0    0  0.00000000000E+00  0.00000000000E+00  0.18844008947E+03  0.49304253083E+03  0.45561087551E+03 0.  0.
      99925    2    3    3    0    0  0.60506945033E+02  0.80639201868E+02  0.17528508757E+03  0.33184596309E+03  0.26312185394E+03 0.  0.
         25    1    3    3    0    0 -0.60506945033E+02 -0.80639201868E+02  0.13155001898E+02  0.16119656774E+03  0.12509000000E+03 0.  0.
         25    1    4    4    0    0 -0.10400781425E+02  0.27739798232E+02  0.81543306556E+02  0.15223170368E+03  0.12509000000E+03 0.  0.
         25    1    4    4    0    0  0.70907726458E+02  0.52899403636E+02  0.93741781016E+02  0.17961425941E+03  0.12509000000E+03 0.  0.
<mgrwt>
<rscale>  2 0.45561088E+03</rscale>
<asrwt>0</asrwt>
<pdfrwt beam="1">  1       21 0.50109016E-01 0.45561088E+03</pdfrwt>
<pdfrwt beam="2">  1       21 0.22397238E-01 0.45561088E+03</pdfrwt>
<totfact> 0.65444305E+04</totfact>
</mgrwt>
</event>
<event>
 7    0  0.4748297E-002  0.4312015E+03  0.7546771E-02  0.1033481E+00
         21   -1    0    0  502  501  0.00000000000E+00  0.00000000000E+00  0.58102500915E+03  0.58102500915E+03  0.00000000000E+00 0. -1.
         21   -1    0    0  501  502 -0.00000000000E+00 -0.00000000000E+00 -0.80002905985E+02  0.80002905985E+02  0.00000000000E+00 0. -1.
      99926    2    1    2    0    0  0.00000000000E+00  0.71054273576E-14  0.50102210316E+03  0.66102791513E+03  0.43120152681E+03 0.  0.
      99925    2    3    3    0    0 -0.32280613873E+02 -0.50616581793E+02  0.22174202817E+03  0.34918028443E+03  0.26297008879E+03 0.  0.
         25    1    4    4    0    0  0.17816652558E+02 -0.44027470544E+02  0.95231132861E+02  0.16423254256E+03  0.12509000000E+03 0.  0.
         25    1    3    3    0    0  0.32280613873E+02  0.50616581793E+02  0.27928007499E+03  0.31184763070E+03  0.12509000000E+03 0.  0.
         25    1    4    4    0    0 -0.50097266431E+02 -0.65891112481E+01  0.12651089531E+03  0.18494774187E+03  0.12509000000E+03 0.  0.
<mgrwt>
<rscale>  2 0.43120153E+03</rscale>
<asrwt>0</asrwt>
<pdfrwt beam="1">  1       21 0.85444852E-01 0.43120153E+03</pdfrwt>
<pdfrwt beam="2">  1       21 0.11765133E-01 0.43120153E+03</pdfrwt>
<totfact> 0.66730582E+04</totfact>
</mgrwt>
</event>
<event>
 7    0  0.4748297E-002  0.4537124E+03  0.7546771E-02  0.1026621E+00
         21   -1    0    0  502  501  0.00000000000E+00  0.00000000000E+00  0.21024475898E+02  0.21024475898E+02  0.00000000000E+00 0.  1.
         21   -1    0    0  501  502 -0.00000000000E+00 -0.00000000000E+00 -0.24478015209E+04  0.24478015209E+04  0.00000000000E+00 0.  1.
      99926    2    1    2    0    0  0.00000000000E+00 -0.14210854715E-13 -0.24267770450E+04  0.24688259968E+04  0.45371243791E+03 0.  0.
      99925    2    3    3    0    0  0.65066738002E+01  0.82153964961E+02 -0.19426351833E+04  0.19620395910E+04  0.26263337646E+03 0.  0.
         25    1    3    3    0    0 -0.65066738002E+01 -0.82153964961E+02 -0.48414186165E+03  0.50678640576E+03  0.12509000000E+03 0.  0.
         25    1    4    4    0    0  0.18512273123E+02  0.36160563853E+01 -0.83221508669E+03  0.84177505234E+03  0.12509000000E+03 0.  0.
         25    1    4    4    0    0 -0.12005599323E+02  0.78537908576E+02 -0.11104200966E+04  0.11202645387E+04  0.12509000000E+03 0.  0.
<mgrwt>
<rscale>  2 0.45371244E+03</rscale>
<asrwt>0</asrwt>
<pdfrwt beam="1">  1       21 0.30918347E-02 0.45371244E+03</pdfrwt>
<pdfrwt beam="2">  1       21 0.35997081E+00 0.45371244E+03</pdfrwt>
<totfact> 0.75311684E+03</totfact>
</mgrwt>
</event>
<event>
 7    0  0.4748297E-002  0.4514106E+03  0.7546771E-02  0.1027302E+00
         21   -1    0    0  502  501  0.00000000000E+00  0.00000000000E+00  0.31501840891E+03  0.31501840891E+03  0.00000000000E+00 0. -1.
         21   -1    0    0  501  502 -0.00000000000E+00 -0.00000000000E+00 -0.16171397737E+03  0.16171397737E+03  0.00000000000E+00 0. -1.
      99926    2    1    2    0    0  0.00000000000E+00  0.71054273576E-14  0.15330443154E+03  0.47673238627E+03  0.45141058848E+03 0.  0.
      99925    2    3    3    0    0  0.85129969186E+02  0.34454762572E+02  0.32750888319E+02  0.28022562506E+03  0.26271569793E+03 0.  0.
         25    1    3    3    0    0 -0.85129969186E+02 -0.34454762572E+02  0.12055354322E+03  0.19650676121E+03  0.12509000000E+03 0.  0.
         25    1    4    4    0    0  0.66781056206E+02  0.11163320008E+01  0.45325681335E+02  0.14887202945E+03  0.12509000000E+03 0.  0.
         25    1    4    4    0    0  0.18348912980E+02  0.33338430571E+02 -0.12574793016E+02  0.13135359561E+03  0.12509000000E+03 0.  0.
<mgrwt>
<rscale>  2 0.45141059E+03</rscale>
<asrwt>0</asrwt>
<pdfrwt beam="1">  1       21 0.46326237E-01 0.45141059E+03</pdfrwt>
<pdfrwt beam="2">  1       21 0.23781467E-01 0.45141059E+03</pdfrwt>
<totfact> 0.68880285E+04</totfact>
</mgrwt>
</event>
<event>
 7    0  0.4748297E-002  0.4499276E+03  0.7546771E-02  0.1027744E+00
         21   -1    0    0  502  501  0.00000000000E+00  0.00000000000E+00  0.77209546947E+02  0.77209546947E+02  0.00000000000E+00 0. -1.
         21   -1    0    0  501  502 -0.00000000000E+00 -0.00000000000E+00 -0.65547224019E+03  0.65547224019E+03  0.00000000000E+00 0. -1.
      99926    2    1    2    0    0  0.00000000000E+00  0.00000000000E+00 -0.57826269324E+03  0.73268178713E+03  0.44992761507E+03 0.  0.
      99925    2    3    3    0    0 -0.29320384963E+02 -0.10395741443E+03 -0.37489520748E+03  0.47062707652E+03  0.26320448244E+03 0.  0.
         25    1    4    4    0    0  0.30209271249E+00 -0.48399702835E+02 -0.24653186591E+03  0.28065653654E+03  0.12509000000E+03 0.  0.
         25    1    4    4    0    0 -0.29622477675E+02 -0.55557711595E+02 -0.12836334157E+03  0.18997053998E+03  0.12509000000E+03 0.  0.
         25    1    3    3    0    0  0.29320384963E+02  0.10395741443E+03 -0.20336748576E+03  0.26205471061E+03  0.12509000000E+03 0.  0.
<mgrwt>
<rscale>  2 0.44992762E+03</rscale>
<asrwt>0</asrwt>
<pdfrwt beam="1">  1       21 0.11354345E-01 0.44992762E+03</pdfrwt>
<pdfrwt beam="2">  1       21 0.96392973E-01 0.44992762E+03</pdfrwt>
<totfact> 0.53256743E+04</totfact>
</mgrwt>
</event>
<event>
 7    0  0.4748297E-002  0.4591617E+03  0.7546771E-02  0.1025025E+00
         21   -1    0    0  502  501  0.00000000000E+00  0.00000000000E+00  0.10762817089E+03  0.10762817089E+03  0.00000000000E+00 0. -1.
         21   -1    0    0  501  502 -0.00000000000E+00 -0.00000000000E+00 -0.48971721512E+03  0.48971721512E+03  0.00000000000E+00 0. -1.
      99926    2    1    2    0    0  0.00000000000E+00  0.00000000000E+00 -0.38208904423E+03  0.59734538601E+03  0.45916170623E+03 0.  0.
      99925    2    3    3    0    0 -0.29821536472E+02 -0.82453181228E+02 -0.13829013003E+03  0.30964194530E+03  0.26280434375E+03 0.  0.
         25    1    4    4    0    0 -0.15213768400E+02 -0.77469272636E+02 -0.51573591405E+02  0.15665340846E+03  0.12509000000E+03 0.  0.
         25    1    4    4    0    0 -0.14607768072E+02 -0.49839085924E+01 -0.86716538625E+02  0.15298853684E+03  0.12509000000E+03 0.  0.
         25    1    3    3    0    0  0.29821536472E+02  0.82453181228E+02 -0.24379891420E+03  0.28770344071E+03  0.12509000000E+03 0.  0.
<mgrwt>
<rscale>  2 0.45916171E+03</rscale>
<asrwt>0</asrwt>
<pdfrwt beam="1">  1       21 0.15827672E-01 0.45916171E+03</pdfrwt>
<pdfrwt beam="2">  1       21 0.72017237E-01 0.45916171E+03</pdfrwt>
<totfact> 0.56946010E+04</totfact>
</mgrwt>
</event>
<event>
 7    0  0.4748297E-002  0.4495841E+03  0.7546771E-02  0.1027846E+00
         21   -1    0    0  502  501  0.00000000000E+00  0.00000000000E+00  0.69399068415E+03  0.69399068415E+03  0.00000000000E+00 0. -1.
         21   -1    0    0  501  502 -0.00000000000E+00 -0.00000000000E+00 -0.72812894009E+02  0.72812894009E+02  0.00000000000E+00 0. -1.
      99926    2    1    2    0    0  0.00000000000E+00  0.00000000000E+00  0.62117779014E+03  0.76680357816E+03  0.44958411950E+03 0.  0.
      99925    2    3    3    0    0  0.67300843383E+02 -0.36586108295E+02  0.26299746882E+03  0.37975242195E+03  0.26301385236E+03 0.  0.
         25    1    3    3    0    0 -0.67300843383E+02  0.36586108295E+02  0.35818032132E+03  0.38705115620E+03  0.12509000000E+03 0.  0.
         25    1    4    4    0    0  0.37020438015E+02 -0.55849215662E+02  0.15941385122E+03  0.21342429989E+03  0.12509000000E+03 0.  0.
         25    1    4    4    0    0  0.30280405369E+02  0.19263107368E+02  0.10358361760E+03  0.16632812207E+03  0.12509000000E+03 0.  0.
<mgrwt>
<rscale>  2 0.44958412E+03</rscale>
<asrwt>0</asrwt>
<pdfrwt beam="1">  1       21 0.10205745E+00 0.44958412E+03</pdfrwt>
<pdfrwt beam="2">  1       21 0.10707779E-01 0.44958412E+03</pdfrwt>
<totfact> 0.51570192E+04</totfact>
</mgrwt>
</event>
<event>
 7    0  0.4748297E-002  0.4476036E+03  0.7546771E-02  0.1028439E+00
         21   -1    0    0  502  501  0.00000000000E+00  0.00000000000E+00  0.18966557851E+03  0.18966557851E+03  0.00000000000E+00 0.  1.
         21   -1    0    0  501  502 -0.00000000000E+00 -0.00000000000E+00 -0.26408186374E+03  0.26408186374E+03  0.00000000000E+00 0.  1.
      99926    2    1    2    0    0  0.00000000000E+00 -0.71054273576E-14 -0.74416285225E+02  0.45374744225E+03  0.44760357219E+03 0.  0.
      99925    2    3    3    0    0  0.96223990616E+02  0.33121500718E+02 -0.16706756307E+02  0.28247576330E+03  0.26297785262E+03 0.  0.
         25    1    4    4    0    0  0.82073614457E+01  0.24756456019E+02  0.43511310753E+01  0.12785414869E+03  0.12509000000E+03 0.  0.
         25    1    4    4    0    0  0.88016629171E+02  0.83650446990E+01 -0.21057887382E+02  0.15462161461E+03  0.12509000000E+03 0.  0.
         25    1    3    3    0    0 -0.96223990616E+02 -0.33121500718E+02 -0.57709528918E+02  0.17127167894E+03  0.12509000000E+03 0.  0.
<mgrwt>
<rscale>  2 0.44760357E+03</rscale>
<asrwt>0</asrwt>
<pdfrwt beam="1">  1       21 0.27891997E-01 0.44760357E+03</pdfrwt>
<pdfrwt beam="2">  1       21 0.38835568E-01 0.44760357E+03</pdfrwt>
<totfact> 0.72841042E+04</totfact>
</mgrwt>
</event>
<event>
 7    0  0.4748297E-002  0.4629051E+03  0.7546771E-02  0.1023942E+00
         21   -1    0    0  502  501  0.00000000000E+00  0.00000000000E+00  0.35032762502E+02  0.35032762502E+02  0.00000000000E+00 0.  1.
         21   -1    0    0  501  502 -0.00000000000E+00 -0.00000000000E+00 -0.15291482331E+04  0.15291482331E+04  0.00000000000E+00 0.  1.
      99926    2    1    2    0    0  0.17763568394E-14  0.00000000000E+00 -0.14941154706E+04  0.15641809956E+04  0.46290511719E+03 0.  0.
      99925    2    3    3    0    0 -0.10714430089E+02 -0.11608211012E+03 -0.10338229293E+04  0.10731549403E+04  0.26321440207E+03 0.  0.
         25    1    4    4    0    0 -0.17015800365E+02 -0.93408220940E+02 -0.48615004928E+03  0.51088551723E+03  0.12509000000E+03 0.  0.
         25    1    4    4    0    0  0.63013702763E+01 -0.22673889180E+02 -0.54767288006E+03  0.56226942311E+03  0.12509000000E+03 0.  0.
         25    1    3    3    0    0  0.10714430089E+02  0.11608211012E+03 -0.46029254127E+03  0.49102605527E+03  0.12509000000E+03 0.  0.
<mgrwt>
<rscale>  2 0.46290512E+03</rscale>
<asrwt>0</asrwt>
<pdfrwt beam="1">  1       21 0.51518768E-02 0.46290512E+03</pdfrwt>
<pdfrwt beam="2">  1       21 0.22487474E+00 0.46290512E+03</pdfrwt>
<totfact> 0.20934133E+04</totfact>
</mgrwt>
</event>
<event>
 7    0  0.4748297E-002  0.4582692E+03  0.7546771E-02  0.1025284E+00
         21   -1    0    0  502  501  0.00000000000E+00  0.00000000000E+00  0.40135007680E+03  0.40135007680E+03  0.00000000000E+00 0.  1.
         21   -1    0    0  501  502 -0.00000000000E+00 -0.00000000000E+00 -0.13081511104E+03  0.13081511104E+03  0.00000000000E+00 0.  1.
      99926    2    1    2    0    0  0.00000000000E+00  0.00000000000E+00  0.27053496576E+03  0.53216518784E+03  0.45826915612E+03 0.  0.
      99925    2    3    3    0    0  0.84885732991E+02  0.10412436718E+02  0.26113702881E+03  0.38034346402E+03  0.26297261512E+03 0.  0.
         25    1    4    4    0    0  0.84449682809E+02  0.12248899669E+02  0.14353367553E+03  0.20864133958E+03  0.12509000000E+03 0.  0.
         25    1    3    3    0    0 -0.84885732991E+02 -0.10412436718E+02  0.93979369533E+01  0.15182172382E+03  0.12509000000E+03 0.  0.
         25    1    4    4    0    0  0.43605018199E+00 -0.18364629514E+01  0.11760335328E+03  0.17170212445E+03  0.12509000000E+03 0.  0.
<mgrwt>
<rscale>  2 0.45826916E+03</rscale>
<asrwt>0</asrwt>
<pdfrwt beam="1">  1       21 0.59022070E-01 0.45826916E+03</pdfrwt>
<pdfrwt beam="2">  1       21 0.19237516E-01 0.45826916E+03</pdfrwt>
<totfact> 0.61452385E+04</totfact>
</mgrwt>
</event>
<event>
 7    0  0.4748297E-002  0.4575202E+03  0.7546771E-02  0.1025503E+00
         21   -1    0    0  502  501  0.00000000000E+00  0.00000000000E+00  0.60854555062E+03  0.60854555062E+03  0.00000000000E+00 0.  1.
         21   -1    0    0  501  502 -0.00000000000E+00 -0.00000000000E+00 -0.85993850072E+02  0.85993850072E+02  0.00000000000E+00 0.  1.
      99926    2    1    2    0    0  0.00000000000E+00  0.00000000000E+00  0.52255170055E+03  0.69453940069E+03  0.45752016280E+03 0.  0.
      99925    2    3    3    0    0 -0.10727996661E+03 -0.11621303829E+02  0.26577480044E+03  0.38921018416E+03  0.26306705793E+03 0.  0.
         25    1    3    3    0    0  0.10727996661E+03  0.11621303829E+02  0.25677690011E+03  0.30532921653E+03  0.12509000000E+03 0.  0.
         25    1    4    4    0    0 -0.46212806686E+02 -0.39515212211E+02  0.16105483826E+03  0.21279860085E+03  0.12509000000E+03 0.  0.
         25    1    4    4    0    0 -0.61067159925E+02  0.27893908381E+02  0.10471996218E+03  0.17641158331E+03  0.12509000000E+03 0.  0.
<mgrwt>
<rscale>  2 0.45752016E+03</rscale>
<asrwt>0</asrwt>
<pdfrwt beam="1">  1       21 0.89491990E-01 0.45752016E+03</pdfrwt>
<pdfrwt beam="2">  1       21 0.12646155E-01 0.45752016E+03</pdfrwt>
<totfact> 0.52158122E+04</totfact>
</mgrwt>
</event>
<event>
 7    0  0.4748297E-002  0.4429852E+03  0.7546771E-02  0.1029835E+00
         21   -1    0    0  502  501  0.00000000000E+00  0.00000000000E+00  0.11402773154E+03  0.11402773154E+03  0.00000000000E+00 0.  1.
         21   -1    0    0  501  502 -0.00000000000E+00 -0.00000000000E+00 -0.43023728929E+03  0.43023728929E+03  0.00000000000E+00 0.  1.
      99926    2    1    2    0    0  0.00000000000E+00 -0.17763568394E-14 -0.31620955774E+03  0.54426502083E+03  0.44298524636E+03 0.  0.
      99925    2    3    3    0    0 -0.83816201305E+02  0.42498079601E+01 -0.13041269392E+03  0.30507639406E+03  0.26271832637E+03 0.  0.
         25    1    3    3    0    0  0.83816201305E+02 -0.42498079601E+01 -0.18579686382E+03  0.23918862677E+03  0.12509000000E+03 0.  0.
         25    1    4    4    0    0 -0.37894874398E+02  0.41392691685E+02 -0.57091330942E+02  0.14851365122E+03  0.12509000000E+03 0.  0.
         25    1    4    4    0    0 -0.45921326907E+02 -0.37142883725E+02 -0.73321362981E+02  0.15656274284E+03  0.12509000000E+03 0.  0.
<mgrwt>
<rscale>  2 0.44298525E+03</rscale>
<asrwt>0</asrwt>
<pdfrwt beam="1">  1       21 0.16768784E-01 0.44298525E+03</pdfrwt>
<pdfrwt beam="2">  1       21 0.63270189E-01 0.44298525E+03</pdfrwt>
<totfact> 0.68534022E+04</totfact>
</mgrwt>
</event>
<event>
 7    0  0.4748297E-002  0.4497944E+03  0.7546771E-02  0.1027783E+00
         21   -1    0    0  502  501  0.00000000000E+00  0.00000000000E+00  0.12216574810E+03  0.12216574810E+03  0.00000000000E+00 0. -1.
         21   -1    0    0  501  502 -0.00000000000E+00 -0.00000000000E+00 -0.41401735991E+03  0.41401735991E+03  0.00000000000E+00 0. -1.
      99926    2    1    2    0    0  0.00000000000E+00  0.00000000000E+00 -0.29185161181E+03  0.53618310801E+03  0.44979435522E+03 0.  0.
      99925    2    3    3    0    0 -0.34959097357E+02  0.45085772835E+02 -0.29389521952E+03  0.39868201771E+03  0.26328328049E+03 0.  0.
         25    1    4    4    0    0 -0.40626491674E+02  0.16576318888E+01 -0.18585286963E+03  0.22768850831E+03  0.12509000000E+03 0.  0.
         25    1    4    4    0    0  0.56673943172E+01  0.43428140946E+02 -0.10804234989E+03  0.17099350939E+03  0.12509000000E+03 0.  0.
         25    1    3    3    0    0  0.34959097357E+02 -0.45085772835E+02  0.20436077103E+01  0.13750109030E+03  0.12509000000E+03 0.  0.
<mgrwt>
<rscale>  2 0.44979436E+03</rscale>
<asrwt>0</asrwt>
<pdfrwt beam="1">  1       21 0.17965551E-01 0.44979436E+03</pdfrwt>
<pdfrwt beam="2">  1       21 0.60884906E-01 0.44979436E+03</pdfrwt>
<totfact> 0.65443818E+04</totfact>
</mgrwt>
</event>
<event>
 7    0  0.4748297E-002  0.4448052E+03  0.7546771E-02  0.1029283E+00
         21   -1    0    0  502  501  0.00000000000E+00  0.00000000000E+00  0.13671916457E+03  0.13671916457E+03  0.00000000000E+00 0. -1.
         21   -1    0    0  501  502 -0.00000000000E+00 -0.00000000000E+00 -0.36178478463E+03  0.36178478463E+03  0.00000000000E+00 0. -1.
      99926    2    1    2    0    0 -0.71054273576E-14  0.00000000000E+00 -0.22506562006E+03  0.49850394920E+03  0.44480518661E+03 0.  0.
      99925    2    3    3    0    0  0.62965701303E+02 -0.80823667075E+02 -0.12790589004E+03  0.30986496612E+03  0.26298143627E+03 0.  0.
         25    1    4    4    0    0  0.26042457597E+02 -0.64640898055E+02 -0.10226581986E+03  0.17596153361E+03  0.12509000000E+03 0.  0.
         25    1    3    3    0    0 -0.62965701303E+02  0.80823667075E+02 -0.97159730024E+02  0.18863898308E+03  0.12509000000E+03 0.  0.
         25    1    4    4    0    0  0.36923243706E+02 -0.16182769020E+02 -0.25640070181E+02  0.13390343251E+03  0.12509000000E+03 0.  0.
<mgrwt>
<rscale>  2 0.44480519E+03</rscale>
<asrwt>0</asrwt>
<pdfrwt beam="1">  1       21 0.20105760E-01 0.44480519E+03</pdfrwt>
<pdfrwt beam="2">  1       21 0.53203644E-01 0.44480519E+03</pdfrwt>
<totfact> 0.70945301E+04</totfact>
</mgrwt>
</event>
<event>
 7    0  0.4748297E-002  0.4548934E+03  0.7546771E-02  0.1026273E+00
         21   -1    0    0  502  501  0.00000000000E+00  0.00000000000E+00  0.30041698961E+03  0.30041698961E+03  0.00000000000E+00 0. -1.
         21   -1    0    0  501  502 -0.00000000000E+00 -0.00000000000E+00 -0.17220067677E+03  0.17220067677E+03  0.00000000000E+00 0. -1.
      99926    2    1    2    0    0  0.00000000000E+00  0.00000000000E+00  0.12821631284E+03  0.47261766638E+03  0.45489343334E+03 0.  0.
      99925    2    3    3    0    0 -0.48871566003E+02  0.18296240559E+02  0.18496899365E+03  0.32567700740E+03  0.26292356714E+03 0.  0.
         25    1    3    3    0    0  0.48871566003E+02 -0.18296240559E+02 -0.56752680804E+02  0.14694065898E+03  0.12509000000E+03 0.  0.
         25    1    4    4    0    0 -0.29428299353E+02 -0.30056695948E+02  0.80683382773E+02  0.15468272732E+03  0.12509000000E+03 0.  0.
         25    1    4    4    0    0 -0.19443266650E+02  0.48352936507E+02  0.10428561087E+03  0.17099428008E+03  0.12509000000E+03 0.  0.
<mgrwt>
<rscale>  2 0.45489343E+03</rscale>
<asrwt>0</asrwt>
<pdfrwt beam="1">  1       21 0.44178969E-01 0.45489343E+03</pdfrwt>
<pdfrwt beam="2">  1       21 0.25323629E-01 0.45489343E+03</pdfrwt>
<totfact> 0.67298469E+04</totfact>
</mgrwt>
</event>
<event>
 7    0  0.4748297E-002  0.4533879E+03  0.7546771E-02  0.1026717E+00
         21   -1    0    0  502  501  0.00000000000E+00  0.00000000000E+00  0.44966082664E+02  0.44966082664E+02  0.00000000000E+00 0.  1.
         21   -1    0    0  501  502 -0.00000000000E+00 -0.00000000000E+00 -0.11428647455E+04  0.11428647455E+04  0.00000000000E+00 0.  1.
      99926    2    1    2    0    0  0.88817841970E-15 -0.14210854715E-13 -0.10978986629E+04  0.11878308282E+04  0.45338791612E+03 0.  0.
      99925    2    3    3    0    0  0.43635338655E+01  0.11040553583E+03 -0.64949503068E+03  0.70937315166E+03  0.26297918294E+03 0.  0.
         25    1    4    4    0    0  0.19432150736E+02  0.25738557434E+02 -0.23844621004E+03  0.27119031141E+03  0.12509000000E+03 0.  0.
         25    1    4    4    0    0 -0.15068616870E+02  0.84666978395E+02 -0.41104882064E+03  0.43818284025E+03  0.12509000000E+03 0.  0.
         25    1    3    3    0    0 -0.43635338655E+01 -0.11040553583E+03 -0.44840363218E+03  0.47845767652E+03  0.12509000000E+03 0.  0.
<mgrwt>
<rscale>  2 0.45338792E+03</rscale>
<asrwt>0</asrwt>
<pdfrwt beam="1">  1       21 0.66126590E-02 0.45338792E+03</pdfrwt>
<pdfrwt beam="2">  1       21 0.16806835E+00 0.45338792E+03</pdfrwt>
<totfact> 0.32956003E+04</totfact>
</mgrwt>
</event>
<event>
 7    0  0.4748297E-002  0.4535759E+03  0.7546771E-02  0.1026661E+00
         21   -1    0    0  502  501  0.00000000000E+00  0.00000000000E+00  0.92139225069E+03  0.92139225069E+03  0.00000000000E+00 0. -1.
         21   -1    0    0  501  502 -0.00000000000E+00 -0.00000000000E+00 -0.55820724539E+02  0.55820724539E+02  0.00000000000E+00 0. -1.
      99926    2    1    2    0    0  0.00000000000E+00  0.00000000000E+00  0.86557152616E+03  0.97721297523E+03  0.45357593859E+03 0.  0.
      99925    2    3    3    0    0  0.30452301098E+02  0.40751510447E+02  0.33201523267E+03  0.42683323845E+03  0.26337135469E+03 0.  0.
         25    1    4    4    0    0  0.49490835658E+01  0.52932420703E+02  0.20774255736E+03  0.24825553937E+03  0.12509000000E+03 0.  0.
         25    1    3    3    0    0 -0.30452301098E+02 -0.40751510447E+02  0.53355629348E+03  0.55037973678E+03  0.12509000000E+03 0.  0.
         25    1    4    4    0    0  0.25503217532E+02 -0.12180910256E+02  0.12427267531E+03  0.17857769908E+03  0.12509000000E+03 0.  0.
<mgrwt>
<rscale>  2 0.45357594E+03</rscale>
<asrwt>0</asrwt>
<pdfrwt beam="1">  1       21 0.13549885E+00 0.45357594E+03</pdfrwt>
<pdfrwt beam="2">  1       21 0.82089307E-02 0.45357594E+03</pdfrwt>
<totfact> 0.40507063E+04</totfact>
</mgrwt>
</event>
<event>
 7    0  0.4748297E-002  0.4526409E+03  0.7546771E-02  0.1026937E+00
         21   -1    0    0  502  501  0.00000000000E+00  0.00000000000E+00  0.39805094856E+03  0.39805094856E+03  0.00000000000E+00 0. -1.
         21   -1    0    0  501  502 -0.00000000000E+00 -0.00000000000E+00 -0.12867937599E+03  0.12867937599E+03  0.00000000000E+00 0. -1.
      99926    2    1    2    0    0  0.00000000000E+00 -0.71054273576E-14  0.26937157257E+03  0.52673032455E+03  0.45264090700E+03 0.  0.
      99925    2    3    3    0    0 -0.91055533096E+02  0.57131073830E+02  0.19960654541E+03  0.34765007210E+03  0.26355783038E+03 0.  0.
         25    1    3    3    0    0  0.91055533096E+02 -0.57131073830E+02  0.69765027157E+02  0.17908025245E+03  0.12509000000E+03 0.  0.
         25    1    4    4    0    0 -0.82434374187E+02  0.82816553586E+01  0.10781109070E+03  0.18475592343E+03  0.12509000000E+03 0.  0.
         25    1    4    4    0    0 -0.86211589093E+01  0.48849418471E+02  0.91795454714E+02  0.16289414867E+03  0.12509000000E+03 0.  0.
<mgrwt>
<rscale>  2 0.45264091E+03</rscale>
<asrwt>0</asrwt>
<pdfrwt beam="1">  1       21 0.58536904E-01 0.45264091E+03</pdfrwt>
<pdfrwt beam="2">  1       21 0.18923438E-01 0.45264091E+03</pdfrwt>
<totfact> 0.64628494E+04</totfact>
</mgrwt>
</event>
<event>
 7    0  0.4748297E-002  0.4538567E+03  0.7546771E-02  0.1026578E+00
         21   -1    0    0  502  501  0.00000000000E+00  0.00000000000E+00  0.86039504093E+02  0.86039504093E+02  0.00000000000E+00 0.  1.
         21   -1    0    0  501  502 -0.00000000000E+00 -0.00000000000E+00 -0.59852134952E+03  0.59852134952E+03  0.00000000000E+00 0.  1.
      99926    2    1    2    0    0  0.00000000000E+00  0.00000000000E+00 -0.51248184542E+03  0.68456085361E+03  0.45385671793E+03 0.  0.
      99925    2    3    3    0    0  0.81709779621E+02  0.10673057147E+02 -0.20766611057E+03  0.34492790093E+03  0.26279201115E+03 0.  0.
         25    1    4    4    0    0  0.48544808730E+01  0.25562385214E+02 -0.92363196943E+02  0.15765617581E+03  0.12509000000E+03 0.  0.
         25    1    4    4    0    0  0.76855298748E+02 -0.14889328067E+02 -0.11530291363E+03  0.18727172511E+03  0.12509000000E+03 0.  0.
         25    1    3    3    0    0 -0.81709779621E+02 -0.10673057147E+02 -0.30481573485E+03  0.33963295268E+03  0.12509000000E+03 0.  0.
<mgrwt>
<rscale>  2 0.45385672E+03</rscale>
<asrwt>0</asrwt>
<pdfrwt beam="1">  1       21 0.12652868E-01 0.45385672E+03</pdfrwt>
<pdfrwt beam="2">  1       21 0.88017846E-01 0.45385672E+03</pdfrwt>
<totfact> 0.54236035E+04</totfact>
</mgrwt>
</event>
<event>
 7    0  0.4748297E-002  0.4481974E+03  0.7546771E-02  0.1028261E+00
         21   -1    0    0  502  501  0.00000000000E+00  0.00000000000E+00  0.12420520757E+03  0.12420520757E+03  0.00000000000E+00 0. -1.
         21   -1    0    0  501  502 -0.00000000000E+00 -0.00000000000E+00 -0.40433264427E+03  0.40433264427E+03  0.00000000000E+00 0. -1.
      99926    2    1    2    0    0  0.00000000000E+00  0.00000000000E+00 -0.28012743669E+03  0.52853785184E+03  0.44819736728E+03 0.  0.
      99925    2    3    3    0    0  0.25228061925E+02 -0.81867473784E+02 -0.10257913144E+03  0.29506484019E+03  0.26306281253E+03 0.  0.
         25    1    4    4    0    0 -0.48788128513E+01 -0.44564096036E+02 -0.90051546921E+02  0.16051962707E+03  0.12509000000E+03 0.  0.
         25    1    4    4    0    0  0.30106874776E+02 -0.37303377748E+02 -0.12527584517E+02  0.13454521312E+03  0.12509000000E+03 0.  0.
         25    1    3    3    0    0 -0.25228061925E+02  0.81867473784E+02 -0.17754830525E+03  0.23347301165E+03  0.12509000000E+03 0.  0.
<mgrwt>
<rscale>  2 0.44819737E+03</rscale>
<asrwt>0</asrwt>
<pdfrwt beam="1">  1       21 0.18265472E-01 0.44819737E+03</pdfrwt>
<pdfrwt beam="2">  1       21 0.59460682E-01 0.44819737E+03</pdfrwt>
<totfact> 0.66834429E+04</totfact>
</mgrwt>
</event>
<event>
 7    0  0.4748297E-002  0.4540572E+03  0.7546771E-02  0.1026519E+00
         21   -1    0    0  502  501  0.00000000000E+00  0.00000000000E+00  0.92367914825E+02  0.92367914825E+02  0.00000000000E+00 0. -1.
         21   -1    0    0  501  502 -0.00000000000E+00 -0.00000000000E+00 -0.55800742533E+03  0.55800742533E+03  0.00000000000E+00 0. -1.
      99926    2    1    2    0    0  0.66613381478E-15 -0.88817841970E-15 -0.46563951051E+03  0.65037534016E+03  0.45405718730E+03 0.  0.
      99925    2    3    3    0    0 -0.17946233760E+01  0.65415094294E+01 -0.13260912494E+03  0.29456252725E+03  0.26293704650E+03 0.  0.
         25    1    3    3    0    0  0.17946233760E+01 -0.65415094294E+01 -0.33303038557E+03  0.35581281291E+03  0.12509000000E+03 0.  0.
         25    1    4    4    0    0 -0.12928285106E+02  0.18319279865E+02 -0.10637353043E+03  0.16572740463E+03  0.12509000000E+03 0.  0.
         25    1    4    4    0    0  0.11133661730E+02 -0.11777770435E+02 -0.26235594511E+02  0.12883512262E+03  0.12509000000E+03 0.  0.
<mgrwt>
<rscale>  2 0.45405719E+03</rscale>
<asrwt>0</asrwt>
<pdfrwt beam="1">  1       21 0.13583517E-01 0.45405719E+03</pdfrwt>
<pdfrwt beam="2">  1       21 0.82059913E-01 0.45405719E+03</pdfrwt>
<totfact> 0.56095933E+04</totfact>
</mgrwt>
</event>
<event>
 7    0  0.4748297E-002  0.4586866E+03  0.7546771E-02  0.1025163E+00
         21   -1    0    0  502  501  0.00000000000E+00  0.00000000000E+00  0.17970272848E+03  0.17970272848E+03  0.00000000000E+00 0.  1.
         21   -1    0    0  501  502 -0.00000000000E+00 -0.00000000000E+00 -0.29269638735E+03  0.29269638735E+03  0.00000000000E+00 0.  1.
      99926    2    1    2    0    0  0.00000000000E+00  0.00000000000E+00 -0.11299365887E+03  0.47239911582E+03  0.45868655713E+03 0.  0.
      99925    2    3    3    0    0  0.86799816749E+02  0.68265740489E+02 -0.10924275708E+03  0.30549795682E+03  0.26306007325E+03 0.  0.
         25    1    4    4    0    0  0.38820721480E+02  0.24959927665E+02 -0.10948680173E+02  0.13378126963E+03  0.12509000000E+03 0.  0.
         25    1    4    4    0    0  0.47979095270E+02  0.43305812824E+02 -0.98294076903E+02  0.17171668720E+03  0.12509000000E+03 0.  0.
         25    1    3    3    0    0 -0.86799816749E+02 -0.68265740489E+02 -0.37509017907E+01  0.16690115900E+03  0.12509000000E+03 0.  0.
<mgrwt>
<rscale>  2 0.45868656E+03</rscale>
<asrwt>0</asrwt>
<pdfrwt beam="1">  1       21 0.26426872E-01 0.45868656E+03</pdfrwt>
<pdfrwt beam="2">  1       21 0.43043586E-01 0.45868656E+03</pdfrwt>
<totfact> 0.65326238E+04</totfact>
</mgrwt>
</event>
<event>
 7    0  0.4748297E-002  0.4589474E+03  0.7546771E-02  0.1025087E+00
         21   -1    0    0  502  501  0.00000000000E+00  0.00000000000E+00  0.20056533384E+03  0.20056533384E+03  0.00000000000E+00 0. -1.
         21   -1    0    0  501  502 -0.00000000000E+00 -0.00000000000E+00 -0.26254877423E+03  0.26254877423E+03  0.00000000000E+00 0. -1.
      99926    2    1    2    0    0  0.14210854715E-13 -0.14210854715E-13 -0.61983440392E+02  0.46311410806E+03  0.45894741551E+03 0.  0.
      99925    2    3    3    0    0 -0.89236253858E+02 -0.68749252314E+02 -0.78978957932E+01  0.28630256169E+03  0.26309164064E+03 0.  0.
         25    1    4    4    0    0 -0.50583007002E+02  0.51324336967E+01  0.71575829357E+01  0.13521731238E+03  0.12509000000E+03 0.  0.
         25    1    3    3    0    0  0.89236253858E+02  0.68749252314E+02 -0.54085544598E+02  0.17681154637E+03  0.12509000000E+03 0.  0.
         25    1    4    4    0    0 -0.38653246856E+02 -0.73881686011E+02 -0.15055478729E+02  0.15108524931E+03  0.12509000000E+03 0.  0.
<mgrwt>
<rscale>  2 0.45894742E+03</rscale>
<asrwt>0</asrwt>
<pdfrwt beam="1">  1       21 0.29494902E-01 0.45894742E+03</pdfrwt>
<pdfrwt beam="2">  1       21 0.38610114E-01 0.45894742E+03</pdfrwt>
<totfact> 0.65856512E+04</totfact>
</mgrwt>
</event>
<event>
 7    0  0.4748297E-002  0.4521251E+03  0.7546771E-02  0.1027090E+00
         21   -1    0    0  502  501  0.00000000000E+00  0.00000000000E+00  0.65733653313E+03  0.65733653313E+03  0.00000000000E+00 0. -1.
         21   -1    0    0  501  502 -0.00000000000E+00 -0.00000000000E+00 -0.77744472551E+02  0.77744472551E+02  0.00000000000E+00 0. -1.
      99926    2    1    2    0    0  0.00000000000E+00  0.00000000000E+00  0.57959206057E+03  0.73508100568E+03  0.45212512452E+03 0.  0.
      99925    2    3    3    0    0  0.80199586116E+02  0.75943261923E+02  0.36334658627E+03  0.46193458725E+03  0.26298948362E+03 0.  0.
         25    1    3    3    0    0 -0.80199586116E+02 -0.75943261923E+02  0.21624547430E+03  0.27314641843E+03  0.12509000000E+03 0.  0.
         25    1    4    4    0    0  0.47989165269E+01  0.26229068245E+02  0.19861636963E+03  0.23623497625E+03  0.12509000000E+03 0.  0.
         25    1    4    4    0    0  0.75400669589E+02  0.49714193678E+02  0.16473021665E+03  0.22569961100E+03  0.12509000000E+03 0.  0.
<mgrwt>
<rscale>  2 0.45212512E+03</rscale>
<asrwt>0</asrwt>
<pdfrwt beam="1">  1       21 0.96667134E-01 0.45212512E+03</pdfrwt>
<pdfrwt beam="2">  1       21 0.11433011E-01 0.45212512E+03</pdfrwt>
<totfact> 0.52209500E+04</totfact>
</mgrwt>
</event>
<event>
 7    0  0.4748297E-002  0.4597355E+03  0.7546771E-02  0.1024858E+00
         21   -1    0    0  502  501  0.00000000000E+00  0.00000000000E+00  0.62981609549E+03  0.62981609549E+03  0.00000000000E+00 0. -1.
         21   -1    0    0  501  502 -0.00000000000E+00 -0.00000000000E+00 -0.83896215923E+02  0.83896215923E+02  0.00000000000E+00 0. -1.
      99926    2    1    2    0    0  0.00000000000E+00  0.00000000000E+00  0.54591987957E+03  0.71371231142E+03  0.45973552023E+03 0.  0.
      99925    2    3    3    0    0  0.11648734130E+03  0.14333006805E+02  0.33228462973E+03  0.43973737855E+03  0.26302310007E+03 0.  0.
         25    1    4    4    0    0  0.51008705182E+02  0.69608062868E+01  0.22390152626E+03  0.26159079187E+03  0.12509000000E+03 0.  0.
         25    1    4    4    0    0  0.65478636113E+02  0.73722005179E+01  0.10838310347E+03  0.17814658668E+03  0.12509000000E+03 0.  0.
         25    1    3    3    0    0 -0.11648734130E+03 -0.14333006805E+02  0.21363524984E+03  0.27397493287E+03  0.12509000000E+03 0.  0.
<mgrwt>
<rscale>  2 0.45973552E+03</rscale>
<asrwt>0</asrwt>
<pdfrwt beam="1">  1       21 0.92620012E-01 0.45973552E+03</pdfrwt>
<pdfrwt beam="2">  1       21 0.12337679E-01 0.45973552E+03</pdfrwt>
<totfact> 0.50265851E+04</totfact>
</mgrwt>
</event>
<event>
 7    0  0.4748297E-002  0.4556391E+03  0.7546771E-02  0.1026054E+00
         21   -1    0    0  502  501  0.00000000000E+00  0.00000000000E+00  0.51982026856E+03  0.51982026856E+03  0.00000000000E+00 0. -1.
         21   -1    0    0  501  502 -0.00000000000E+00 -0.00000000000E+00 -0.99845572226E+02  0.99845572226E+02  0.00000000000E+00 0. -1.
      99926    2    1    2    0    0  0.00000000000E+00  0.00000000000E+00  0.41997469634E+03  0.61966584079E+03  0.45563912110E+03 0.  0.
      99925    2    3    3    0    0 -0.10432874215E+03 -0.42714832468E+02  0.28457912245E+03  0.40359059260E+03  0.26304190949E+03 0.  0.
         25    1    4    4    0    0 -0.79274206630E+02 -0.46061985952E+02  0.12459362020E+03  0.19894015352E+03  0.12509000000E+03 0.  0.
         25    1    3    3    0    0  0.10432874215E+03  0.42714832468E+02  0.13539557389E+03  0.21607524819E+03  0.12509000000E+03 0.  0.
         25    1    4    4    0    0 -0.25054535524E+02  0.33471534842E+01  0.15998550224E+03  0.20465043908E+03  0.12509000000E+03 0.  0.
<mgrwt>
<rscale>  2 0.45563912E+03</rscale>
<asrwt>0</asrwt>
<pdfrwt beam="1">  1       21 0.76444156E-01 0.45563912E+03</pdfrwt>
<pdfrwt beam="2">  1       21 0.14683173E-01 0.45563912E+03</pdfrwt>
<totfact> 0.57194622E+04</totfact>
</mgrwt>
</event>
<event>
 7    0  0.4748297E-002  0.4516690E+03  0.7546771E-02  0.1027225E+00
         21   -1    0    0  502  501  0.00000000000E+00  0.00000000000E+00  0.24894322741E+02  0.24894322741E+02  0.00000000000E+00 0. -1.
         21   -1    0    0  501  502 -0.00000000000E+00 -0.00000000000E+00 -0.20487091619E+04  0.20487091619E+04  0.00000000000E+00 0. -1.
      99926    2    1    2    0    0  0.00000000000E+00 -0.71054273576E-14 -0.20238148392E+04  0.20736034847E+04  0.45166902519E+03 0.  0.
      99925    2    3    3    0    0 -0.88976494166E+02 -0.56506819073E+02 -0.11298422877E+04  0.11647887247E+04  0.26282949013E+03 0.  0.
         25    1    3    3    0    0  0.88976494166E+02  0.56506819073E+02 -0.89397255147E+03  0.90881476000E+03  0.12509000000E+03 0.  0.
         25    1    4    4    0    0 -0.55570044044E+02 -0.42860114738E+02 -0.74028684771E+03  0.75405380725E+03  0.12509000000E+03 0.  0.
         25    1    4    4    0    0 -0.33406450122E+02 -0.13646704335E+02 -0.38955544000E+03  0.41073491742E+03  0.12509000000E+03 0.  0.
<mgrwt>
<rscale>  2 0.45166903E+03</rscale>
<asrwt>0</asrwt>
<pdfrwt beam="1">  1       21 0.36609297E-02 0.45166903E+03</pdfrwt>
<pdfrwt beam="2">  1       21 0.30128077E+00 0.45166903E+03</pdfrwt>
<totfact> 0.12874932E+04</totfact>
</mgrwt>
</event>
<event>
 7    0  0.4748297E-002  0.4512445E+03  0.7546771E-02  0.1027352E+00
         21   -1    0    0  502  501  0.00000000000E+00  0.00000000000E+00  0.98504823379E+02  0.98504823379E+02  0.00000000000E+00 0. -1.
         21   -1    0    0  501  502 -0.00000000000E+00 -0.00000000000E+00 -0.51678080509E+03  0.51678080509E+03  0.00000000000E+00 0. -1.
      99926    2    1    2    0    0  0.00000000000E+00  0.00000000000E+00 -0.41827598171E+03  0.61528562846E+03  0.45124450991E+03 0.  0.
      99925    2    3    3    0    0 -0.10531022460E+03 -0.28161380680E+02 -0.27910113324E+03  0.39872050359E+03  0.26305377899E+03 0.  0.
         25    1    4    4    0    0 -0.77314090616E+02  0.38839010676E+01 -0.10776780287E+03  0.18235668546E+03  0.12509000000E+03 0.  0.
         25    1    3    3    0    0  0.10531022460E+03  0.28161380680E+02 -0.13917484846E+03  0.21656512487E+03  0.12509000000E+03 0.  0.
         25    1    4    4    0    0 -0.27996133983E+02 -0.32045281748E+02 -0.17133333037E+03  0.21636381813E+03  0.12509000000E+03 0.  0.
<mgrwt>
<rscale>  2 0.45124451E+03</rscale>
<asrwt>0</asrwt>
<pdfrwt beam="1">  1       21 0.14486003E-01 0.45124451E+03</pdfrwt>
<pdfrwt beam="2">  1       21 0.75997177E-01 0.45124451E+03</pdfrwt>
<totfact> 0.59492062E+04</totfact>
</mgrwt>
</event>
<event>
 7    0  0.4748297E-002  0.4638701E+03  0.7546771E-02  0.1023665E+00
         21   -1    0    0  502  501  0.00000000000E+00  0.00000000000E+00  0.69374760808E+02  0.69374760808E+02  0.00000000000E+00 0.  1.
         21   -1    0    0  501  502 -0.00000000000E+00 -0.00000000000E+00 -0.77540973079E+03  0.77540973079E+03  0.00000000000E+00 0.  1.
      99926    2    1    2    0    0  0.17763568394E-14  0.00000000000E+00 -0.70603496999E+03  0.84478449160E+03  0.46387008786E+03 0.  0.
      99925    2    3    3    0    0 -0.10277714195E+02  0.90409072619E+02 -0.58681032644E+03  0.64948611591E+03  0.26307113813E+03 0.  0.
         25    1    4    4    0    0  0.13058672288E+02  0.79013411787E+02 -0.27566599426E+03  0.31313399154E+03  0.12509000000E+03 0.  0.
         25    1    3    3    0    0  0.10277714195E+02 -0.90409072619E+02 -0.11922464354E+03  0.19529837569E+03  0.12509000000E+03 0.  0.
         25    1    4    4    0    0 -0.23336386483E+02  0.11395660831E+02 -0.31114433218E+03  0.33635212437E+03  0.12509000000E+03 0.  0.
<mgrwt>
<rscale>  2 0.46387009E+03</rscale>
<asrwt>0</asrwt>
<pdfrwt beam="1">  1       21 0.10202171E-01 0.46387009E+03</pdfrwt>
<pdfrwt beam="2">  1       21 0.11403084E+00 0.46387009E+03</pdfrwt>
<totfact> 0.42628842E+04</totfact>
</mgrwt>
</event>
<event>
 7    0  0.4748297E-002  0.4392052E+03  0.7546771E-02  0.1030991E+00
         21   -1    0    0  502  501  0.00000000000E+00  0.00000000000E+00  0.57155403888E+03  0.57155403888E+03  0.00000000000E+00 0. -1.
         21   -1    0    0  501  502 -0.00000000000E+00 -0.00000000000E+00 -0.84375734199E+02  0.84375734199E+02  0.00000000000E+00 0. -1.
      99926    2    1    2    0    0  0.00000000000E+00  0.71054273576E-14  0.48717830468E+03  0.65592977308E+03  0.43920515327E+03 0.  0.
      99925    2    3    3    0    0  0.34857181410E+02  0.62982155655E+02  0.21235293188E+03  0.34551349023E+03  0.26287645239E+03 0.  0.
         25    1    4    4    0    0  0.96643292927E+01 -0.94308741144E+01  0.10015515783E+03  0.16081325936E+03  0.12509000000E+03 0.  0.
         25    1    4    4    0    0  0.25192852117E+02  0.72413029770E+02  0.11219777406E+03  0.18470023087E+03  0.12509000000E+03 0.  0.
         25    1    3    3    0    0 -0.34857181410E+02 -0.62982155655E+02  0.27482537280E+03  0.31041628285E+03  0.12509000000E+03 0.  0.
<mgrwt>
<rscale>  2 0.43920515E+03</rscale>
<asrwt>0</asrwt>
<pdfrwt beam="1">  1       21 0.84052063E-01 0.43920515E+03</pdfrwt>
<pdfrwt beam="2">  1       21 0.12408196E-01 0.43920515E+03</pdfrwt>
<totfact> 0.62825462E+04</totfact>
</mgrwt>
</event>
<event>
 7    0  0.4748297E-002  0.4389679E+03  0.7546771E-02  0.1031064E+00
         21   -1    0    0  502  501  0.00000000000E+00  0.00000000000E+00  0.23761346180E+03  0.23761346180E+03  0.00000000000E+00 0. -1.
         21   -1    0    0  501  502 -0.00000000000E+00 -0.00000000000E+00 -0.20273769995E+03  0.20273769995E+03  0.00000000000E+00 0. -1.
      99926    2    1    2    0    0  0.00000000000E+00  0.00000000000E+00  0.34875761855E+02  0.44035116175E+03  0.43896791100E+03 0.  0.
      99925    2    3    3    0    0 -0.25083508686E+02 -0.54253782480E+02 -0.54801833407E+02  0.27523836845E+03  0.26302141205E+03 0.  0.
         25    1    3    3    0    0  0.25083508686E+02  0.54253782480E+02  0.89677595262E+02  0.16511279331E+03  0.12509000000E+03 0.  0.
         25    1    4    4    0    0  0.43503011339E+01 -0.23149264759E+02  0.10601828095E+02  0.12772909002E+03  0.12509000000E+03 0.  0.
         25    1    4    4    0    0 -0.29433809820E+02 -0.31104517721E+02 -0.65403661503E+02  0.14750927842E+03  0.12509000000E+03 0.  0.
<mgrwt>
<rscale>  2 0.43896791E+03</rscale>
<asrwt>0</asrwt>
<pdfrwt beam="1">  1       21 0.34943156E-01 0.43896791E+03</pdfrwt>
<pdfrwt beam="2">  1       21 0.29814367E-01 0.43896791E+03</pdfrwt>
<totfact> 0.79301235E+04</totfact>
</mgrwt>
</event>
<event>
 7    0  0.4748297E-002  0.4854857E+03  0.7546771E-02  0.1017638E+00
         21   -1    0    0  502  501  0.00000000000E+00  0.00000000000E+00  0.10722783370E+03  0.10722783370E+03  0.00000000000E+00 0. -1.
         21   -1    0    0  501  502 -0.00000000000E+00 -0.00000000000E+00 -0.54952243331E+03  0.54952243331E+03  0.00000000000E+00 0. -1.
      99926    2    1    2    0    0  0.00000000000E+00  0.00000000000E+00 -0.44229459961E+03  0.65675026701E+03  0.48548573653E+03 0.  0.
      99925    2    3    3    0    0  0.13221884296E+03  0.44327885805E+02 -0.28594362939E+03  0.41274223870E+03  0.26295553336E+03 0.  0.
         25    1    4    4    0    0  0.90558361626E+02  0.47293682616E+02 -0.19160978397E+03  0.25059793832E+03  0.12509000000E+03 0.  0.
         25    1    4    4    0    0  0.41660481330E+02 -0.29657968114E+01 -0.94333845419E+02  0.16214430038E+03  0.12509000000E+03 0.  0.
         25    1    3    3    0    0 -0.13221884296E+03 -0.44327885805E+02 -0.15635097022E+03  0.24400802831E+03  0.12509000000E+03 0.  0.
<mgrwt>
<rscale>  2 0.48548574E+03</rscale>
<asrwt>0</asrwt>
<pdfrwt beam="1">  1       21 0.15768799E-01 0.48548574E+03</pdfrwt>
<pdfrwt beam="2">  1       21 0.80812122E-01 0.48548574E+03</pdfrwt>
<totfact> 0.43792332E+04</totfact>
</mgrwt>
</event>
<event>
 7    0  0.4748297E-002  0.4569820E+03  0.7546771E-02  0.1025660E+00
         21   -1    0    0  502  501  0.00000000000E+00  0.00000000000E+00  0.63865748819E+03  0.63865748819E+03  0.00000000000E+00 0. -1.
         21   -1    0    0  501  502 -0.00000000000E+00 -0.00000000000E+00 -0.81746675428E+02  0.81746675428E+02  0.00000000000E+00 0. -1.
      99926    2    1    2    0    0  0.14210854715E-13  0.00000000000E+00  0.55691081276E+03  0.72040416362E+03  0.45698195324E+03 0.  0.
      99925    2    3    3    0    0  0.10350801684E+03 -0.49217559207E+01  0.42814889109E+03  0.51312349929E+03  0.26314657389E+03 0.  0.
         25    1    4    4    0    0  0.94894634508E+02 -0.27252567253E+01  0.25110293670E+03  0.29616315031E+03  0.12509000000E+03 0.  0.
         25    1    3    3    0    0 -0.10350801684E+03  0.49217559207E+01  0.12876192167E+03  0.20728066433E+03  0.12509000000E+03 0.  0.
         25    1    4    4    0    0  0.86133823317E+01 -0.21964991954E+01  0.17704595439E+03  0.21696034898E+03  0.12509000000E+03 0.  0.
<mgrwt>
<rscale>  2 0.45698195E+03</rscale>
<asrwt>0</asrwt>
<pdfrwt beam="1">  1       21 0.93920217E-01 0.45698195E+03</pdfrwt>
<pdfrwt beam="2">  1       21 0.12021570E-01 0.45698195E+03</pdfrwt>
<totfact> 0.51009294E+04</totfact>
</mgrwt>
</event>
<event>
 7    0  0.4748297E-002  0.4513713E+03  0.7546771E-02  0.1027314E+00
         21   -1    0    0  502  501  0.00000000000E+00  0.00000000000E+00  0.35167518043E+02  0.35167518043E+02  0.00000000000E+00 0. -1.
         21   -1    0    0  501  502 -0.00000000000E+00 -0.00000000000E+00 -0.14483255692E+04  0.14483255692E+04  0.00000000000E+00 0. -1.
      99926    2    1    2    0    0 -0.14210854715E-13  0.71054273576E-14 -0.14131580511E+04  0.14834930872E+04  0.45137131316E+03 0.  0.
      99925    2    3    3    0    0  0.88597704063E+02 -0.57690027065E+02 -0.79097246800E+03  0.84011131848E+03  0.26262499865E+03 0.  0.
         25    1    3    3    0    0 -0.88597704063E+02  0.57690027065E+02 -0.62218558312E+03  0.64338176873E+03  0.12509000000E+03 0.  0.
         25    1    4    4    0    0  0.78175172840E+02 -0.40749475336E+02 -0.36715066872E+03  0.39776751883E+03  0.12509000000E+03 0.  0.
         25    1    4    4    0    0  0.10422531223E+02 -0.16940551728E+02 -0.42382179927E+03  0.44234379965E+03  0.12509000000E+03 0.  0.
<mgrwt>
<rscale>  2 0.45137131E+03</rscale>
<asrwt>0</asrwt>
<pdfrwt beam="1">  1       21 0.51716939E-02 0.45137131E+03</pdfrwt>
<pdfrwt beam="2">  1       21 0.21298905E+00 0.45137131E+03</pdfrwt>
<totfact> 0.24880548E+04</totfact>
</mgrwt>
</event>
<event>
 7    0  0.4748297E-002  0.4481612E+03  0.7546771E-02  0.1028272E+00
         21   -1    0    0  502  501  0.00000000000E+00  0.00000000000E+00  0.16279393487E+03  0.16279393487E+03  0.00000000000E+00 0.  1.
         21   -1    0    0  501  502 -0.00000000000E+00 -0.00000000000E+00 -0.30843968146E+03  0.30843968146E+03  0.00000000000E+00 0.  1.
      99926    2    1    2    0    0  0.00000000000E+00 -0.71054273576E-14 -0.14564574660E+03  0.47123361633E+03  0.44816117375E+03 0.  0.
      99925    2    3    3    0    0  0.29507540888E+02  0.58628242578E+02 -0.39125883060E+01  0.27112424110E+03  0.26303056850E+03 0.  0.
         25    1    4    4    0    0  0.93731572312E+01 -0.75753872605E+01 -0.20063941598E+02  0.12726080473E+03  0.12509000000E+03 0.  0.
         25    1    4    4    0    0  0.20134383656E+02  0.66203629838E+02  0.16151353292E+02  0.14386343636E+03  0.12509000000E+03 0.  0.
         25    1    3    3    0    0 -0.29507540888E+02 -0.58628242578E+02 -0.14173315829E+03  0.20010937523E+03  0.12509000000E+03 0.  0.
<mgrwt>
<rscale>  2 0.44816117E+03</rscale>
<asrwt>0</asrwt>
<pdfrwt beam="1">  1       21 0.23940285E-01 0.44816117E+03</pdfrwt>
<pdfrwt beam="2">  1       21 0.45358776E-01 0.44816117E+03</pdfrwt>
<totfact> 0.71126501E+04</totfact>
</mgrwt>
</event>
<event>
 7    0  0.4748297E-002  0.4471806E+03  0.7546771E-02  0.1028566E+00
         21   -1    0    0  502  501  0.00000000000E+00  0.00000000000E+00  0.39192781064E+03  0.39192781064E+03  0.00000000000E+00 0.  1.
         21   -1    0    0  501  502 -0.00000000000E+00 -0.00000000000E+00 -0.12755571374E+03  0.12755571374E+03  0.00000000000E+00 0.  1.
      99926    2    1    2    0    0 -0.35527136788E-14  0.13322676296E-14  0.26437209690E+03  0.51948352438E+03  0.44718064189E+03 0.  0.
      99925    2    3    3    0    0  0.23623593067E+02 -0.39254427962E+01  0.28723197974E+03  0.39008659399E+03  0.26285330009E+03 0.  0.
         25    1    4    4    0    0 -0.35902867059E-01 -0.40491087305E+02  0.14169065803E+03  0.19329583574E+03  0.12509000000E+03 0.  0.
         25    1    3    3    0    0 -0.23623593067E+02  0.39254427962E+01 -0.22859882845E+02  0.12939693039E+03  0.12509000000E+03 0.  0.
         25    1    4    4    0    0  0.23659495934E+02  0.36565644509E+02  0.14554132172E+03  0.19679075825E+03  0.12509000000E+03 0.  0.
<mgrwt>
<rscale>  2 0.44718064E+03</rscale>
<asrwt>0</asrwt>
<pdfrwt beam="1">  1       21 0.57636442E-01 0.44718064E+03</pdfrwt>
<pdfrwt beam="2">  1       21 0.18758193E-01 0.44718064E+03</pdfrwt>
<totfact> 0.68045170E+04</totfact>
</mgrwt>
</event>
<event>
 7    0  0.4748297E-002  0.4285671E+03  0.7546771E-02  0.1034314E+00
         21   -1    0    0  502  501  0.00000000000E+00  0.00000000000E+00  0.77816843649E+03  0.77816843649E+03  0.00000000000E+00 0. -1.
         21   -1    0    0  501  502 -0.00000000000E+00 -0.00000000000E+00 -0.59007078730E+02  0.59007078730E+02  0.00000000000E+00 0. -1.
      99926    2    1    2    0    0  0.00000000000E+00  0.00000000000E+00  0.71916135776E+03  0.83717551522E+03  0.42856712985E+03 0.  0.
      99925    2    3    3    0    0 -0.62066872609E+02  0.58873882418E+02  0.44822553770E+03  0.52673686202E+03  0.26311054419E+03 0.  0.
         25    1    4    4    0    0 -0.63189762919E+02  0.44847452071E+02  0.28359333423E+03  0.31949480029E+03  0.12509000000E+03 0.  0.
         25    1    4    4    0    0  0.11228903100E+01  0.14026430347E+02  0.16463220347E+03  0.20724206173E+03  0.12509000000E+03 0.  0.
         25    1    3    3    0    0  0.62066872609E+02 -0.58873882418E+02  0.27093582006E+03  0.31043865319E+03  0.12509000000E+03 0.  0.
<mgrwt>
<rscale>  2 0.42856713E+03</rscale>
<asrwt>0</asrwt>
<pdfrwt beam="1">  1       21 0.11443653E+00 0.42856713E+03</pdfrwt>
<pdfrwt beam="2">  1       21 0.86775121E-02 0.42856713E+03</pdfrwt>
<totfact> 0.56938067E+04</totfact>
</mgrwt>
</event>
<event>
 6    0  0.4748297E-002  0.4553958E+03  0.7546771E-02  0.1026125E+00
         21   -1    0    0  502  501  0.00000000000E+00  0.00000000000E+00  0.64930049075E+03  0.64930049075E+03  0.00000000000E+00 0. -1.
         21   -1    0    0  501  502 -0.00000000000E+00 -0.00000000000E+00 -0.79849523846E+02  0.79849523846E+02  0.00000000000E+00 0. -1.
      99926    2    1    2    0    0  0.00000000000E+00 -0.14210854715E-13  0.56945096691E+03  0.72915001460E+03  0.45539580595E+03 0.  0.
         25    1    3    3    0    0 -0.19874201996E+02  0.10637891269E+03  0.25264506865E+03  0.30197432968E+03  0.12509000000E+03 0.  0.
         25    1    3    3    0    0 -0.95074068660E+01 -0.79896005391E+02  0.12229109871E+03  0.19255228741E+03  0.12509000000E+03 0.  0.
         25    1    3    3    0    0  0.29381608862E+02 -0.26482907296E+02  0.19451479955E+03  0.23462339751E+03  0.12509000000E+03 0.  0.
<mgrwt>
<rscale>  2 0.45539581E+03</rscale>
<asrwt>0</asrwt>
<pdfrwt beam="1">  1       21 0.95485363E-01 0.45539581E+03</pdfrwt>
<pdfrwt beam="2">  1       21 0.11742577E-01 0.45539581E+03</pdfrwt>
<totfact> 0.51189238E+04</totfact>
</mgrwt>
</event>
<event>
 7    0  0.4748297E-002  0.4610841E+03  0.7546771E-02  0.1024467E+00
         21   -1    0    0  502  501  0.00000000000E+00  0.00000000000E+00  0.17709034416E+03  0.17709034416E+03  0.00000000000E+00 0. -1.
         21   -1    0    0  501  502 -0.00000000000E+00 -0.00000000000E+00 -0.30012724228E+03  0.30012724228E+03  0.00000000000E+00 0. -1.
      99926    2    1    2    0    0  0.00000000000E+00  0.00000000000E+00 -0.12303689812E+03  0.47721758643E+03  0.46108409916E+03 0.  0.
      99925    2    3    3    0    0 -0.99586941600E+02 -0.48551527179E+02 -0.32489052847E+02  0.28716172593E+03  0.26292871383E+03 0.  0.
         25    1    4    4    0    0 -0.15154438296E+02 -0.90423487429E+01 -0.35175070684E+02  0.13113433863E+03  0.12509000000E+03 0.  0.
         25    1    4    4    0    0 -0.84432503304E+02 -0.39509178436E+02  0.26860178365E+01  0.15602738730E+03  0.12509000000E+03 0.  0.
         25    1    3    3    0    0  0.99586941600E+02  0.48551527179E+02 -0.90547845275E+02  0.19005586051E+03  0.12509000000E+03 0.  0.
<mgrwt>
<rscale>  2 0.46108410E+03</rscale>
<asrwt>0</asrwt>
<pdfrwt beam="1">  1       21 0.26042698E-01 0.46108410E+03</pdfrwt>
<pdfrwt beam="2">  1       21 0.44136359E-01 0.46108410E+03</pdfrwt>
<totfact> 0.63768527E+04</totfact>
</mgrwt>
</event>
<event>
 7    0  0.4748297E-002  0.4568410E+03  0.7546771E-02  0.1025701E+00
         21   -1    0    0  502  501  0.00000000000E+00  0.00000000000E+00  0.15076769774E+03  0.15076769774E+03  0.00000000000E+00 0. -1.
         21   -1    0    0  501  502 -0.00000000000E+00 -0.00000000000E+00 -0.34606839689E+03  0.34606839689E+03  0.00000000000E+00 0. -1.
      99926    2    1    2    0    0 -0.17763568394E-14  0.00000000000E+00 -0.19530069915E+03  0.49683609463E+03  0.45684104657E+03 0.  0.
      99925    2    3    3    0    0  0.95200185807E+01 -0.11240553312E+02  0.44690392925E+00  0.26406665290E+03  0.26365510929E+03 0.  0.
         25    1    4    4    0    0 -0.19070258532E+01  0.28362501678E+02 -0.22900057629E+02  0.13030728678E+03  0.12509000000E+03 0.  0.
         25    1    4    4    0    0  0.11427044434E+02 -0.39603054990E+02  0.23346961558E+02  0.13375936611E+03  0.12509000000E+03 0.  0.
         25    1    3    3    0    0 -0.95200185807E+01  0.11240553312E+02 -0.19574760308E+03  0.23276944173E+03  0.12509000000E+03 0.  0.
<mgrwt>
<rscale>  2 0.45684105E+03</rscale>
<asrwt>0</asrwt>
<pdfrwt beam="1">  1       21 0.22171721E-01 0.45684105E+03</pdfrwt>
<pdfrwt beam="2">  1       21 0.50892411E-01 0.45684105E+03</pdfrwt>
<totfact> 0.64545005E+04</totfact>
</mgrwt>
</event>
<event>
 7    0  0.4748297E-002  0.4590770E+03  0.7546771E-02  0.1025049E+00
         21   -1    0    0  502  501  0.00000000000E+00  0.00000000000E+00  0.33108657769E+02  0.33108657769E+02  0.00000000000E+00 0.  1.
         21   -1    0    0  501  502 -0.00000000000E+00 -0.00000000000E+00 -0.15913639590E+04  0.15913639590E+04  0.00000000000E+00 0.  1.
      99926    2    1    2    0    0  0.00000000000E+00  0.00000000000E+00 -0.15582553013E+04  0.16244726168E+04  0.45907700751E+03 0.  0.
      99925    2    3    3    0    0  0.10268645083E+03  0.90350409103E+01 -0.78462438938E+03  0.83404334414E+03  0.26337564116E+03 0.  0.
         25    1    4    4    0    0  0.54725999752E+02 -0.13980496741E+02 -0.50206692755E+03  0.52048928632E+03  0.12509000000E+03 0.  0.
         25    1    3    3    0    0 -0.10268645083E+03 -0.90350409103E+01 -0.77363091188E+03  0.79042927265E+03  0.12509000000E+03 0.  0.
         25    1    4    4    0    0  0.47960451080E+02  0.23015537652E+02 -0.28255746183E+03  0.31355405782E+03  0.12509000000E+03 0.  0.
<mgrwt>
<rscale>  2 0.45907701E+03</rscale>
<asrwt>0</asrwt>
<pdfrwt beam="1">  1       21 0.48689207E-02 0.45907701E+03</pdfrwt>
<pdfrwt beam="2">  1       21 0.23402409E+00 0.45907701E+03</pdfrwt>
<totfact> 0.20234209E+04</totfact>
</mgrwt>
</event>
<event>
 7    0  0.4748297E-002  0.4544725E+03  0.7546771E-02  0.1026397E+00
         21   -1    0    0  502  501  0.00000000000E+00  0.00000000000E+00  0.27674952460E+03  0.27674952460E+03  0.00000000000E+00 0. -1.
         21   -1    0    0  501  502 -0.00000000000E+00 -0.00000000000E+00 -0.18658141064E+03  0.18658141064E+03  0.00000000000E+00 0. -1.
      99926    2    1    2    0    0 -0.14210854715E-13  0.00000000000E+00  0.90168113960E+02  0.46333093524E+03  0.45447251487E+03 0.  0.
      99925    2    3    3    0    0  0.87000042165E+02 -0.11523083804E+02 -0.15270073495E+02  0.27767935763E+03  0.26300353935E+03 0.  0.
         25    1    3    3    0    0 -0.87000042165E+02  0.11523083804E+02  0.10543818745E+03  0.18565157761E+03  0.12509000000E+03 0.  0.
         25    1    4    4    0    0  0.69706860292E+02  0.18228513399E+02  0.12857768735E+02  0.14492810421E+03  0.12509000000E+03 0.  0.
         25    1    4    4    0    0  0.17293181873E+02 -0.29751597203E+02 -0.28127842230E+02  0.13275125342E+03  0.12509000000E+03 0.  0.
<mgrwt>
<rscale>  2 0.45447251E+03</rscale>
<asrwt>0</asrwt>
<pdfrwt beam="1">  1       21 0.40698460E-01 0.45447251E+03</pdfrwt>
<pdfrwt beam="2">  1       21 0.27438443E-01 0.45447251E+03</pdfrwt>
<totfact> 0.68219906E+04</totfact>
</mgrwt>
</event>
<event>
 7    0  0.4748297E-002  0.4201824E+03  0.7546771E-02  0.1037007E+00
         21   -1    0    0  502  501  0.00000000000E+00  0.00000000000E+00  0.15391342832E+03  0.15391342832E+03  0.00000000000E+00 0. -1.
         21   -1    0    0  501  502 -0.00000000000E+00 -0.00000000000E+00 -0.28677357213E+03  0.28677357213E+03  0.00000000000E+00 0. -1.
      99926    2    1    2    0    0  0.00000000000E+00  0.71054273576E-14 -0.13286014380E+03  0.44068700045E+03  0.42018235869E+03 0.  0.
      99925    2    3    3    0    0 -0.60065559598E+02  0.32637261192E+02 -0.51447140504E+02  0.27652656833E+03  0.26295830935E+03 0.  0.
         25    1    3    3    0    0  0.60065559598E+02 -0.32637261192E+02 -0.81413003300E+02  0.16416043212E+03  0.12509000000E+03 0.  0.
         25    1    4    4    0    0 -0.30122635806E+02 -0.14264014523E+02 -0.52290153897E+02  0.13961591454E+03  0.12509000000E+03 0.  0.
         25    1    4    4    0    0 -0.29942923792E+02  0.46901275714E+02  0.84301339312E+00  0.13691065379E+03  0.12509000000E+03 0.  0.
<mgrwt>
<rscale>  2 0.42018236E+03</rscale>
<asrwt>0</asrwt>
<pdfrwt beam="1">  1       21 0.22634328E-01 0.42018236E+03</pdfrwt>
<pdfrwt beam="2">  1       21 0.42172584E-01 0.42018236E+03</pdfrwt>
<totfact> 0.92776738E+04</totfact>
</mgrwt>
</event>
<event>
 7    0  0.4748297E-002  0.4523794E+03  0.7546771E-02  0.1027015E+00
         21   -1    0    0  502  501  0.00000000000E+00  0.00000000000E+00  0.94085214095E+02  0.94085214095E+02  0.00000000000E+00 0. -1.
         21   -1    0    0  501  502 -0.00000000000E+00 -0.00000000000E+00 -0.54378120996E+03  0.54378120996E+03  0.00000000000E+00 0. -1.
      99926    2    1    2    0    0  0.00000000000E+00  0.00000000000E+00 -0.44969599587E+03  0.63786642405E+03  0.45237936098E+03 0.  0.
      99925    2    3    3    0    0 -0.38246722051E+02  0.10385260980E+03 -0.28334279875E+03  0.40213549566E+03  0.26302402734E+03 0.  0.
         25    1    3    3    0    0  0.38246722051E+02 -0.10385260980E+03 -0.16635319712E+03  0.23573092839E+03  0.12509000000E+03 0.  0.
         25    1    4    4    0    0  0.10619427618E+01  0.17388252909E+02 -0.10288521616E+03  0.16289983077E+03  0.12509000000E+03 0.  0.
         25    1    4    4    0    0 -0.39308664813E+02  0.86464356888E+02 -0.18045758259E+03  0.23923566489E+03  0.12509000000E+03 0.  0.
<mgrwt>
<rscale>  2 0.45237936E+03</rscale>
<asrwt>0</asrwt>
<pdfrwt beam="1">  1       21 0.13836061E-01 0.45237936E+03</pdfrwt>
<pdfrwt beam="2">  1       21 0.79967825E-01 0.45237936E+03</pdfrwt>
<totfact> 0.57587786E+04</totfact>
</mgrwt>
</event>
<event>
 7    0  0.4748297E-002  0.4495209E+03  0.7546771E-02  0.1027865E+00
         21   -1    0    0  502  501  0.00000000000E+00  0.00000000000E+00  0.34359010299E+03  0.34359010299E+03  0.00000000000E+00 0.  1.
         21   -1    0    0  501  502 -0.00000000000E+00 -0.00000000000E+00 -0.14702766683E+03  0.14702766683E+03  0.00000000000E+00 0.  1.
      99926    2    1    2    0    0  0.71054273576E-14  0.00000000000E+00  0.19656243615E+03  0.49061776982E+03  0.44952086131E+03 0.  0.
      99925    2    3    3    0    0  0.56821606254E+02  0.84683306377E+02  0.16295395434E+03  0.32576330229E+03  0.26299768167E+03 0.  0.
         25    1    4    4    0    0  0.63908696316E+02  0.48727996848E+02  0.11054554956E+03  0.18527429873E+03  0.12509000000E+03 0.  0.
         25    1    3    3    0    0 -0.56821606254E+02 -0.84683306377E+02  0.33608481811E+02  0.16485446753E+03  0.12509000000E+03 0.  0.
         25    1    4    4    0    0 -0.70870900614E+01  0.35955309529E+02  0.52408404787E+02  0.14048900356E+03  0.12509000000E+03 0.  0.
<mgrwt>
<rscale>  2 0.44952086E+03</rscale>
<asrwt>0</asrwt>
<pdfrwt beam="1">  1       21 0.50527956E-01 0.44952086E+03</pdfrwt>
<pdfrwt beam="2">  1       21 0.21621716E-01 0.44952086E+03</pdfrwt>
<totfact> 0.68882712E+04</totfact>
</mgrwt>
</event>
<event>
 7    0  0.4748297E-002  0.4581143E+03  0.7546771E-02  0.1025330E+00
         21   -1    0    0  502  501  0.00000000000E+00  0.00000000000E+00  0.80064713933E+02  0.80064713933E+02  0.00000000000E+00 0.  1.
         21   -1    0    0  501  502 -0.00000000000E+00 -0.00000000000E+00 -0.65530966636E+03  0.65530966636E+03  0.00000000000E+00 0.  1.
      99926    2    1    2    0    0  0.00000000000E+00  0.00000000000E+00 -0.57524495242E+03  0.73537438029E+03  0.45811431313E+03 0.  0.
      99925    2    3    3    0    0 -0.97361557122E+02  0.58048289810E+02 -0.32102635111E+03  0.43021297692E+03  0.26301408830E+03 0.  0.
         25    1    3    3    0    0  0.97361557122E+02 -0.58048289810E+02 -0.25421860131E+03  0.30516140337E+03  0.12509000000E+03 0.  0.
         25    1    4    4    0    0 -0.28086831822E+02 -0.87379246518E+01 -0.13904473262E+03  0.18933084064E+03  0.12509000000E+03 0.  0.
         25    1    4    4    0    0 -0.69274725299E+02  0.66786214462E+02 -0.18198161850E+03  0.24088213628E+03  0.12509000000E+03 0.  0.
<mgrwt>
<rscale>  2 0.45811431E+03</rscale>
<asrwt>0</asrwt>
<pdfrwt beam="1">  1       21 0.11774223E-01 0.45811431E+03</pdfrwt>
<pdfrwt beam="2">  1       21 0.96369065E-01 0.45811431E+03</pdfrwt>
<totfact> 0.49793601E+04</totfact>
</mgrwt>
</event>
<event>
 7    0  0.4748297E-002  0.4219106E+03  0.7546771E-02  0.1036446E+00
         21   -1    0    0  502  501  0.00000000000E+00  0.00000000000E+00  0.13733919428E+04  0.13733919428E+04  0.00000000000E+00 0. -1.
         21   -1    0    0  501  502 -0.00000000000E+00 -0.00000000000E+00 -0.32403088001E+02  0.32403088001E+02  0.00000000000E+00 0. -1.
      99926    2    1    2    0    0  0.00000000000E+00  0.00000000000E+00  0.13409888548E+04  0.14057950308E+04  0.42191060656E+03 0.  0.
      99925    2    3    3    0    0  0.47515526413E+02  0.36281511598E+02  0.10396234019E+04  0.10740681588E+04  0.26311882969E+03 0.  0.
         25    1    3    3    0    0 -0.47515526413E+02 -0.36281511598E+02  0.30136545283E+03  0.33172687198E+03  0.12509000000E+03 0.  0.
         25    1    4    4    0    0  0.56467439028E+02 -0.37545635435E+01  0.48724308429E+03  0.50621734434E+03  0.12509000000E+03 0.  0.
         25    1    4    4    0    0 -0.89519126151E+01  0.40036075142E+02  0.55238031765E+03  0.56785081445E+03  0.12509000000E+03 0.  0.
<mgrwt>
<rscale>  2 0.42191061E+03</rscale>
<asrwt>0</asrwt>
<pdfrwt beam="1">  1       21 0.20196936E+00 0.42191061E+03</pdfrwt>
<pdfrwt beam="2">  1       21 0.47651609E-02 0.42191061E+03</pdfrwt>
<totfact> 0.34151806E+04</totfact>
</mgrwt>
</event>
<event>
 7    0  0.4748297E-002  0.4203113E+03  0.7546771E-02  0.1036965E+00
         21   -1    0    0  502  501  0.00000000000E+00  0.00000000000E+00  0.88831872272E+02  0.88831872272E+02  0.00000000000E+00 0. -1.
         21   -1    0    0  501  502 -0.00000000000E+00 -0.00000000000E+00 -0.49717965571E+03  0.49717965571E+03  0.00000000000E+00 0. -1.
      99926    2    1    2    0    0  0.00000000000E+00  0.00000000000E+00 -0.40834778344E+03  0.58601152798E+03  0.42031131164E+03 0.  0.
      99925    2    3    3    0    0  0.65964692682E+02 -0.52149265047E+01 -0.31883360561E+03  0.41856352927E+03  0.26298673699E+03 0.  0.
         25    1    4    4    0    0  0.22669668978E+02  0.34694521427E+01 -0.21623997199E+03  0.25086487314E+03  0.12509000000E+03 0.  0.
         25    1    4    4    0    0  0.43295023704E+02 -0.86843786474E+01 -0.10259363362E+03  0.16769865613E+03  0.12509000000E+03 0.  0.
         25    1    3    3    0    0 -0.65964692682E+02  0.52149265047E+01 -0.89514177831E+02  0.16744799871E+03  0.12509000000E+03 0.  0.
<mgrwt>
<rscale>  2 0.42031131E+03</rscale>
<asrwt>0</asrwt>
<pdfrwt beam="1">  1       21 0.13063510E-01 0.42031131E+03</pdfrwt>
<pdfrwt beam="2">  1       21 0.73114657E-01 0.42031131E+03</pdfrwt>
<totfact> 0.79104861E+04</totfact>
</mgrwt>
</event>
<event>
 7    0  0.4748297E-002  0.4518012E+03  0.7546771E-02  0.1027186E+00
         21   -1    0    0  502  501  0.00000000000E+00  0.00000000000E+00  0.71189309944E+03  0.71189309944E+03  0.00000000000E+00 0. -1.
         21   -1    0    0  501  502 -0.00000000000E+00 -0.00000000000E+00 -0.71683615856E+02  0.71683615856E+02  0.00000000000E+00 0. -1.
      99926    2    1    2    0    0  0.43853809473E-14  0.00000000000E+00  0.64020948358E+03  0.78357671529E+03  0.45180115746E+03 0.  0.
      99925    2    3    3    0    0 -0.16105764260E+00  0.53338733716E+02  0.23644200577E+03  0.35752421771E+03  0.26281875448E+03 0.  0.
         25    1    4    4    0    0  0.32360447187E+02  0.18272409090E+02  0.86895656545E+02  0.15677832345E+03  0.12509000000E+03 0.  0.
         25    1    4    4    0    0 -0.32521504830E+02  0.35066324626E+02  0.14954634922E+03  0.20074589427E+03  0.12509000000E+03 0.  0.
         25    1    3    3    0    0  0.16105764260E+00 -0.53338733716E+02  0.40376747782E+03  0.42605249758E+03  0.12509000000E+03 0.  0.
<mgrwt>
<rscale>  2 0.45180116E+03</rscale>
<asrwt>0</asrwt>
<pdfrwt beam="1">  1       21 0.10469016E+00 0.45180116E+03</pdfrwt>
<pdfrwt beam="2">  1       21 0.10541709E-01 0.45180116E+03</pdfrwt>
<totfact> 0.49808321E+04</totfact>
</mgrwt>
</event>
<event>
 7    0  0.4748297E-002  0.4360756E+03  0.7546771E-02  0.1031958E+00
         21   -1    0    0  502  501  0.00000000000E+00  0.00000000000E+00  0.32567823883E+03  0.32567823883E+03  0.00000000000E+00 0. -1.
         21   -1    0    0  501  502 -0.00000000000E+00 -0.00000000000E+00 -0.14597377175E+03  0.14597377175E+03  0.00000000000E+00 0. -1.
      99926    2    1    2    0    0 -0.71054273576E-14  0.00000000000E+00  0.17970446708E+03  0.47165201058E+03  0.43607559390E+03 0.  0.
      99925    2    3    3    0    0  0.43707929831E+02  0.53941178250E+02  0.45548200538E+02  0.27552591392E+03  0.26271630484E+03 0.  0.
         25    1    3    3    0    0 -0.43707929831E+02 -0.53941178250E+02  0.13415626654E+03  0.19612609667E+03  0.12509000000E+03 0.  0.
         25    1    4    4    0    0  0.24042956348E+01  0.55649104988E+02  0.25909118424E+01  0.13695555647E+03  0.12509000000E+03 0.  0.
         25    1    4    4    0    0  0.41303634196E+02 -0.17079267383E+01  0.42957288695E+02  0.13857035745E+03  0.12509000000E+03 0.  0.
<mgrwt>
<rscale>  2 0.43607559E+03</rscale>
<asrwt>0</asrwt>
<pdfrwt beam="1">  1       21 0.47893859E-01 0.43607559E+03</pdfrwt>
<pdfrwt beam="2">  1       21 0.21466731E-01 0.43607559E+03</pdfrwt>
<totfact> 0.78451839E+04</totfact>
</mgrwt>
</event>
<event>
 7    0  0.4748297E-002  0.4737657E+03  0.7546771E-02  0.1020863E+00
         21   -1    0    0  502  501  0.00000000000E+00  0.00000000000E+00  0.15249876404E+04  0.15249876404E+04  0.00000000000E+00 0.  1.
         21   -1    0    0  501  502 -0.00000000000E+00 -0.00000000000E+00 -0.36796020049E+02  0.36796020049E+02  0.00000000000E+00 0.  1.
      99926    2    1    2    0    0 -0.14210854715E-13  0.14210854715E-13  0.14881916203E+04  0.15617836604E+04  0.47376566271E+03 0.  0.
      99925    2    3    3    0    0  0.99886579771E+02 -0.68844838768E+02  0.76749699927E+03  0.82032214048E+03  0.26298256525E+03 0.  0.
         25    1    3    3    0    0 -0.99886579771E+02  0.68844838768E+02  0.72069462105E+03  0.74146151994E+03  0.12509000000E+03 0.  0.
         25    1    4    4    0    0  0.50629596771E+02 -0.14118685662E+02  0.47176010307E+03  0.49088470775E+03  0.12509000000E+03 0.  0.
         25    1    4    4    0    0  0.49256983000E+02 -0.54726153106E+02  0.29573689620E+03  0.32943743273E+03  0.12509000000E+03 0.  0.
<mgrwt>
<rscale>  2 0.47376566E+03</rscale>
<asrwt>0</asrwt>
<pdfrwt beam="1">  1       21 0.22426285E+00 0.47376566E+03</pdfrwt>
<pdfrwt beam="2">  1       21 0.54111804E-02 0.47376566E+03</pdfrwt>
<totfact> 0.19330444E+04</totfact>
</mgrwt>
</event>
<event>
 7    0  0.4748297E-002  0.4534865E+03  0.7546771E-02  0.1026687E+00
         21   -1    0    0  502  501  0.00000000000E+00  0.00000000000E+00  0.14730617881E+03  0.14730617881E+03  0.00000000000E+00 0. -1.
         21   -1    0    0  501  502 -0.00000000000E+00 -0.00000000000E+00 -0.34901790961E+03  0.34901790961E+03  0.00000000000E+00 0. -1.
      99926    2    1    2    0    0  0.00000000000E+00  0.00000000000E+00 -0.20171173080E+03  0.49632408843E+03  0.45348646993E+03 0.  0.
      99925    2    3    3    0    0 -0.69703621282E+02  0.48095023905E+02 -0.20744055124E+03  0.34515513120E+03  0.26254286536E+03 0.  0.
         25    1    4    4    0    0 -0.53119575768E+02  0.18905911397E+02 -0.62487477462E+02  0.15076908090E+03  0.12509000000E+03 0.  0.
         25    1    3    3    0    0  0.69703621282E+02 -0.48095023905E+02  0.57288204440E+01  0.15116895722E+03  0.12509000000E+03 0.  0.
         25    1    4    4    0    0 -0.16584045514E+02  0.29189112508E+02 -0.14495307378E+03  0.19438605030E+03  0.12509000000E+03 0.  0.
<mgrwt>
<rscale>  2 0.45348647E+03</rscale>
<asrwt>0</asrwt>
<pdfrwt beam="1">  1       21 0.21662673E-01 0.45348647E+03</pdfrwt>
<pdfrwt beam="2">  1       21 0.51326163E-01 0.45348647E+03</pdfrwt>
<totfact> 0.66322973E+04</totfact>
</mgrwt>
</event>
<event>
 7    0  0.4748297E-002  0.4517562E+03  0.7546771E-02  0.1027200E+00
         21   -1    0    0  502  501  0.00000000000E+00  0.00000000000E+00  0.10650692966E+04  0.10650692966E+04  0.00000000000E+00 0. -1.
         21   -1    0    0  501  502 -0.00000000000E+00 -0.00000000000E+00 -0.47903851577E+02  0.47903851577E+02  0.00000000000E+00 0. -1.
      99926    2    1    2    0    0 -0.35527136788E-14  0.00000000000E+00  0.10171654450E+04  0.11129731482E+04  0.45175622409E+03 0.  0.
      99925    2    3    3    0    0 -0.21077669732E+02 -0.71951624371E+02  0.44406554359E+03  0.52160836267E+03  0.26317251489E+03 0.  0.
         25    1    4    4    0    0  0.95063378416E+01 -0.15131096953E+02  0.26719382528E+03  0.29556618366E+03  0.12509000000E+03 0.  0.
         25    1    3    3    0    0  0.21077669732E+02  0.71951624371E+02  0.57309990141E+03  0.59136478549E+03  0.12509000000E+03 0.  0.
         25    1    4    4    0    0 -0.30584007573E+02 -0.56820527418E+02  0.17687171831E+03  0.22604217901E+03  0.12509000000E+03 0.  0.
<mgrwt>
<rscale>  2 0.45175622E+03</rscale>
<asrwt>0</asrwt>
<pdfrwt beam="1">  1       21 0.15662782E+00 0.45175622E+03</pdfrwt>
<pdfrwt beam="2">  1       21 0.70446847E-02 0.45175622E+03</pdfrwt>
<totfact> 0.35943357E+04</totfact>
</mgrwt>
</event>
<event>
 7    0  0.4748297E-002  0.4530972E+03  0.7546771E-02  0.1026802E+00
         21   -1    0    0  502  501  0.00000000000E+00  0.00000000000E+00  0.24027479811E+03  0.24027479811E+03  0.00000000000E+00 0.  1.
         21   -1    0    0  501  502 -0.00000000000E+00 -0.00000000000E+00 -0.21360658174E+03  0.21360658174E+03  0.00000000000E+00 0.  1.
      99926    2    1    2    0    0 -0.22204460493E-14 -0.14210854715E-13  0.26668216369E+02  0.45388137985E+03  0.45309724476E+03 0.  0.
      99925    2    3    3    0    0  0.14496813122E+01 -0.11119297142E+03  0.19823532193E+02  0.28636918248E+03  0.26315082705E+03 0.  0.
         25    1    4    4    0    0 -0.15526302536E+02 -0.95467674205E+02  0.39628237205E+01  0.15817191584E+03  0.12509000000E+03 0.  0.
         25    1    4    4    0    0  0.16975983848E+02 -0.15725297212E+02  0.15860708472E+02  0.12819726664E+03  0.12509000000E+03 0.  0.
         25    1    3    3    0    0 -0.14496813122E+01  0.11119297142E+03  0.68446841762E+01  0.16751219738E+03  0.12509000000E+03 0.  0.
<mgrwt>
<rscale>  2 0.45309724E+03</rscale>
<asrwt>0</asrwt>
<pdfrwt beam="1">  1       21 0.35334529E-01 0.45309724E+03</pdfrwt>
<pdfrwt beam="2">  1       21 0.31412732E-01 0.45309724E+03</pdfrwt>
<totfact> 0.69679719E+04</totfact>
</mgrwt>
</event>
<event>
 7    0  0.4748297E-002  0.4574342E+03  0.7546771E-02  0.1025528E+00
         21   -1    0    0  502  501  0.00000000000E+00  0.00000000000E+00  0.10170918647E+03  0.10170918647E+03  0.00000000000E+00 0.  1.
         21   -1    0    0  501  502 -0.00000000000E+00 -0.00000000000E+00 -0.51432430563E+03  0.51432430563E+03  0.00000000000E+00 0.  1.
      99926    2    1    2    0    0  0.00000000000E+00  0.00000000000E+00 -0.41261511916E+03  0.61603349210E+03  0.45743417758E+03 0.  0.
      99925    2    3    3    0    0  0.52526040508E+02  0.91306418956E+02 -0.19535314650E+03  0.34410313348E+03  0.26296058173E+03 0.  0.
         25    1    4    4    0    0  0.22505774860E+02  0.87914909074E+02 -0.10350398139E+03  0.18600033173E+03  0.12509000000E+03 0.  0.
         25    1    4    4    0    0  0.30020265648E+02  0.33915098823E+01 -0.91849165114E+02  0.15810280175E+03  0.12509000000E+03 0.  0.
         25    1    3    3    0    0 -0.52526040508E+02 -0.91306418956E+02 -0.21726197266E+03  0.27193035862E+03  0.12509000000E+03 0.  0.
<mgrwt>
<rscale>  2 0.45743418E+03</rscale>
<asrwt>0</asrwt>
<pdfrwt beam="1">  1       21 0.14957233E-01 0.45743418E+03</pdfrwt>
<pdfrwt beam="2">  1       21 0.75635928E-01 0.45743418E+03</pdfrwt>
<totfact> 0.56605986E+04</totfact>
</mgrwt>
</event>
<event>
 7    0  0.4748297E-002  0.4557039E+03  0.7546771E-02  0.1026035E+00
         21   -1    0    0  502  501  0.00000000000E+00  0.00000000000E+00  0.12382112416E+03  0.12382112416E+03  0.00000000000E+00 0. -1.
         21   -1    0    0  501  502 -0.00000000000E+00 -0.00000000000E+00 -0.41928637314E+03  0.41928637314E+03  0.00000000000E+00 0. -1.
      99926    2    1    2    0    0  0.00000000000E+00  0.71054273576E-14 -0.29546524898E+03  0.54310749729E+03  0.45570389538E+03 0.  0.
      99925    2    3    3    0    0 -0.38145377597E+02 -0.51717128562E+02 -0.29779144740E+03  0.40245668671E+03  0.26298651546E+03 0.  0.
         25    1    4    4    0    0 -0.88411763510E-01 -0.55152989161E+02 -0.18304079073E+03  0.22845852841E+03  0.12509000000E+03 0.  0.
         25    1    4    4    0    0 -0.38056965833E+02  0.34358605986E+01 -0.11475065667E+03  0.17399815830E+03  0.12509000000E+03 0.  0.
         25    1    3    3    0    0  0.38145377597E+02  0.51717128562E+02  0.23261984267E+01  0.14065081058E+03  0.12509000000E+03 0.  0.
<mgrwt>
<rscale>  2 0.45570390E+03</rscale>
<asrwt>0</asrwt>
<pdfrwt beam="1">  1       21 0.18208989E-01 0.45570390E+03</pdfrwt>
<pdfrwt beam="2">  1       21 0.61659761E-01 0.45570390E+03</pdfrwt>
<totfact> 0.61978335E+04</totfact>
</mgrwt>
</event>
<event>
 7    0  0.4748297E-002  0.4562118E+03  0.7546771E-02  0.1025886E+00
         21   -1    0    0  502  501  0.00000000000E+00  0.00000000000E+00  0.14407230924E+04  0.14407230924E+04  0.00000000000E+00 0. -1.
         21   -1    0    0  501  502 -0.00000000000E+00 -0.00000000000E+00 -0.36115406096E+02  0.36115406096E+02  0.00000000000E+00 0. -1.
      99926    2    1    2    0    0 -0.35527136788E-14  0.00000000000E+00  0.14046076863E+04  0.14768384985E+04  0.45621179096E+03 0.  0.
      99925    2    3    3    0    0 -0.25044063750E+02  0.57066095863E+02  0.11930396380E+04  0.12232792518E+04  0.26303004691E+03 0.  0.
         25    1    4    4    0    0 -0.64859499654E+01  0.67541213476E+02  0.57505758270E+03  0.59240409738E+03  0.12509000000E+03 0.  0.
         25    1    3    3    0    0  0.25044063750E+02 -0.57066095863E+02  0.21156804824E+03  0.25355924665E+03  0.12509000000E+03 0.  0.
         25    1    4    4    0    0 -0.18558113784E+02 -0.10475117613E+02  0.61798205534E+03  0.63087515445E+03  0.12509000000E+03 0.  0.
<mgrwt>
<rscale>  2 0.45621179E+03</rscale>
<asrwt>0</asrwt>
<pdfrwt beam="1">  1       21 0.21187100E+00 0.45621179E+03</pdfrwt>
<pdfrwt beam="2">  1       21 0.53110901E-02 0.45621179E+03</pdfrwt>
<totfact> 0.24124641E+04</totfact>
</mgrwt>
</event>
<event>
 7    0  0.4748297E-002  0.4282964E+03  0.7546771E-02  0.1034399E+00
         21   -1    0    0  502  501  0.00000000000E+00  0.00000000000E+00  0.41907616078E+03  0.41907616078E+03  0.00000000000E+00 0.  1.
         21   -1    0    0  501  502 -0.00000000000E+00 -0.00000000000E+00 -0.10942989729E+03  0.10942989729E+03  0.00000000000E+00 0.  1.
      99926    2    1    2    0    0  0.00000000000E+00  0.00000000000E+00  0.30964626349E+03  0.52850605806E+03  0.42829644514E+03 0.  0.
      99925    2    3    3    0    0 -0.16078404361E+02  0.62925728335E+02  0.13078153736E+03  0.30078196903E+03  0.26295973077E+03 0.  0.
         25    1    4    4    0    0 -0.35561203128E+01  0.49166671282E+02  0.26891944219E+02  0.13711561662E+03  0.12509000000E+03 0.  0.
         25    1    4    4    0    0 -0.12522284049E+02  0.13759057053E+02  0.10388959315E+03  0.16366635241E+03  0.12509000000E+03 0.  0.
         25    1    3    3    0    0  0.16078404361E+02 -0.62925728335E+02  0.17886472613E+03  0.22772408903E+03  0.12509000000E+03 0.  0.
<mgrwt>
<rscale>  2 0.42829645E+03</rscale>
<asrwt>0</asrwt>
<pdfrwt beam="1">  1       21 0.61628847E-01 0.42829645E+03</pdfrwt>
<pdfrwt beam="2">  1       21 0.16092632E-01 0.42829645E+03</pdfrwt>
<totfact> 0.78666060E+04</totfact>
</mgrwt>
</event>
<event>
 7    0  0.4748297E-002  0.4492563E+03  0.7546771E-02  0.1027944E+00
         21   -1    0    0  502  501  0.00000000000E+00  0.00000000000E+00  0.21727597758E+03  0.21727597758E+03  0.00000000000E+00 0.  1.
         21   -1    0    0  501  502 -0.00000000000E+00 -0.00000000000E+00 -0.23222906631E+03  0.23222906631E+03  0.00000000000E+00 0.  1.
      99926    2    1    2    0    0  0.00000000000E+00 -0.88817841970E-15 -0.14953088734E+02  0.44950504389E+03  0.44925626275E+03 0.  0.
      99925    2    3    3    0    0  0.43025261206E+02 -0.40902877084E+01  0.88816567136E+02  0.28132789582E+03  0.26341810646E+03 0.  0.
         25    1    4    4    0    0  0.46259649068E+02 -0.91217580141E+01  0.79987680129E+02  0.15578414128E+03  0.12509000000E+03 0.  0.
         25    1    3    3    0    0 -0.43025261206E+02  0.40902877084E+01 -0.10376965587E+03  0.16817714807E+03  0.12509000000E+03 0.  0.
         25    1    4    4    0    0 -0.32343878628E+01  0.50314703057E+01  0.88288870068E+01  0.12554375454E+03  0.12509000000E+03 0.  0.
<mgrwt>
<rscale>  2 0.44925626E+03</rscale>
<asrwt>0</asrwt>
<pdfrwt beam="1">  1       21 0.31952350E-01 0.44925626E+03</pdfrwt>
<pdfrwt beam="2">  1       21 0.34151333E-01 0.44925626E+03</pdfrwt>
<totfact> 0.72202920E+04</totfact>
</mgrwt>
</event>
<event>
 7    0  0.4748297E-002  0.4465166E+03  0.7546771E-02  0.1028766E+00
         21   -1    0    0  502  501  0.00000000000E+00  0.00000000000E+00  0.94598679651E+02  0.94598679651E+02  0.00000000000E+00 0. -1.
         21   -1    0    0  501  502 -0.00000000000E+00 -0.00000000000E+00 -0.52690245528E+03  0.52690245528E+03  0.00000000000E+00 0. -1.
      99926    2    1    2    0    0  0.00000000000E+00  0.71054273576E-14 -0.43230377563E+03  0.62150113493E+03  0.44651663608E+03 0.  0.
      99925    2    3    3    0    0 -0.88374541248E+02 -0.41885933280E+02 -0.22114213345E+03  0.35730189539E+03  0.26305191562E+03 0.  0.
         25    1    3    3    0    0  0.88374541248E+02  0.41885933280E+02 -0.21116164217E+03  0.26419923954E+03  0.12509000000E+03 0.  0.
         25    1    4    4    0    0 -0.63181059500E+02 -0.47995638876E+02 -0.15115700058E+03  0.21163972821E+03  0.12509000000E+03 0.  0.
         25    1    4    4    0    0 -0.25193481748E+02  0.61097055958E+01 -0.69985132869E+02  0.14566216718E+03  0.12509000000E+03 0.  0.
<mgrwt>
<rscale>  2 0.44651664E+03</rscale>
<asrwt>0</asrwt>
<pdfrwt beam="1">  1       21 0.13911570E-01 0.44651664E+03</pdfrwt>
<pdfrwt beam="2">  1       21 0.77485656E-01 0.44651664E+03</pdfrwt>
<totfact> 0.61383384E+04</totfact>
</mgrwt>
</event>
<event>
 7    0  0.4748297E-002  0.4563582E+03  0.7546771E-02  0.1025843E+00
         21   -1    0    0  502  501  0.00000000000E+00  0.00000000000E+00  0.87868426849E+03  0.87868426849E+03  0.00000000000E+00 0.  1.
         21   -1    0    0  501  502 -0.00000000000E+00 -0.00000000000E+00 -0.59254153730E+02  0.59254153730E+02  0.00000000000E+00 0.  1.
      99926    2    1    2    0    0  0.00000000000E+00  0.00000000000E+00  0.81943011476E+03  0.93793842222E+03  0.45635816077E+03 0.  0.
      99925    2    3    3    0    0  0.10095543115E+03 -0.10653882139E+02  0.62294469372E+03  0.68385274167E+03  0.26322799351E+03 0.  0.
         25    1    3    3    0    0 -0.10095543115E+03  0.10653882139E+02  0.19648542104E+03  0.25408568056E+03  0.12509000000E+03 0.  0.
         25    1    4    4    0    0  0.33538253519E+02  0.12838012974E+02  0.37708875917E+03  0.39891486488E+03  0.12509000000E+03 0.  0.
         25    1    4    4    0    0  0.67417177627E+02 -0.23491895113E+02  0.24585593455E+03  0.28493787679E+03  0.12509000000E+03 0.  0.
<mgrwt>
<rscale>  2 0.45635816E+03</rscale>
<asrwt>0</asrwt>
<pdfrwt beam="1">  1       21 0.12921827E+00 0.45635816E+03</pdfrwt>
<pdfrwt beam="2">  1       21 0.87138467E-02 0.45635816E+03</pdfrwt>
<totfact> 0.41193809E+04</totfact>
</mgrwt>
</event>
<event>
 7    0  0.4748297E-002  0.4508593E+03  0.7546771E-02  0.1027466E+00
         21   -1    0    0  502  501  0.00000000000E+00  0.00000000000E+00  0.19165782986E+04  0.19165782986E+04  0.00000000000E+00 0. -1.
         21   -1    0    0  501  502 -0.00000000000E+00 -0.00000000000E+00 -0.26515241240E+02  0.26515241240E+02  0.00000000000E+00 0. -1.
      99926    2    1    2    0    0  0.14210854715E-13 -0.14210854715E-13  0.18900630574E+04  0.19430935399E+04  0.45085933923E+03 0.  0.
      99925    2    3    3    0    0 -0.68233885612E+02  0.44659707986E+02  0.15068959697E+04  0.15318577464E+04  0.26306337442E+03 0.  0.
         25    1    3    3    0    0  0.68233885612E+02 -0.44659707986E+02  0.38316708765E+03  0.41123579346E+03  0.12509000000E+03 0.  0.
         25    1    4    4    0    0 -0.22373465848E+02  0.42017650608E+02  0.94177111225E+03  0.95123414095E+03  0.12509000000E+03 0.  0.
         25    1    4    4    0    0 -0.45860419765E+02  0.26420573780E+01  0.56512485748E+03  0.58062360546E+03  0.12509000000E+03 0.  0.
<mgrwt>
<rscale>  2 0.45085934E+03</rscale>
<asrwt>0</asrwt>
<pdfrwt beam="1">  1       21 0.28184965E+00 0.45085934E+03</pdfrwt>
<pdfrwt beam="2">  1       21 0.38993015E-02 0.45085934E+03</pdfrwt>
<totfact> 0.15142168E+04</totfact>
</mgrwt>
</event>
<event>
 7    0  0.4748297E-002  0.4498238E+03  0.7546771E-02  0.1027775E+00
         21   -1    0    0  502  501  0.00000000000E+00  0.00000000000E+00  0.50346611460E+02  0.50346611460E+02  0.00000000000E+00 0. -1.
         21   -1    0    0  501  502 -0.00000000000E+00 -0.00000000000E+00 -0.10047422710E+04  0.10047422710E+04  0.00000000000E+00 0. -1.
      99926    2    1    2    0    0  0.35527136788E-14  0.00000000000E+00 -0.95439565949E+03  0.10550888824E+04  0.44982382655E+03 0.  0.
      99925    2    3    3    0    0  0.20005987415E+02  0.10050538045E+03 -0.52174538460E+03  0.59320649533E+03  0.26300975024E+03 0.  0.
         25    1    3    3    0    0 -0.20005987415E+02 -0.10050538045E+03 -0.43265027490E+03  0.46188238709E+03  0.12509000000E+03 0.  0.
         25    1    4    4    0    0  0.70585572558E+01  0.10485103319E+02 -0.26835331656E+03  0.29634569548E+03  0.12509000000E+03 0.  0.
         25    1    4    4    0    0  0.12947430160E+02  0.90020277126E+02 -0.25339206804E+03  0.29686079985E+03  0.12509000000E+03 0.  0.
<mgrwt>
<rscale>  2 0.44982383E+03</rscale>
<asrwt>0</asrwt>
<pdfrwt beam="1">  1       21 0.74039137E-02 0.44982383E+03</pdfrwt>
<pdfrwt beam="2">  1       21 0.14775621E+00 0.44982383E+03</pdfrwt>
<totfact> 0.38628318E+04</totfact>
</mgrwt>
</event>
<event>
 7    0  0.4748297E-002  0.4545260E+03  0.7546771E-02  0.1026381E+00
         21   -1    0    0  502  501  0.00000000000E+00  0.00000000000E+00  0.41785139851E+03  0.41785139851E+03  0.00000000000E+00 0.  1.
         21   -1    0    0  501  502 -0.00000000000E+00 -0.00000000000E+00 -0.12360489373E+03  0.12360489373E+03  0.00000000000E+00 0.  1.
      99926    2    1    2    0    0  0.71054273576E-14  0.00000000000E+00  0.29424650479E+03  0.54145629224E+03  0.45452602877E+03 0.  0.
      99925    2    3    3    0    0 -0.42498587830E+02  0.47995130615E+02  0.29568001700E+03  0.40088877968E+03  0.26301231661E+03 0.  0.
         25    1    3    3    0    0  0.42498587830E+02 -0.47995130615E+02 -0.14335122155E+01  0.14056751256E+03  0.12509000000E+03 0.  0.
         25    1    4    4    0    0 -0.48059344264E+02  0.52685373553E+02  0.13752686337E+03  0.19911452837E+03  0.12509000000E+03 0.  0.
         25    1    4    4    0    0  0.55607564338E+01 -0.46902429375E+01  0.15815315363E+03  0.20177425132E+03  0.12509000000E+03 0.  0.
<mgrwt>
<rscale>  2 0.45452603E+03</rscale>
<asrwt>0</asrwt>
<pdfrwt beam="1">  1       21 0.61448735E-01 0.45452603E+03</pdfrwt>
<pdfrwt beam="2">  1       21 0.18177190E-01 0.45452603E+03</pdfrwt>
<totfact> 0.62669374E+04</totfact>
</mgrwt>
</event>
<event>
 7    0  0.4748297E-002  0.4552614E+03  0.7546771E-02  0.1026165E+00
         21   -1    0    0  502  501  0.00000000000E+00  0.00000000000E+00  0.18664499331E+03  0.18664499331E+03  0.00000000000E+00 0.  1.
         21   -1    0    0  501  502 -0.00000000000E+00 -0.00000000000E+00 -0.27761656113E+03  0.27761656113E+03  0.00000000000E+00 0.  1.
      99926    2    1    2    0    0  0.35527136788E-14  0.00000000000E+00 -0.90971567816E+02  0.46426155444E+03  0.45526142466E+03 0.  0.
      99925    2    3    3    0    0 -0.24988277313E+02 -0.18025954355E+02  0.54034255045E+02  0.27029365556E+03  0.26303918051E+03 0.  0.
         25    1    4    4    0    0 -0.15621566400E+01 -0.48089833373E+02  0.24841720838E+02  0.13630734243E+03  0.12509000000E+03 0.  0.
         25    1    4    4    0    0 -0.23426120673E+02  0.30063879018E+02  0.29192534207E+02  0.13398631313E+03  0.12509000000E+03 0.  0.
         25    1    3    3    0    0  0.24988277313E+02  0.18025954355E+02 -0.14500582286E+03  0.19396789888E+03  0.12509000000E+03 0.  0.
<mgrwt>
<rscale>  2 0.45526142E+03</rscale>
<asrwt>0</asrwt>
<pdfrwt beam="1">  1       21 0.27447794E-01 0.45526142E+03</pdfrwt>
<pdfrwt beam="2">  1       21 0.40825964E-01 0.45526142E+03</pdfrwt>
<totfact> 0.67724237E+04</totfact>
</mgrwt>
</event>
<event>
 7    0  0.4748297E-002  0.4596127E+03  0.7546771E-02  0.1024894E+00
         21   -1    0    0  502  501  0.00000000000E+00  0.00000000000E+00  0.87762246061E+03  0.87762246061E+03  0.00000000000E+00 0. -1.
         21   -1    0    0  501  502 -0.00000000000E+00 -0.00000000000E+00 -0.60175036668E+02  0.60175036668E+02  0.00000000000E+00 0. -1.
      99926    2    1    2    0    0  0.00000000000E+00  0.00000000000E+00  0.81744742394E+03  0.93779749728E+03  0.45961272284E+03 0.  0.
      99925    2    3    3    0    0  0.14326548051E+02 -0.55712983075E+02  0.30755203917E+03  0.40964032562E+03  0.26440074341E+03 0.  0.
         25    1    4    4    0    0  0.13434841787E+02 -0.20863760701E+02  0.21571071246E+03  0.25058813031E+03  0.12509000000E+03 0.  0.
         25    1    3    3    0    0 -0.14326548051E+02  0.55712983075E+02  0.50989538477E+03  0.52815717166E+03  0.12509000000E+03 0.  0.
         25    1    4    4    0    0  0.89170626320E+00 -0.34849222374E+02  0.91841326713E+02  0.15905219531E+03  0.12509000000E+03 0.  0.
<mgrwt>
<rscale>  2 0.45961272E+03</rscale>
<asrwt>0</asrwt>
<pdfrwt beam="1">  1       21 0.12906212E+00 0.45961272E+03</pdfrwt>
<pdfrwt beam="2">  1       21 0.88492706E-02 0.45961272E+03</pdfrwt>
<totfact> 0.40170047E+04</totfact>
</mgrwt>
</event>
<event>
 7    0  0.4748297E-002  0.4620089E+03  0.7546771E-02  0.1024200E+00
         21   -1    0    0  502  501  0.00000000000E+00  0.00000000000E+00  0.13328877994E+03  0.13328877994E+03  0.00000000000E+00 0.  1.
         21   -1    0    0  501  502 -0.00000000000E+00 -0.00000000000E+00 -0.40035663218E+03  0.40035663218E+03  0.00000000000E+00 0.  1.
      99926    2    1    2    0    0  0.00000000000E+00  0.00000000000E+00 -0.26706785224E+03  0.53364541211E+03  0.46200886157E+03 0.  0.
      99925    2    3    3    0    0 -0.59448237720E+02 -0.10039485385E+03 -0.19793263546E+03  0.34914498949E+03  0.26289099616E+03 0.  0.
         25    1    3    3    0    0  0.59448237720E+02  0.10039485385E+03 -0.69135216780E+02  0.18450042262E+03  0.12509000000E+03 0.  0.
         25    1    4    4    0    0 -0.52030827042E+02 -0.36210207078E+02 -0.13594279138E+03  0.19531087191E+03  0.12509000000E+03 0.  0.
         25    1    4    4    0    0 -0.74174106783E+01 -0.64184646776E+02 -0.61989844082E+02  0.15383411758E+03  0.12509000000E+03 0.  0.
<mgrwt>
<rscale>  2 0.46200886E+03</rscale>
<asrwt>0</asrwt>
<pdfrwt beam="1">  1       21 0.19601291E-01 0.46200886E+03</pdfrwt>
<pdfrwt beam="2">  1       21 0.58875976E-01 0.46200886E+03</pdfrwt>
<totfact> 0.59581067E+04</totfact>
</mgrwt>
</event>
<event>
 7    0  0.4748297E-002  0.4539733E+03  0.7546771E-02  0.1026544E+00
         21   -1    0    0  502  501  0.00000000000E+00  0.00000000000E+00  0.24900417979E+03  0.24900417979E+03  0.00000000000E+00 0. -1.
         21   -1    0    0  501  502 -0.00000000000E+00 -0.00000000000E+00 -0.20691597691E+03  0.20691597691E+03  0.00000000000E+00 0. -1.
      99926    2    1    2    0    0  0.00000000000E+00  0.00000000000E+00  0.42088202871E+02  0.45592015670E+03  0.45397331691E+03 0.  0.
      99925    2    3    3    0    0  0.88220763642E+02 -0.58185345128E+02  0.64223629378E+02  0.29067511825E+03  0.26305686130E+03 0.  0.
         25    1    3    3    0    0 -0.88220763642E+02  0.58185345128E+02 -0.22135426507E+02  0.16524503845E+03  0.12509000000E+03 0.  0.
         25    1    4    4    0    0  0.15066835082E+02  0.19690336732E+01  0.19367035417E+02  0.12748912414E+03  0.12509000000E+03 0.  0.
         25    1    4    4    0    0  0.73153928560E+02 -0.60154378802E+02  0.44856593961E+02  0.16318599411E+03  0.12509000000E+03 0.  0.
<mgrwt>
<rscale>  2 0.45397332E+03</rscale>
<asrwt>0</asrwt>
<pdfrwt beam="1">  1       21 0.36618262E-01 0.45397332E+03</pdfrwt>
<pdfrwt beam="2">  1       21 0.30428820E-01 0.45397332E+03</pdfrwt>
<totfact> 0.69042277E+04</totfact>
</mgrwt>
</event>
<event>
 7    0  0.4748297E-002  0.4550246E+03  0.7546771E-02  0.1026234E+00
         21   -1    0    0  502  501  0.00000000000E+00  0.00000000000E+00  0.38854127067E+03  0.38854127067E+03  0.00000000000E+00 0.  1.
         21   -1    0    0  501  502 -0.00000000000E+00 -0.00000000000E+00 -0.13322097602E+03  0.13322097602E+03  0.00000000000E+00 0.  1.
      99926    2    1    2    0    0  0.00000000000E+00  0.00000000000E+00  0.25532029466E+03  0.52176224669E+03  0.45502460286E+03 0.  0.
      99925    2    3    3    0    0  0.19666262752E+02  0.43747837961E+02  0.27839753638E+03  0.38581849949E+03  0.26277384016E+03 0.  0.
         25    1    4    4    0    0 -0.88931025420E+01 -0.11949646441E+02  0.15071926312E+03  0.19643239473E+03  0.12509000000E+03 0.  0.
         25    1    3    3    0    0 -0.19666262752E+02 -0.43747837961E+02 -0.23077241729E+02  0.13594374720E+03  0.12509000000E+03 0.  0.
         25    1    4    4    0    0  0.28559365294E+02  0.55697484402E+02  0.12767827326E+03  0.18938610476E+03  0.12509000000E+03 0.  0.
<mgrwt>
<rscale>  2 0.45502460E+03</rscale>
<asrwt>0</asrwt>
<pdfrwt beam="1">  1       21 0.57138422E-01 0.45502460E+03</pdfrwt>
<pdfrwt beam="2">  1       21 0.19591320E-01 0.45502460E+03</pdfrwt>
<totfact> 0.63754898E+04</totfact>
</mgrwt>
</event>
<event>
 7    0  0.4748297E-002  0.4558771E+03  0.7546771E-02  0.1025984E+00
         21   -1    0    0  502  501  0.00000000000E+00  0.00000000000E+00  0.17205231104E+04  0.17205231104E+04  0.00000000000E+00 0.  1.
         21   -1    0    0  501  502 -0.00000000000E+00 -0.00000000000E+00 -0.30197778780E+02  0.30197778780E+02  0.00000000000E+00 0.  1.
      99926    2    1    2    0    0 -0.14210854715E-13  0.00000000000E+00  0.16903253316E+04  0.17507208891E+04  0.45587707235E+03 0.  0.
      99925    2    3    3    0    0 -0.94248037647E+02  0.20176566648E+02  0.82784559296E+03  0.87390357974E+03  0.26284853899E+03 0.  0.
         25    1    3    3    0    0  0.94248037647E+02 -0.20176566648E+02  0.86247973861E+03  0.87681730940E+03  0.12509000000E+03 0.  0.
         25    1    4    4    0    0 -0.10166559191E+02  0.34435517360E+01  0.31472722083E+03  0.33884502151E+03  0.12509000000E+03 0.  0.
         25    1    4    4    0    0 -0.84081478455E+02  0.16733014912E+02  0.51311837214E+03  0.53505855823E+03  0.12509000000E+03 0.  0.
<mgrwt>
<rscale>  2 0.45587707E+03</rscale>
<asrwt>0</asrwt>
<pdfrwt beam="1">  1       21 0.25301804E+00 0.45587707E+03</pdfrwt>
<pdfrwt beam="2">  1       21 0.44408510E-02 0.45587707E+03</pdfrwt>
<totfact> 0.18102291E+04</totfact>
</mgrwt>
</event>
<event>
 7    0  0.4748297E-002  0.4153475E+03  0.7546771E-02  0.1038591E+00
         21   -1    0    0  502  501  0.00000000000E+00  0.00000000000E+00  0.15467787815E+03  0.15467787815E+03  0.00000000000E+00 0. -1.
         21   -1    0    0  501  502 -0.00000000000E+00 -0.00000000000E+00 -0.27882716270E+03  0.27882716270E+03  0.00000000000E+00 0. -1.
      99926    2    1    2    0    0  0.00000000000E+00  0.00000000000E+00 -0.12414928455E+03  0.43350504085E+03  0.41534753592E+03 0.  0.
      99925    2    3    3    0    0  0.56887563312E+02 -0.39889335745E+02 -0.88845814290E+02  0.28612391222E+03  0.26295619495E+03 0.  0.
         25    1    4    4    0    0  0.57283656180E+02  0.80627461373E+01 -0.39632774972E+02  0.14340394030E+03  0.12509000000E+03 0.  0.
         25    1    4    4    0    0 -0.39609286801E+00 -0.47952081882E+02 -0.49213039318E+02  0.14271997192E+03  0.12509000000E+03 0.  0.
         25    1    3    3    0    0 -0.56887563312E+02  0.39889335745E+02 -0.35303470258E+02  0.14738112864E+03  0.12509000000E+03 0.  0.
<mgrwt>
<rscale>  2 0.41534754E+03</rscale>
<asrwt>0</asrwt>
<pdfrwt beam="1">  1       21 0.22746747E-01 0.41534754E+03</pdfrwt>
<pdfrwt beam="2">  1       21 0.41003994E-01 0.41534754E+03</pdfrwt>
<totfact> 0.97490896E+04</totfact>
</mgrwt>
</event>
<event>
 7    0  0.4748297E-002  0.4573018E+03  0.7546771E-02  0.1025567E+00
         21   -1    0    0  502  501  0.00000000000E+00  0.00000000000E+00  0.39537372736E+03  0.39537372736E+03  0.00000000000E+00 0. -1.
         21   -1    0    0  501  502 -0.00000000000E+00 -0.00000000000E+00 -0.13223243416E+03  0.13223243416E+03  0.00000000000E+00 0. -1.
      99926    2    1    2    0    0  0.00000000000E+00  0.00000000000E+00  0.26314129321E+03  0.52760616152E+03  0.45730178382E+03 0.  0.
      99925    2    3    3    0    0  0.37566481413E+02 -0.75110854077E+02  0.25627047195E+03  0.37678309561E+03  0.26313127032E+03 0.  0.
         25    1    4    4    0    0 -0.11657646456E+01 -0.45311731093E+01  0.93260466673E+02  0.15609904958E+03  0.12509000000E+03 0.  0.
         25    1    3    3    0    0 -0.37566481413E+02  0.75110854077E+02  0.68708212565E+01  0.15082306591E+03  0.12509000000E+03 0.  0.
         25    1    4    4    0    0  0.38732246059E+02 -0.70579680968E+02  0.16301000528E+03  0.22068404603E+03  0.12509000000E+03 0.  0.
<mgrwt>
<rscale>  2 0.45730178E+03</rscale>
<asrwt>0</asrwt>
<pdfrwt beam="1">  1       21 0.58143195E-01 0.45730178E+03</pdfrwt>
<pdfrwt beam="2">  1       21 0.19445946E-01 0.45730178E+03</pdfrwt>
<totfact> 0.62225722E+04</totfact>
</mgrwt>
</event>
<event>
 7    0  0.4748297E-002  0.4531028E+03  0.7546771E-02  0.1026801E+00
         21   -1    0    0  502  501  0.00000000000E+00  0.00000000000E+00  0.89382973642E+02  0.89382973642E+02  0.00000000000E+00 0.  1.
         21   -1    0    0  501  502 -0.00000000000E+00 -0.00000000000E+00 -0.57422049863E+03  0.57422049863E+03  0.00000000000E+00 0.  1.
      99926    2    1    2    0    0  0.00000000000E+00  0.00000000000E+00 -0.48483752498E+03  0.66360347227E+03  0.45310279493E+03 0.  0.
      99925    2    3    3    0    0 -0.47806635835E+02  0.23869846757E+02 -0.44877126456E+03  0.52287846648E+03  0.26296577495E+03 0.  0.
         25    1    4    4    0    0 -0.18970093100E+02  0.34105084262E+02 -0.16084001461E+03  0.20746093513E+03  0.12509000000E+03 0.  0.
         25    1    4    4    0    0 -0.28836542735E+02 -0.10235237505E+02 -0.28793124995E+03  0.31541753134E+03  0.12509000000E+03 0.  0.
         25    1    3    3    0    0  0.47806635835E+02 -0.23869846757E+02 -0.36066260424E+02  0.14072500579E+03  0.12509000000E+03 0.  0.
<mgrwt>
<rscale>  2 0.45310279E+03</rscale>
<asrwt>0</asrwt>
<pdfrwt beam="1">  1       21 0.13144555E-01 0.45310279E+03</pdfrwt>
<pdfrwt beam="2">  1       21 0.84444190E-01 0.45310279E+03</pdfrwt>
<totfact> 0.55753024E+04</totfact>
</mgrwt>
</event>
<event>
 7    0  0.4748297E-002  0.4574686E+03  0.7546771E-02  0.1025518E+00
         21   -1    0    0  502  501  0.00000000000E+00  0.00000000000E+00  0.48420388870E+02  0.48420388870E+02  0.00000000000E+00 0. -1.
         21   -1    0    0  501  502 -0.00000000000E+00 -0.00000000000E+00 -0.10805235966E+04  0.10805235966E+04  0.00000000000E+00 0. -1.
      99926    2    1    2    0    0 -0.35527136788E-14  0.00000000000E+00 -0.10321032077E+04  0.11289439855E+04  0.45746856824E+03 0.  0.
      99925    2    3    3    0    0  0.18154861102E+02 -0.95264826408E+02 -0.80222392601E+03  0.84984368379E+03  0.26318448529E+03 0.  0.
         25    1    4    4    0    0  0.47070161118E+02 -0.40181499154E+02 -0.44041879381E+03  0.46200257032E+03  0.12509000000E+03 0.  0.
         25    1    3    3    0    0 -0.18154861102E+02  0.95264826408E+02 -0.22987928174E+03  0.27910030170E+03  0.12509000000E+03 0.  0.
         25    1    4    4    0    0 -0.28915300017E+02 -0.55083327253E+02 -0.36180513220E+03  0.38784111348E+03  0.12509000000E+03 0.  0.
<mgrwt>
<rscale>  2 0.45746857E+03</rscale>
<asrwt>0</asrwt>
<pdfrwt beam="1">  1       21 0.71206456E-02 0.45746857E+03</pdfrwt>
<pdfrwt beam="2">  1       21 0.15890052E+00 0.45746857E+03</pdfrwt>
<totfact> 0.33837359E+04</totfact>
</mgrwt>
</event>
<event>
 7    0  0.4748297E-002  0.4524913E+03  0.7546771E-02  0.1026982E+00
         21   -1    0    0  502  501  0.00000000000E+00  0.00000000000E+00  0.45734029242E+02  0.45734029242E+02  0.00000000000E+00 0.  1.
         21   -1    0    0  501  502 -0.00000000000E+00 -0.00000000000E+00 -0.11192343240E+04  0.11192343240E+04  0.00000000000E+00 0.  1.
      99926    2    1    2    0    0  0.00000000000E+00 -0.14210854715E-13 -0.10735002947E+04  0.11649683532E+04  0.45249130512E+03 0.  0.
      99925    2    3    3    0    0 -0.35493706096E+02 -0.68770803388E+02 -0.47266062693E+03  0.54638526173E+03  0.26294402334E+03 0.  0.
         25    1    4    4    0    0  0.27672778541E+01  0.10729983817E+01 -0.19721272644E+03  0.23355765182E+03  0.12509000000E+03 0.  0.
         25    1    3    3    0    0  0.35493706096E+02  0.68770803388E+02 -0.60083966780E+03  0.61858309148E+03  0.12509000000E+03 0.  0.
         25    1    4    4    0    0 -0.38260983950E+02 -0.69843801770E+02 -0.27544790049E+03  0.31282760991E+03  0.12509000000E+03 0.  0.
<mgrwt>
<rscale>  2 0.45249131E+03</rscale>
<asrwt>0</asrwt>
<pdfrwt beam="1">  1       21 0.67255930E-02 0.45249131E+03</pdfrwt>
<pdfrwt beam="2">  1       21 0.16459327E+00 0.45249131E+03</pdfrwt>
<totfact> 0.33945279E+04</totfact>
</mgrwt>
</event>
<event>
 7    0  0.4748297E-002  0.4556167E+03  0.7546771E-02  0.1026060E+00
         21   -1    0    0  502  501  0.00000000000E+00  0.00000000000E+00  0.70115398900E+02  0.70115398900E+02  0.00000000000E+00 0. -1.
         21   -1    0    0  501  502 -0.00000000000E+00 -0.00000000000E+00 -0.74016048869E+03  0.74016048869E+03  0.00000000000E+00 0. -1.
      99926    2    1    2    0    0  0.44408920985E-15 -0.17763568394E-14 -0.67004508979E+03  0.81027588759E+03  0.45561671574E+03 0.  0.
      99925    2    3    3    0    0  0.24879195703E+01 -0.86737691820E+01 -0.21976883522E+03  0.34285997264E+03  0.26300797686E+03 0.  0.
         25    1    4    4    0    0  0.99361729314E+01  0.17662669842E+02 -0.66399690303E+02  0.14306335803E+03  0.12509000000E+03 0.  0.
         25    1    3    3    0    0 -0.24879195703E+01  0.86737691820E+01 -0.45027625457E+03  0.46741591494E+03  0.12509000000E+03 0.  0.
         25    1    4    4    0    0 -0.74482533611E+01 -0.26336439024E+02 -0.15336914492E+03  0.19979661461E+03  0.12509000000E+03 0.  0.
<mgrwt>
<rscale>  2 0.45561672E+03</rscale>
<asrwt>0</asrwt>
<pdfrwt beam="1">  1       21 0.10311089E-01 0.45561672E+03</pdfrwt>
<pdfrwt beam="2">  1       21 0.10884712E+00 0.45561672E+03</pdfrwt>
<totfact> 0.47043710E+04</totfact>
</mgrwt>
</event>
<event>
 7    0  0.4748297E-002  0.4318784E+03  0.7546771E-02  0.1033268E+00
         21   -1    0    0  502  501  0.00000000000E+00  0.00000000000E+00  0.61275145992E+03  0.61275145992E+03  0.00000000000E+00 0. -1.
         21   -1    0    0  501  502 -0.00000000000E+00 -0.00000000000E+00 -0.76098947007E+02  0.76098947007E+02  0.00000000000E+00 0. -1.
      99926    2    1    2    0    0  0.14210854715E-13  0.00000000000E+00  0.53665251292E+03  0.68885040693E+03  0.43187841288E+03 0.  0.
      99925    2    3    3    0    0 -0.64595891877E+02 -0.38478461990E+02  0.42350709260E+03  0.50418147201E+03  0.26303512685E+03 0.  0.
         25    1    4    4    0    0 -0.55583829521E+01 -0.15513904163E+02  0.25848521476E+03  0.28763464881E+03  0.12509000000E+03 0.  0.
         25    1    4    4    0    0 -0.59037508925E+02 -0.22964557828E+02  0.16502187783E+03  0.21654682321E+03  0.12509000000E+03 0.  0.
         25    1    3    3    0    0  0.64595891877E+02  0.38478461990E+02  0.11314542032E+03  0.18466893492E+03  0.12509000000E+03 0.  0.
<mgrwt>
<rscale>  2 0.43187841E+03</rscale>
<asrwt>0</asrwt>
<pdfrwt beam="1">  1       21 0.90110506E-01 0.43187841E+03</pdfrwt>
<pdfrwt beam="2">  1       21 0.11191022E-01 0.43187841E+03</pdfrwt>
<totfact> 0.64469754E+04</totfact>
</mgrwt>
</event>
<event>
 7    0  0.4748297E-002  0.4614614E+03  0.7546771E-02  0.1024358E+00
         21   -1    0    0  502  501  0.00000000000E+00  0.00000000000E+00  0.35546392926E+02  0.35546392926E+02  0.00000000000E+00 0. -1.
         21   -1    0    0  501  502 -0.00000000000E+00 -0.00000000000E+00 -0.14976669267E+04  0.14976669267E+04  0.00000000000E+00 0. -1.
      99926    2    1    2    0    0  0.00000000000E+00  0.00000000000E+00 -0.14621205337E+04  0.15332133196E+04  0.46146140488E+03 0.  0.
      99925    2    3    3    0    0 -0.96739661430E+02  0.14817733838E+02 -0.68862445228E+03  0.74357933890E+03  0.26292293477E+03 0.  0.
         25    1    4    4    0    0 -0.39658486998E+02  0.22909570961E+02 -0.24253485163E+03  0.27670978730E+03  0.12509000000E+03 0.  0.
         25    1    4    4    0    0 -0.57081174432E+02 -0.80918371229E+01 -0.44608960065E+03  0.46686955160E+03  0.12509000000E+03 0.  0.
         25    1    3    3    0    0  0.96739661430E+02 -0.14817733838E+02 -0.77349608147E+03  0.78963398070E+03  0.12509000000E+03 0.  0.
<mgrwt>
<rscale>  2 0.46146140E+03</rscale>
<asrwt>0</asrwt>
<pdfrwt beam="1">  1       21 0.52274115E-02 0.46146140E+03</pdfrwt>
<pdfrwt beam="2">  1       21 0.22024511E+00 0.46146140E+03</pdfrwt>
<totfact> 0.21859044E+04</totfact>
</mgrwt>
</event>
<event>
 7    0  0.4748297E-002  0.4564467E+03  0.7546771E-02  0.1025817E+00
         21   -1    0    0  502  501  0.00000000000E+00  0.00000000000E+00  0.52508682982E+02  0.52508682982E+02  0.00000000000E+00 0. -1.
         21   -1    0    0  501  502 -0.00000000000E+00 -0.00000000000E+00 -0.99194821996E+03  0.99194821996E+03  0.00000000000E+00 0. -1.
      99926    2    1    2    0    0  0.00000000000E+00  0.35527136788E-14 -0.93943953698E+03  0.10444569029E+04  0.45644668743E+03 0.  0.
      99925    2    3    3    0    0  0.75209389586E+02  0.31341248073E+02 -0.77451391317E+03  0.82200084975E+03  0.26301115791E+03 0.  0.
         25    1    4    4    0    0 -0.66730360690E+00  0.16040013176E+02 -0.40878505515E+03  0.42779721449E+03  0.12509000000E+03 0.  0.
         25    1    4    4    0    0  0.75876693193E+02  0.15301234897E+02 -0.36572885802E+03  0.39420363525E+03  0.12509000000E+03 0.  0.
         25    1    3    3    0    0 -0.75209389586E+02 -0.31341248073E+02 -0.16492562381E+03  0.22245605319E+03  0.12509000000E+03 0.  0.
<mgrwt>
<rscale>  2 0.45644669E+03</rscale>
<asrwt>0</asrwt>
<pdfrwt beam="1">  1       21 0.77218650E-02 0.45644669E+03</pdfrwt>
<pdfrwt beam="2">  1       21 0.14587474E+00 0.45644669E+03</pdfrwt>
<totfact> 0.37061158E+04</totfact>
</mgrwt>
</event>
<event>
 7    0  0.4748297E-002  0.4575614E+03  0.7546771E-02  0.1025491E+00
         21   -1    0    0  502  501  0.00000000000E+00  0.00000000000E+00  0.71984273583E+03  0.71984273583E+03  0.00000000000E+00 0.  1.
         21   -1    0    0  501  502 -0.00000000000E+00 -0.00000000000E+00 -0.72711164391E+02  0.72711164391E+02  0.00000000000E+00 0.  1.
      99926    2    1    2    0    0 -0.14210854715E-13 -0.13322676296E-14  0.64713157144E+03  0.79255390022E+03  0.45756137731E+03 0.  0.
      99925    2    3    3    0    0 -0.11153530777E+03 -0.24329562027E+01  0.45848145110E+03  0.54020014028E+03  0.26299221737E+03 0.  0.
         25    1    3    3    0    0  0.11153530777E+03  0.24329562027E+01  0.18865012034E+03  0.25235375995E+03  0.12509000000E+03 0.  0.
         25    1    4    4    0    0 -0.65071262626E+02  0.19199001005E+02  0.17060101497E+03  0.22216004427E+03  0.12509000000E+03 0.  0.
         25    1    4    4    0    0 -0.46464045143E+02 -0.21631957208E+02  0.28788043613E+03  0.31804009601E+03  0.12509000000E+03 0.  0.
<mgrwt>
<rscale>  2 0.45756138E+03</rscale>
<asrwt>0</asrwt>
<pdfrwt beam="1">  1       21 0.10585922E+00 0.45756138E+03</pdfrwt>
<pdfrwt beam="2">  1       21 0.10692819E-01 0.45756138E+03</pdfrwt>
<totfact> 0.47171659E+04</totfact>
</mgrwt>
</event>
<event>
 7    0  0.4748297E-002  0.4520759E+03  0.7546771E-02  0.1027105E+00
         21   -1    0    0  502  501  0.00000000000E+00  0.00000000000E+00  0.32370366122E+03  0.32370366122E+03  0.00000000000E+00 0.  1.
         21   -1    0    0  501  502 -0.00000000000E+00 -0.00000000000E+00 -0.15783926161E+03  0.15783926161E+03  0.00000000000E+00 0.  1.
      99926    2    1    2    0    0  0.00000000000E+00 -0.14210854715E-13  0.16586439960E+03  0.48154292283E+03  0.45207586473E+03 0.  0.
      99925    2    3    3    0    0  0.48727007174E+01 -0.94368606265E+02  0.16557283386E+03  0.32477312290E+03  0.26293352959E+03 0.  0.
         25    1    4    4    0    0 -0.55869706703E+01 -0.79547308367E+02  0.59758170880E+02  0.15992978333E+03  0.12509000000E+03 0.  0.
         25    1    3    3    0    0 -0.48727007174E+01  0.94368606265E+02  0.29156574292E+00  0.15676979993E+03  0.12509000000E+03 0.  0.
         25    1    4    4    0    0  0.10459671388E+02 -0.14821297898E+02  0.10581466298E+03  0.16484333956E+03  0.12509000000E+03 0.  0.
<mgrwt>
<rscale>  2 0.45207586E+03</rscale>
<asrwt>0</asrwt>
<pdfrwt beam="1">  1       21 0.47603480E-01 0.45207586E+03</pdfrwt>
<pdfrwt beam="2">  1       21 0.23211656E-01 0.45207586E+03</pdfrwt>
<totfact> 0.68156324E+04</totfact>
</mgrwt>
</event>
<event>
 6    0  0.4748297E-002  0.4724391E+03  0.7546771E-02  0.1021234E+00
         21   -1    0    0  502  501  0.00000000000E+00  0.00000000000E+00  0.99575438573E+02  0.99575438573E+02  0.00000000000E+00 0.  1.
         21   -1    0    0  501  502 -0.00000000000E+00 -0.00000000000E+00 -0.56037601373E+03  0.56037601373E+03  0.00000000000E+00 0.  1.
      99926    2    1    2    0    0 -0.17763568394E-14  0.35527136788E-14 -0.46080057516E+03  0.65995145231E+03  0.47243914881E+03 0.  0.
         25    1    3    3    0    0  0.63278807451E+01 -0.27988333903E+02 -0.34519545521E+03  0.36828087014E+03  0.12509000000E+03 0.  0.
         25    1    3    3    0    0 -0.25907336033E+02  0.90545098691E+01 -0.10044110577E+03  0.16275471740E+03  0.12509000000E+03 0.  0.
         25    1    3    3    0    0  0.19579455288E+02  0.18933824034E+02 -0.15164014179E+02  0.12891586476E+03  0.12509000000E+03 0.  0.
<mgrwt>
<rscale>  2 0.47243915E+03</rscale>
<asrwt>0</asrwt>
<pdfrwt beam="1">  1       21 0.14643446E-01 0.47243915E+03</pdfrwt>
<pdfrwt beam="2">  1       21 0.82408239E-01 0.47243915E+03</pdfrwt>
<totfact> 0.48157740E+04</totfact>
</mgrwt>
</event>
<event>
 7    0  0.4748297E-002  0.4657676E+03  0.7546771E-02  0.1023122E+00
         21   -1    0    0  502  501  0.00000000000E+00  0.00000000000E+00  0.31616276720E+03  0.31616276720E+03  0.00000000000E+00 0.  1.
         21   -1    0    0  501  502 -0.00000000000E+00 -0.00000000000E+00 -0.17154099319E+03  0.17154099319E+03  0.00000000000E+00 0.  1.
      99926    2    1    2    0    0  0.00000000000E+00  0.00000000000E+00  0.14462177401E+03  0.48770376038E+03  0.46576764634E+03 0.  0.
      99925    2    3    3    0    0 -0.47987515043E+02 -0.90616401533E+02  0.19061518155E+02  0.28294287599E+03  0.26301938289E+03 0.  0.
         25    1    4    4    0    0 -0.60241144556E+02 -0.29398118026E+02  0.18644659628E+02  0.14313761306E+03  0.12509000000E+03 0.  0.
         25    1    4    4    0    0  0.12253629513E+02 -0.61218283506E+02  0.41685852692E+00  0.13980526293E+03  0.12509000000E+03 0.  0.
         25    1    3    3    0    0  0.47987515043E+02  0.90616401533E+02  0.12556025585E+03  0.20476088439E+03  0.12509000000E+03 0.  0.
<mgrwt>
<rscale>  2 0.46576765E+03</rscale>
<asrwt>0</asrwt>
<pdfrwt beam="1">  1       21 0.46494525E-01 0.46576765E+03</pdfrwt>
<pdfrwt beam="2">  1       21 0.25226617E-01 0.46576765E+03</pdfrwt>
<totfact> 0.60780070E+04</totfact>
</mgrwt>
</event>
<event>
 7    0  0.4748297E-002  0.4610798E+03  0.7546771E-02  0.1024469E+00
         21   -1    0    0  502  501  0.00000000000E+00  0.00000000000E+00  0.64143270882E+02  0.64143270882E+02  0.00000000000E+00 0. -1.
         21   -1    0    0  501  502 -0.00000000000E+00 -0.00000000000E+00 -0.82859283266E+03  0.82859283266E+03  0.00000000000E+00 0. -1.
      99926    2    1    2    0    0  0.00000000000E+00  0.00000000000E+00 -0.76444956178E+03  0.89273610354E+03  0.46107983914E+03 0.  0.
      99925    2    3    3    0    0  0.97702987724E+02 -0.55919914222E+02 -0.40543363672E+03  0.49623534293E+03  0.26305925412E+03 0.  0.
         25    1    3    3    0    0 -0.97702987724E+02  0.55919914222E+02 -0.35901592506E+03  0.39650076061E+03  0.12509000000E+03 0.  0.
         25    1    4    4    0    0  0.49422944002E+02 -0.32803806513E+02 -0.27435387711E+03  0.30730485694E+03  0.12509000000E+03 0.  0.
         25    1    4    4    0    0  0.48280043722E+02 -0.23116107709E+02 -0.13107975961E+03  0.18893048599E+03  0.12509000000E+03 0.  0.
<mgrwt>
<rscale>  2 0.46107984E+03</rscale>
<asrwt>0</asrwt>
<pdfrwt beam="1">  1       21 0.94328346E-02 0.46107984E+03</pdfrwt>
<pdfrwt beam="2">  1       21 0.12185188E+00 0.46107984E+03</pdfrwt>
<totfact> 0.41536222E+04</totfact>
</mgrwt>
</event>
<event>
 7    0  0.4748297E-002  0.4520151E+03  0.7546771E-02  0.1027123E+00
         21   -1    0    0  502  501  0.00000000000E+00  0.00000000000E+00  0.13011188128E+03  0.13011188128E+03  0.00000000000E+00 0.  1.
         21   -1    0    0  501  502 -0.00000000000E+00 -0.00000000000E+00 -0.39258070211E+03  0.39258070211E+03  0.00000000000E+00 0.  1.
      99926    2    1    2    0    0  0.00000000000E+00  0.00000000000E+00 -0.26246882083E+03  0.52269258338E+03  0.45201510463E+03 0.  0.
      99925    2    3    3    0    0  0.33274536103E+02  0.82907197658E+02 -0.24035487121E+03  0.36739502048E+03  0.26311183702E+03 0.  0.
         25    1    4    4    0    0  0.44970682405E+02  0.32433298810E+02 -0.15761192143E+03  0.20871824795E+03  0.12509000000E+03 0.  0.
         25    1    4    4    0    0 -0.11696146303E+02  0.50473898848E+02 -0.82742949778E+02  0.15867677253E+03  0.12509000000E+03 0.  0.
         25    1    3    3    0    0 -0.33274536103E+02 -0.82907197658E+02 -0.22113949619E+02  0.15529756290E+03  0.12509000000E+03 0.  0.
<mgrwt>
<rscale>  2 0.45201510E+03</rscale>
<asrwt>0</asrwt>
<pdfrwt beam="1">  1       21 0.19134100E-01 0.45201510E+03</pdfrwt>
<pdfrwt beam="2">  1       21 0.57732456E-01 0.45201510E+03</pdfrwt>
<totfact> 0.65233864E+04</totfact>
</mgrwt>
</event>
<event>
 7    0  0.4748297E-002  0.4538307E+03  0.7546771E-02  0.1026586E+00
         21   -1    0    0  502  501  0.00000000000E+00  0.00000000000E+00  0.63027498179E+02  0.63027498179E+02  0.00000000000E+00 0.  1.
         21   -1    0    0  501  502 -0.00000000000E+00 -0.00000000000E+00 -0.81695411268E+03  0.81695411268E+03  0.00000000000E+00 0.  1.
      99926    2    1    2    0    0  0.14210854715E-13  0.00000000000E+00 -0.75392661450E+03  0.87998161086E+03  0.45383069023E+03 0.  0.
      99925    2    3    3    0    0 -0.76937578936E+02 -0.71231641450E+02 -0.39805611698E+03  0.48846576584E+03  0.26297679429E+03 0.  0.
         25    1    3    3    0    0  0.76937578936E+02  0.71231641450E+02 -0.35587049752E+03  0.39151584502E+03  0.12509000000E+03 0.  0.
         25    1    4    4    0    0 -0.83622335218E+01 -0.52839777008E+02 -0.15687771399E+03  0.20765378454E+03  0.12509000000E+03 0.  0.
         25    1    4    4    0    0 -0.68575345414E+02 -0.18391864443E+02 -0.24117840299E+03  0.28081198131E+03  0.12509000000E+03 0.  0.
<mgrwt>
<rscale>  2 0.45383069E+03</rscale>
<asrwt>0</asrwt>
<pdfrwt beam="1">  1       21 0.92687494E-02 0.45383069E+03</pdfrwt>
<pdfrwt beam="2">  1       21 0.12014032E+00 0.45383069E+03</pdfrwt>
<totfact> 0.44516843E+04</totfact>
</mgrwt>
</event>
<event>
 7    0  0.4748297E-002  0.4540449E+03  0.7546771E-02  0.1026523E+00
         21   -1    0    0  502  501  0.00000000000E+00  0.00000000000E+00  0.38839666619E+03  0.38839666619E+03  0.00000000000E+00 0.  1.
         21   -1    0    0  501  502 -0.00000000000E+00 -0.00000000000E+00 -0.13269732800E+03  0.13269732800E+03  0.00000000000E+00 0.  1.
      99926    2    1    2    0    0  0.00000000000E+00  0.00000000000E+00  0.25569933819E+03  0.52109399418E+03  0.45404493084E+03 0.  0.
      99925    2    3    3    0    0 -0.10125138028E+03 -0.24494837841E+02  0.11309605635E+03  0.30467993923E+03  0.26303480439E+03 0.  0.
         25    1    3    3    0    0  0.10125138028E+03  0.24494837841E+02  0.14260328185E+03  0.21641405495E+03  0.12509000000E+03 0.  0.
         25    1    4    4    0    0 -0.67313923803E+02 -0.32172923985E+02  0.94239388670E+02  0.17347862074E+03  0.12509000000E+03 0.  0.
         25    1    4    4    0    0 -0.33937456472E+02  0.76780861437E+01  0.18856667678E+02  0.13120131849E+03  0.12509000000E+03 0.  0.
<mgrwt>
<rscale>  2 0.45404493E+03</rscale>
<asrwt>0</asrwt>
<pdfrwt beam="1">  1       21 0.57117156E-01 0.45404493E+03</pdfrwt>
<pdfrwt beam="2">  1       21 0.19514313E-01 0.45404493E+03</pdfrwt>
<totfact> 0.64298581E+04</totfact>
</mgrwt>
</event>
<event>
 7    0  0.4748297E-002  0.4541122E+03  0.7546771E-02  0.1026503E+00
         21   -1    0    0  502  501  0.00000000000E+00  0.00000000000E+00  0.44596115254E+03  0.44596115254E+03  0.00000000000E+00 0.  1.
         21   -1    0    0  501  502 -0.00000000000E+00 -0.00000000000E+00 -0.11560307346E+03  0.11560307346E+03  0.00000000000E+00 0.  1.
      99926    2    1    2    0    0  0.00000000000E+00  0.00000000000E+00  0.33035807908E+03  0.56156422599E+03  0.45411223228E+03 0.  0.
      99925    2    3    3    0    0  0.10999391405E+03 -0.96798266393E+01  0.23653227919E+03  0.37014022280E+03  0.26241933097E+03 0.  0.
         25    1    4    4    0    0  0.13129468546E+02  0.18050455960E+01  0.11290616330E+03  0.16902943810E+03  0.12509000000E+03 0.  0.
         25    1    3    3    0    0 -0.10999391405E+03  0.96798266393E+01  0.93825799889E+02  0.19142400319E+03  0.12509000000E+03 0.  0.
         25    1    4    4    0    0  0.96864445507E+02 -0.11484872235E+02  0.12362611589E+03  0.20111078470E+03  0.12509000000E+03 0.  0.
<mgrwt>
<rscale>  2 0.45411223E+03</rscale>
<asrwt>0</asrwt>
<pdfrwt beam="1">  1       21 0.65582522E-01 0.45411223E+03</pdfrwt>
<pdfrwt beam="2">  1       21 0.17000452E-01 0.45411223E+03</pdfrwt>
<totfact> 0.61539731E+04</totfact>
</mgrwt>
</event>
<event>
 7    0  0.4748297E-002  0.4266536E+03  0.7546771E-02  0.1034922E+00
         21   -1    0    0  502  501  0.00000000000E+00  0.00000000000E+00  0.14780388970E+03  0.14780388970E+03  0.00000000000E+00 0.  1.
         21   -1    0    0  501  502 -0.00000000000E+00 -0.00000000000E+00 -0.30789660860E+03  0.30789660860E+03  0.00000000000E+00 0.  1.
      99926    2    1    2    0    0  0.00000000000E+00  0.00000000000E+00 -0.16009271890E+03  0.45570049830E+03  0.42665356615E+03 0.  0.
      99925    2    3    3    0    0  0.28302416051E+02 -0.78854208994E+02 -0.10607549899E+03  0.29574931457E+03  0.26305252812E+03 0.  0.
         25    1    3    3    0    0 -0.28302416051E+02  0.78854208994E+02 -0.54017219915E+02  0.15995118373E+03  0.12509000000E+03 0.  0.
         25    1    4    4    0    0  0.43816024997E+02 -0.68670305581E+02 -0.64705438023E+02  0.16269528796E+03  0.12509000000E+03 0.  0.
         25    1    4    4    0    0 -0.15513608946E+02 -0.10183903413E+02 -0.41370060965E+02  0.13305402660E+03  0.12509000000E+03 0.  0.
<mgrwt>
<rscale>  2 0.42665357E+03</rscale>
<asrwt>0</asrwt>
<pdfrwt beam="1">  1       21 0.21735867E-01 0.42665357E+03</pdfrwt>
<pdfrwt beam="2">  1       21 0.45278912E-01 0.42665357E+03</pdfrwt>
<totfact> 0.86366370E+04</totfact>
</mgrwt>
</event>
<event>
 7    0  0.4748297E-002  0.4571623E+03  0.7546771E-02  0.1025607E+00
         21   -1    0    0  502  501  0.00000000000E+00  0.00000000000E+00  0.55706953598E+02  0.55706953598E+02  0.00000000000E+00 0.  1.
         21   -1    0    0  501  502 -0.00000000000E+00 -0.00000000000E+00 -0.93793223438E+03  0.93793223438E+03  0.00000000000E+00 0.  1.
      99926    2    1    2    0    0  0.00000000000E+00  0.00000000000E+00 -0.88222528078E+03  0.99363918798E+03  0.45716232329E+03 0.  0.
      99925    2    3    3    0    0  0.53493313611E+02 -0.95089658950E+02 -0.63462017852E+03  0.69554629540E+03  0.26294162892E+03 0.  0.
         25    1    4    4    0    0  0.17756836815E+02 -0.20547240013E+02 -0.36843098672E+03  0.39003383751E+03  0.12509000000E+03 0.  0.
         25    1    4    4    0    0  0.35736476797E+02 -0.74542418937E+02 -0.26618919180E+03  0.30551245789E+03  0.12509000000E+03 0.  0.
         25    1    3    3    0    0 -0.53493313611E+02  0.95089658950E+02 -0.24760510226E+03  0.29809289258E+03  0.12509000000E+03 0.  0.
<mgrwt>
<rscale>  2 0.45716232E+03</rscale>
<asrwt>0</asrwt>
<pdfrwt beam="1">  1       21 0.81921984E-02 0.45716232E+03</pdfrwt>
<pdfrwt beam="2">  1       21 0.13793122E+00 0.45716232E+03</pdfrwt>
<totfact> 0.38756394E+04</totfact>
</mgrwt>
</event>
<event>
 7    0  0.4748297E-002  0.4557193E+03  0.7546771E-02  0.1026030E+00
         21   -1    0    0  502  501  0.00000000000E+00  0.00000000000E+00  0.95577357475E+03  0.95577357475E+03  0.00000000000E+00 0. -1.
         21   -1    0    0  501  502 -0.00000000000E+00 -0.00000000000E+00 -0.54322512738E+02  0.54322512738E+02  0.00000000000E+00 0. -1.
      99926    2    1    2    0    0 -0.14210854715E-13  0.88817841970E-15  0.90145106202E+03  0.10100960875E+04  0.45571930918E+03 0.  0.
      99925    2    3    3    0    0  0.83030728033E+02 -0.50225015517E+01  0.73958454407E+03  0.78926220184E+03  0.26273598556E+03 0.  0.
         25    1    4    4    0    0  0.77486814387E+02 -0.19373388533E+02  0.36393413394E+03  0.39303320030E+03  0.12509000000E+03 0.  0.
         25    1    4    4    0    0  0.55439136457E+01  0.14350886981E+02  0.37565041013E+03  0.39622900155E+03  0.12509000000E+03 0.  0.
         25    1    3    3    0    0 -0.83030728033E+02  0.50225015517E+01  0.16186651795E+03  0.22083388565E+03  0.12509000000E+03 0.  0.
<mgrwt>
<rscale>  2 0.45571931E+03</rscale>
<asrwt>0</asrwt>
<pdfrwt beam="1">  1       21 0.14055493E+00 0.45571931E+03</pdfrwt>
<pdfrwt beam="2">  1       21 0.79886054E-02 0.45571931E+03</pdfrwt>
<totfact> 0.38559334E+04</totfact>
</mgrwt>
</event>
<event>
 7    0  0.4748297E-002  0.4495489E+03  0.7546771E-02  0.1027857E+00
         21   -1    0    0  502  501  0.00000000000E+00  0.00000000000E+00  0.10670309614E+03  0.10670309614E+03  0.00000000000E+00 0.  1.
         21   -1    0    0  501  502 -0.00000000000E+00 -0.00000000000E+00 -0.47349650472E+03  0.47349650472E+03  0.00000000000E+00 0.  1.
      99926    2    1    2    0    0  0.00000000000E+00  0.71054273576E-14 -0.36679340858E+03  0.58019960087E+03  0.44954885415E+03 0.  0.
      99925    2    3    3    0    0 -0.96454684335E+02 -0.44357324829E+02 -0.25760558933E+03  0.38311949946E+03  0.26296165656E+03 0.  0.
         25    1    4    4    0    0 -0.61434578288E+02 -0.48774499904E+02 -0.17564941914E+03  0.22946325587E+03  0.12509000000E+03 0.  0.
         25    1    3    3    0    0  0.96454684335E+02  0.44357324829E+02 -0.10918781925E+03  0.19708010141E+03  0.12509000000E+03 0.  0.
         25    1    4    4    0    0 -0.35020106047E+02  0.44171750750E+01 -0.81956170183E+02  0.15365624359E+03  0.12509000000E+03 0.  0.
<mgrwt>
<rscale>  2 0.44954885E+03</rscale>
<asrwt>0</asrwt>
<pdfrwt beam="1">  1       21 0.15691632E-01 0.44954885E+03</pdfrwt>
<pdfrwt beam="2">  1       21 0.69631839E-01 0.44954885E+03</pdfrwt>
<totfact> 0.62566879E+04</totfact>
</mgrwt>
</event>
<event>
 7    0  0.4748297E-002  0.4463735E+03  0.7546771E-02  0.1028809E+00
         21   -1    0    0  502  501  0.00000000000E+00  0.00000000000E+00  0.83855981518E+02  0.83855981518E+02  0.00000000000E+00 0.  1.
         21   -1    0    0  501  502 -0.00000000000E+00 -0.00000000000E+00 -0.59402240518E+03  0.59402240518E+03  0.00000000000E+00 0.  1.
      99926    2    1    2    0    0  0.00000000000E+00  0.17763568394E-14 -0.51016642366E+03  0.67787838670E+03  0.44637352892E+03 0.  0.
      99925    2    3    3    0    0  0.15755318907E+02 -0.14769277662E+02 -0.47947095156E+03  0.54727945200E+03  0.26297536683E+03 0.  0.
         25    1    4    4    0    0  0.32180410587E+02  0.12616129152E+02 -0.29325702054E+03  0.32068977804E+03  0.12509000000E+03 0.  0.
         25    1    3    3    0    0 -0.15755318907E+02  0.14769277662E+02 -0.30695472107E+02  0.13059893470E+03  0.12509000000E+03 0.  0.
         25    1    4    4    0    0 -0.16425091680E+02 -0.27385406815E+02 -0.18621393101E+03  0.22658967396E+03  0.12509000000E+03 0.  0.
<mgrwt>
<rscale>  2 0.44637353E+03</rscale>
<asrwt>0</asrwt>
<pdfrwt beam="1">  1       21 0.12331762E-01 0.44637353E+03</pdfrwt>
<pdfrwt beam="2">  1       21 0.87356234E-01 0.44637353E+03</pdfrwt>
<totfact> 0.57958946E+04</totfact>
</mgrwt>
</event>
<event>
 7    0  0.4748297E-002  0.4533687E+03  0.7546771E-02  0.1026722E+00
         21   -1    0    0  502  501  0.00000000000E+00  0.00000000000E+00  0.41562179898E+03  0.41562179898E+03  0.00000000000E+00 0.  1.
         21   -1    0    0  501  502 -0.00000000000E+00 -0.00000000000E+00 -0.12363595248E+03  0.12363595248E+03  0.00000000000E+00 0.  1.
      99926    2    1    2    0    0  0.00000000000E+00 -0.17763568394E-14  0.29198584650E+03  0.53925775147E+03  0.45336871083E+03 0.  0.
      99925    2    3    3    0    0  0.23521645873E+02 -0.13861530529E+02  0.31312262444E+03  0.40948995371E+03  0.26247063531E+03 0.  0.
         25    1    4    4    0    0 -0.83465516551E+00 -0.87964623991E+01  0.96991606690E+02  0.15853376381E+03  0.12509000000E+03 0.  0.
         25    1    3    3    0    0 -0.23521645873E+02  0.13861530529E+02 -0.21136777939E+02  0.12976779776E+03  0.12509000000E+03 0.  0.
         25    1    4    4    0    0  0.24356301038E+02 -0.50650681302E+01  0.21613101775E+03  0.25095618990E+03  0.12509000000E+03 0.  0.
<mgrwt>
<rscale>  2 0.45336871E+03</rscale>
<asrwt>0</asrwt>
<pdfrwt beam="1">  1       21 0.61120852E-01 0.45336871E+03</pdfrwt>
<pdfrwt beam="2">  1       21 0.18181758E-01 0.45336871E+03</pdfrwt>
<totfact> 0.63396498E+04</totfact>
</mgrwt>
</event>
<event>
 7    0  0.4748297E-002  0.4711509E+03  0.7546771E-02  0.1021596E+00
         21   -1    0    0  502  501  0.00000000000E+00  0.00000000000E+00  0.21928613681E+03  0.21928613681E+03  0.00000000000E+00 0.  1.
         21   -1    0    0  501  502 -0.00000000000E+00 -0.00000000000E+00 -0.25307483057E+03  0.25307483057E+03  0.00000000000E+00 0.  1.
      99926    2    1    2    0    0  0.00000000000E+00  0.00000000000E+00 -0.33788693759E+02  0.47236096737E+03  0.47115093937E+03 0.  0.
      99925    2    3    3    0    0  0.11244660901E+03  0.60956118456E+02 -0.93448991777E+01  0.29179271034E+03  0.26209877988E+03 0.  0.
         25    1    3    3    0    0 -0.11244660901E+03 -0.60956118456E+02 -0.24443794581E+02  0.18056825703E+03  0.12509000000E+03 0.  0.
         25    1    4    4    0    0  0.32655962453E+02 -0.26393838374E+01  0.72710355766E+01  0.12951352937E+03  0.12509000000E+03 0.  0.
         25    1    4    4    0    0  0.79790646555E+02  0.63595502294E+02 -0.16615934754E+02  0.16227918097E+03  0.12509000000E+03 0.  0.
<mgrwt>
<rscale>  2 0.47115094E+03</rscale>
<asrwt>0</asrwt>
<pdfrwt beam="1">  1       21 0.32247962E-01 0.47115094E+03</pdfrwt>
<pdfrwt beam="2">  1       21 0.37216886E-01 0.47115094E+03</pdfrwt>
<totfact> 0.59277244E+04</totfact>
</mgrwt>
</event>
<event>
 7    0  0.4748297E-002  0.4401489E+03  0.7546771E-02  0.1030701E+00
         21   -1    0    0  502  501  0.00000000000E+00  0.00000000000E+00  0.47684850219E+02  0.47684850219E+02  0.00000000000E+00 0. -1.
         21   -1    0    0  501  502 -0.00000000000E+00 -0.00000000000E+00 -0.10156844628E+04  0.10156844628E+04  0.00000000000E+00 0. -1.
      99926    2    1    2    0    0  0.00000000000E+00  0.00000000000E+00 -0.96799961260E+03  0.10633693130E+04  0.44014889062E+03 0.  0.
      99925    2    3    3    0    0  0.94187732331E+02  0.19720195605E+02 -0.66376697647E+03  0.72063731858E+03  0.26357414677E+03 0.  0.
         25    1    4    4    0    0  0.12979465301E+02 -0.17234579261E+02 -0.30256225039E+03  0.32811114078E+03  0.12509000000E+03 0.  0.
         25    1    4    4    0    0  0.81208267029E+02  0.36954774866E+02 -0.36120472608E+03  0.39252617781E+03  0.12509000000E+03 0.  0.
         25    1    3    3    0    0 -0.94187732331E+02 -0.19720195605E+02 -0.30423263613E+03  0.34273199445E+03  0.12509000000E+03 0.  0.
<mgrwt>
<rscale>  2 0.44014889E+03</rscale>
<asrwt>0</asrwt>
<pdfrwt beam="1">  1       21 0.70124782E-02 0.44014889E+03</pdfrwt>
<pdfrwt beam="2">  1       21 0.14936536E+00 0.44014889E+03</pdfrwt>
<totfact> 0.41382803E+04</totfact>
</mgrwt>
</event>
<event>
 7    0  0.4748297E-002  0.4480799E+03  0.7546771E-02  0.1028296E+00
         21   -1    0    0  502  501  0.00000000000E+00  0.00000000000E+00  0.28942067705E+03  0.28942067705E+03  0.00000000000E+00 0. -1.
         21   -1    0    0  501  502 -0.00000000000E+00 -0.00000000000E+00 -0.17342884640E+03  0.17342884640E+03  0.00000000000E+00 0. -1.
      99926    2    1    2    0    0  0.35527136788E-14  0.00000000000E+00  0.11599183065E+03  0.46284952345E+03  0.44807987745E+03 0.  0.
      99925    2    3    3    0    0 -0.29508942174E+02  0.10125119072E+03  0.57146947299E+02  0.28897367784E+03  0.26290194295E+03 0.  0.
         25    1    4    4    0    0  0.13699461288E+02  0.19924141053E+02  0.16990945682E+02  0.12853344690E+03  0.12509000000E+03 0.  0.
         25    1    3    3    0    0  0.29508942174E+02 -0.10125119072E+03  0.58844883350E+02  0.17387584561E+03  0.12509000000E+03 0.  0.
         25    1    4    4    0    0 -0.43208403462E+02  0.81327049669E+02  0.40156001617E+02  0.16044023094E+03  0.12509000000E+03 0.  0.
<mgrwt>
<rscale>  2 0.44807988E+03</rscale>
<asrwt>0</asrwt>
<pdfrwt beam="1">  1       21 0.42561864E-01 0.44807988E+03</pdfrwt>
<pdfrwt beam="2">  1       21 0.25504242E-01 0.44807988E+03</pdfrwt>
<totfact> 0.71834319E+04</totfact>
</mgrwt>
</event>
<event>
 7    0  0.4748297E-002  0.4643771E+03  0.7546771E-02  0.1023519E+00
         21   -1    0    0  502  501  0.00000000000E+00  0.00000000000E+00  0.39363339125E+03  0.39363339125E+03  0.00000000000E+00 0.  1.
         21   -1    0    0  501  502 -0.00000000000E+00 -0.00000000000E+00 -0.13695869874E+03  0.13695869874E+03  0.00000000000E+00 0.  1.
      99926    2    1    2    0    0  0.00000000000E+00  0.00000000000E+00  0.25667469251E+03  0.53059208999E+03  0.46437707543E+03 0.  0.
      99925    2    3    3    0    0 -0.96699546605E+02  0.34815748242E+02  0.85761790204E+02  0.29517402162E+03  0.26307732655E+03 0.  0.
         25    1    4    4    0    0 -0.82765179664E+01  0.10495740284E+02  0.23181817368E+02  0.12792015506E+03  0.12509000000E+03 0.  0.
         25    1    4    4    0    0 -0.88423028638E+02  0.24320007959E+02  0.62579972836E+02  0.16725386656E+03  0.12509000000E+03 0.  0.
         25    1    3    3    0    0  0.96699546605E+02 -0.34815748242E+02  0.17091290231E+03  0.23541806837E+03  0.12509000000E+03 0.  0.
<mgrwt>
<rscale>  2 0.46437708E+03</rscale>
<asrwt>0</asrwt>
<pdfrwt beam="1">  1       21 0.57887263E-01 0.46437708E+03</pdfrwt>
<pdfrwt beam="2">  1       21 0.20140985E-01 0.46437708E+03</pdfrwt>
<totfact> 0.58681591E+04</totfact>
</mgrwt>
</event>
<event>
 7    0  0.4748297E-002  0.4525384E+03  0.7546771E-02  0.1026968E+00
         21   -1    0    0  502  501  0.00000000000E+00  0.00000000000E+00  0.18096259762E+03  0.18096259762E+03  0.00000000000E+00 0.  1.
         21   -1    0    0  501  502 -0.00000000000E+00 -0.00000000000E+00 -0.28291900658E+03  0.28291900658E+03  0.00000000000E+00 0.  1.
      99926    2    1    2    0    0  0.00000000000E+00 -0.71054273576E-14 -0.10195640896E+03  0.46388160420E+03  0.45253843305E+03 0.  0.
      99925    2    3    3    0    0 -0.61851714531E+02 -0.56162188439E+02 -0.13833628934E+03  0.30912104787E+03  0.26351293571E+03 0.  0.
         25    1    4    4    0    0 -0.17741541531E+02 -0.59345569447E+02 -0.44113947233E+02  0.14639059857E+03  0.12509000000E+03 0.  0.
         25    1    4    4    0    0 -0.44110173000E+02  0.31833810087E+01 -0.94222342105E+02  0.16273044930E+03  0.12509000000E+03 0.  0.
         25    1    3    3    0    0  0.61851714531E+02  0.56162188439E+02  0.36379880374E+02  0.15476055633E+03  0.12509000000E+03 0.  0.
<mgrwt>
<rscale>  2 0.45253843E+03</rscale>
<asrwt>0</asrwt>
<pdfrwt beam="1">  1       21 0.26612147E-01 0.45253843E+03</pdfrwt>
<pdfrwt beam="2">  1       21 0.41605736E-01 0.45253843E+03</pdfrwt>
<totfact> 0.69235882E+04</totfact>
</mgrwt>
</event>
<event>
 7    0  0.4748297E-002  0.4637180E+03  0.7546771E-02  0.1023708E+00
         21   -1    0    0  502  501  0.00000000000E+00  0.00000000000E+00  0.90157520394E+02  0.90157520394E+02  0.00000000000E+00 0.  1.
         21   -1    0    0  501  502 -0.00000000000E+00 -0.00000000000E+00 -0.59627423210E+03  0.59627423210E+03  0.00000000000E+00 0.  1.
      99926    2    1    2    0    0  0.00000000000E+00  0.35527136788E-14 -0.50611671171E+03  0.68643175250E+03  0.46371804468E+03 0.  0.
      99925    2    3    3    0    0 -0.92724300857E+02  0.21065854771E+02 -0.42727155305E+03  0.51063177141E+03  0.26294915805E+03 0.  0.
         25    1    3    3    0    0  0.92724300857E+02 -0.21065854771E+02 -0.78845158659E+02  0.17579998109E+03  0.12509000000E+03 0.  0.
         25    1    4    4    0    0 -0.65679723573E+02 -0.22859038061E+02 -0.19612247958E+03  0.24279187961E+03  0.12509000000E+03 0.  0.
         25    1    4    4    0    0 -0.27044577284E+02  0.43924892832E+02 -0.23114907347E+03  0.26783989180E+03  0.12509000000E+03 0.  0.
<mgrwt>
<rscale>  2 0.46371804E+03</rscale>
<asrwt>0</asrwt>
<pdfrwt beam="1">  1       21 0.13258459E-01 0.46371804E+03</pdfrwt>
<pdfrwt beam="2">  1       21 0.87687386E-01 0.46371804E+03</pdfrwt>
<totfact> 0.50114869E+04</totfact>
</mgrwt>
</event>
<event>
 7    0  0.4748297E-002  0.4641242E+03  0.7546771E-02  0.1023592E+00
         21   -1    0    0  502  501  0.00000000000E+00  0.00000000000E+00  0.50373405073E+03  0.50373405073E+03  0.00000000000E+00 0. -1.
         21   -1    0    0  501  502 -0.00000000000E+00 -0.00000000000E+00 -0.10690722821E+03  0.10690722821E+03  0.00000000000E+00 0. -1.
      99926    2    1    2    0    0  0.14210854715E-13  0.71054273576E-14  0.39682682252E+03  0.61064127893E+03  0.46412416924E+03 0.  0.
      99925    2    3    3    0    0  0.99570505857E+02  0.48704017335E+02  0.31352813916E+03  0.42389935624E+03  0.26287716378E+03 0.  0.
         25    1    4    4    0    0  0.98357527649E+01  0.34571087825E+02  0.13031997074E+03  0.18418117445E+03  0.12509000000E+03 0.  0.
         25    1    4    4    0    0  0.89734753092E+02  0.14132929510E+02  0.18320816842E+03  0.23971818180E+03  0.12509000000E+03 0.  0.
         25    1    3    3    0    0 -0.99570505857E+02 -0.48704017335E+02  0.83298683354E+02  0.18674192269E+03  0.12509000000E+03 0.  0.
<mgrwt>
<rscale>  2 0.46412417E+03</rscale>
<asrwt>0</asrwt>
<pdfrwt beam="1">  1       21 0.74078536E-01 0.46412417E+03</pdfrwt>
<pdfrwt beam="2">  1       21 0.15721651E-01 0.46412417E+03</pdfrwt>
<totfact> 0.54027484E+04</totfact>
</mgrwt>
</event>
<event>
 7    0  0.4748297E-002  0.4570825E+03  0.7546771E-02  0.1025631E+00
         21   -1    0    0  502  501  0.00000000000E+00  0.00000000000E+00  0.68401835461E+02  0.68401835461E+02  0.00000000000E+00 0. -1.
         21   -1    0    0  501  502 -0.00000000000E+00 -0.00000000000E+00 -0.76359223210E+03  0.76359223210E+03  0.00000000000E+00 0. -1.
      99926    2    1    2    0    0 -0.35527136788E-14 -0.35527136788E-14 -0.69519039664E+03  0.83199406756E+03  0.45708253180E+03 0.  0.
      99925    2    3    3    0    0 -0.21857087244E+02 -0.20099898033E+02 -0.23410688447E+03  0.35332168329E+03  0.26296091034E+03 0.  0.
         25    1    3    3    0    0  0.21857087244E+02  0.20099898033E+02 -0.46108351218E+03  0.47867238427E+03  0.12509000000E+03 0.  0.
         25    1    4    4    0    0 -0.34580129373E+02 -0.20373339587E+02 -0.16129584176E+03  0.20802575557E+03  0.12509000000E+03 0.  0.
         25    1    4    4    0    0  0.12723042129E+02  0.27344155437E+00 -0.72811042707E+02  0.14529592772E+03  0.12509000000E+03 0.  0.
<mgrwt>
<rscale>  2 0.45708253E+03</rscale>
<asrwt>0</asrwt>
<pdfrwt beam="1">  1       21 0.10059093E-01 0.45708253E+03</pdfrwt>
<pdfrwt beam="2">  1       21 0.11229298E+00 0.45708253E+03</pdfrwt>
<totfact> 0.45507760E+04</totfact>
</mgrwt>
</event>
<event>
 7    0  0.4748297E-002  0.4567801E+03  0.7546771E-02  0.1025719E+00
         21   -1    0    0  502  501  0.00000000000E+00  0.00000000000E+00  0.14966190087E+03  0.14966190087E+03  0.00000000000E+00 0.  1.
         21   -1    0    0  501  502 -0.00000000000E+00 -0.00000000000E+00 -0.34853231161E+03  0.34853231161E+03  0.00000000000E+00 0.  1.
      99926    2    1    2    0    0  0.35527136788E-14 -0.35527136788E-14 -0.19887041074E+03  0.49819421248E+03  0.45678007080E+03 0.  0.
      99925    2    3    3    0    0 -0.24153411492E+02  0.25121129627E+02 -0.24423030213E+03  0.36064608895E+03  0.26306406550E+03 0.  0.
         25    1    4    4    0    0  0.17184034956E+02 -0.65933823309E+01 -0.14682986991E+03  0.19376605107E+03  0.12509000000E+03 0.  0.
         25    1    4    4    0    0 -0.41337446448E+02  0.31714511958E+02 -0.97400432217E+02  0.16688003788E+03  0.12509000000E+03 0.  0.
         25    1    3    3    0    0  0.24153411492E+02 -0.25121129627E+02  0.45359891389E+02  0.13754812353E+03  0.12509000000E+03 0.  0.
<mgrwt>
<rscale>  2 0.45678007E+03</rscale>
<asrwt>0</asrwt>
<pdfrwt beam="1">  1       21 0.22009103E-01 0.45678007E+03</pdfrwt>
<pdfrwt beam="2">  1       21 0.51254752E-01 0.45678007E+03</pdfrwt>
<totfact> 0.64481699E+04</totfact>
</mgrwt>
</event>
<event>
 7    0  0.4748297E-002  0.4503442E+03  0.7546771E-02  0.1027619E+00
         21   -1    0    0  502  501  0.00000000000E+00  0.00000000000E+00  0.11856392618E+04  0.11856392618E+04  0.00000000000E+00 0.  1.
         21   -1    0    0  501  502 -0.00000000000E+00 -0.00000000000E+00 -0.42763820933E+02  0.42763820933E+02  0.00000000000E+00 0.  1.
      99926    2    1    2    0    0  0.14210854715E-13  0.00000000000E+00  0.11428754409E+04  0.12284030828E+04  0.45034415766E+03 0.  0.
      99925    2    3    3    0    0  0.68459356586E+02 -0.79536959582E+02  0.64521911436E+03  0.70464537267E+03  0.26306764195E+03 0.  0.
         25    1    3    3    0    0 -0.68459356586E+02  0.79536959582E+02  0.49765632653E+03  0.52375771009E+03  0.12509000000E+03 0.  0.
         25    1    4    4    0    0  0.62575210132E+02 -0.29263336838E+02  0.26313461065E+03  0.29943168040E+03  0.12509000000E+03 0.  0.
         25    1    4    4    0    0  0.58841464534E+01 -0.50273622744E+02  0.38208450371E+03  0.40521369227E+03  0.12509000000E+03 0.  0.
<mgrwt>
<rscale>  2 0.45034416E+03</rscale>
<asrwt>0</asrwt>
<pdfrwt beam="1">  1       21 0.17435869E+00 0.45034416E+03</pdfrwt>
<pdfrwt beam="2">  1       21 0.62887980E-02 0.45034416E+03</pdfrwt>
<totfact> 0.32426581E+04</totfact>
</mgrwt>
</event>
<event>
 7    0  0.4748297E-002  0.4514983E+03  0.7546771E-02  0.1027276E+00
         21   -1    0    0  502  501  0.00000000000E+00  0.00000000000E+00  0.19461692967E+04  0.19461692967E+04  0.00000000000E+00 0. -1.
         21   -1    0    0  501  502 -0.00000000000E+00 -0.00000000000E+00 -0.26186143895E+02  0.26186143895E+02  0.00000000000E+00 0. -1.
      99926    2    1    2    0    0  0.14210854715E-13  0.71054273576E-14  0.19199831529E+04  0.19723554406E+04  0.45149825802E+03 0.  0.
      99925    2    3    3    0    0  0.78090731256E+02  0.38585948715E+02  0.15044237472E+04  0.15297222229E+04  0.26300614113E+03 0.  0.
         25    1    4    4    0    0  0.38651491151E+02  0.20943096069E+02  0.97663855791E+03  0.98559775362E+03  0.12509000000E+03 0.  0.
         25    1    3    3    0    0 -0.78090731256E+02 -0.38585948715E+02  0.41555940566E+03  0.44263321778E+03  0.12509000000E+03 0.  0.
         25    1    4    4    0    0  0.39439240105E+02  0.17642852646E+02  0.52778518928E+03  0.54412446924E+03  0.12509000000E+03 0.  0.
<mgrwt>
<rscale>  2 0.45149826E+03</rscale>
<asrwt>0</asrwt>
<pdfrwt beam="1">  1       21 0.28620127E+00 0.45149826E+03</pdfrwt>
<pdfrwt beam="2">  1       21 0.38509048E-02 0.45149826E+03</pdfrwt>
<totfact> 0.14558150E+04</totfact>
</mgrwt>
</event>
<event>
 7    0  0.4748297E-002  0.4481472E+03  0.7546771E-02  0.1028276E+00
         21   -1    0    0  502  501  0.00000000000E+00  0.00000000000E+00  0.31630232349E+03  0.31630232349E+03  0.00000000000E+00 0. -1.
         21   -1    0    0  501  502 -0.00000000000E+00 -0.00000000000E+00 -0.15873729762E+03  0.15873729762E+03  0.00000000000E+00 0. -1.
      99926    2    1    2    0    0  0.00000000000E+00  0.17763568394E-14  0.15756502587E+03  0.47503962111E+03  0.44814719038E+03 0.  0.
      99925    2    3    3    0    0 -0.10227865767E+03  0.95347236825E+01  0.69348615856E+02  0.29069896399E+03  0.26295403091E+03 0.  0.
         25    1    4    4    0    0 -0.74356092619E+02 -0.71250791666E+01  0.37162107090E+01  0.14574262789E+03  0.12509000000E+03 0.  0.
         25    1    4    4    0    0 -0.27922565051E+02  0.16659802849E+02  0.65632405147E+02  0.14495633610E+03  0.12509000000E+03 0.  0.
         25    1    3    3    0    0  0.10227865767E+03 -0.95347236825E+01  0.88216410018E+02  0.18434065712E+03  0.12509000000E+03 0.  0.
<mgrwt>
<rscale>  2 0.44814719E+03</rscale>
<asrwt>0</asrwt>
<pdfrwt beam="1">  1       21 0.46515048E-01 0.44814719E+03</pdfrwt>
<pdfrwt beam="2">  1       21 0.23343720E-01 0.44814719E+03</pdfrwt>
<totfact> 0.70838303E+04</totfact>
</mgrwt>
</event>
<event>
 7    0  0.4748297E-002  0.4524975E+03  0.7546771E-02  0.1026980E+00
         21   -1    0    0  502  501  0.00000000000E+00  0.00000000000E+00  0.12525760669E+03  0.12525760669E+03  0.00000000000E+00 0. -1.
         21   -1    0    0  501  502 -0.00000000000E+00 -0.00000000000E+00 -0.40866583682E+03  0.40866583682E+03  0.00000000000E+00 0. -1.
      99926    2    1    2    0    0 -0.53290705182E-14  0.71054273576E-14 -0.28340823013E+03  0.53392344351E+03  0.45249753439E+03 0.  0.
      99925    2    3    3    0    0 -0.10582236862E+02 -0.53651527425E+02 -0.29242992749E+03  0.39710469752E+03  0.26303309329E+03 0.  0.
         25    1    3    3    0    0  0.10582236862E+02  0.53651527425E+02  0.90216973599E+01  0.13681874599E+03  0.12509000000E+03 0.  0.
         25    1    4    4    0    0  0.35213811385E+02 -0.29868715594E+02 -0.14573240849E+03  0.19752872112E+03  0.12509000000E+03 0.  0.
         25    1    4    4    0    0 -0.45796048247E+02 -0.23782811832E+02 -0.14669751900E+03  0.19957597639E+03  0.12509000000E+03 0.  0.
<mgrwt>
<rscale>  2 0.45249753E+03</rscale>
<asrwt>0</asrwt>
<pdfrwt beam="1">  1       21 0.18420236E-01 0.45249753E+03</pdfrwt>
<pdfrwt beam="2">  1       21 0.60097919E-01 0.45249753E+03</pdfrwt>
<totfact> 0.64203812E+04</totfact>
</mgrwt>
</event>
<event>
 7    0  0.4748297E-002  0.4567636E+03  0.7546771E-02  0.1025724E+00
         21   -1    0    0  502  501  0.00000000000E+00  0.00000000000E+00  0.31854479277E+03  0.31854479277E+03  0.00000000000E+00 0.  1.
         21   -1    0    0  501  502 -0.00000000000E+00 -0.00000000000E+00 -0.16373913178E+03  0.16373913178E+03  0.00000000000E+00 0.  1.
      99926    2    1    2    0    0  0.00000000000E+00  0.00000000000E+00  0.15480566099E+03  0.48228392456E+03  0.45676360539E+03 0.  0.
      99925    2    3    3    0    0 -0.10756789279E+03  0.32680849399E+02  0.72707983681E+02  0.29513044156E+03  0.26301451893E+03 0.  0.
         25    1    4    4    0    0 -0.19598305369E+02  0.19355065152E+02  0.58977859282E+02  0.14101279412E+03  0.12509000000E+03 0.  0.
         25    1    3    3    0    0  0.10756789279E+03 -0.32680849399E+02  0.82097677307E+02  0.18715348299E+03  0.12509000000E+03 0.  0.
         25    1    4    4    0    0 -0.87969587422E+02  0.13325784247E+02  0.13730124399E+02  0.15411764744E+03  0.12509000000E+03 0.  0.
<mgrwt>
<rscale>  2 0.45676361E+03</rscale>
<asrwt>0</asrwt>
<pdfrwt beam="1">  1       21 0.46844822E-01 0.45676361E+03</pdfrwt>
<pdfrwt beam="2">  1       21 0.24079284E-01 0.45676361E+03</pdfrwt>
<totfact> 0.65610909E+04</totfact>
</mgrwt>
</event>
<event>
 7    0  0.4748297E-002  0.4581378E+03  0.7546771E-02  0.1025323E+00
         21   -1    0    0  502  501  0.00000000000E+00  0.00000000000E+00  0.56719804866E+02  0.56719804866E+02  0.00000000000E+00 0. -1.
         21   -1    0    0  501  502 -0.00000000000E+00 -0.00000000000E+00 -0.92511867052E+03  0.92511867052E+03  0.00000000000E+00 0. -1.
      99926    2    1    2    0    0  0.00000000000E+00 -0.17763568394E-14 -0.86839886565E+03  0.98183847539E+03  0.45813775426E+03 0.  0.
      99925    2    3    3    0    0  0.11138650531E+03 -0.15474095206E+02 -0.48324971490E+03  0.56156026085E+03  0.26300805772E+03 0.  0.
         25    1    4    4    0    0  0.36157385093E+02  0.21083662196E+02 -0.27080083918E+03  0.30121832599E+03  0.12509000000E+03 0.  0.
         25    1    4    4    0    0  0.75229120216E+02 -0.36557757401E+02 -0.21244887572E+03  0.26034193486E+03  0.12509000000E+03 0.  0.
         25    1    3    3    0    0 -0.11138650531E+03  0.15474095206E+02 -0.38514915075E+03  0.42027821454E+03  0.12509000000E+03 0.  0.
<mgrwt>
<rscale>  2 0.45813775E+03</rscale>
<asrwt>0</asrwt>
<pdfrwt beam="1">  1       21 0.83411467E-02 0.45813775E+03</pdfrwt>
<pdfrwt beam="2">  1       21 0.13604688E+00 0.45813775E+03</pdfrwt>
<totfact> 0.38914310E+04</totfact>
</mgrwt>
</event>
<event>
 7    0  0.4748297E-002  0.4646076E+03  0.7546771E-02  0.1023453E+00
         21   -1    0    0  502  501  0.00000000000E+00  0.00000000000E+00  0.57890186165E+02  0.57890186165E+02  0.00000000000E+00 0. -1.
         21   -1    0    0  501  502 -0.00000000000E+00 -0.00000000000E+00 -0.93219694167E+03  0.93219694167E+03  0.00000000000E+00 0. -1.
      99926    2    1    2    0    0  0.00000000000E+00  0.00000000000E+00 -0.87430675551E+03  0.99008712784E+03  0.46460759570E+03 0.  0.
      99925    2    3    3    0    0 -0.20892042506E+02  0.67240517706E+02 -0.75773797339E+03  0.80517213730E+03  0.26301629170E+03 0.  0.
         25    1    4    4    0    0 -0.49260269665E+02  0.22003366712E+02 -0.37230268864E+03  0.39644359294E+03  0.12509000000E+03 0.  0.
         25    1    3    3    0    0  0.20892042506E+02 -0.67240517706E+02 -0.11656878211E+03  0.18491499053E+03  0.12509000000E+03 0.  0.
         25    1    4    4    0    0  0.28368227158E+02  0.45237150993E+02 -0.38543528475E+03  0.40872854436E+03  0.12509000000E+03 0.  0.
<mgrwt>
<rscale>  2 0.46460760E+03</rscale>
<asrwt>0</asrwt>
<pdfrwt beam="1">  1       21 0.85132632E-02 0.46460760E+03</pdfrwt>
<pdfrwt beam="2">  1       21 0.13708778E+00 0.46460760E+03</pdfrwt>
<totfact> 0.36720455E+04</totfact>
</mgrwt>
</event>
<event>
 7    0  0.4748297E-002  0.4588399E+03  0.7546771E-02  0.1025118E+00
         21   -1    0    0  502  501  0.00000000000E+00  0.00000000000E+00  0.60658550136E+03  0.60658550136E+03  0.00000000000E+00 0.  1.
         21   -1    0    0  501  502 -0.00000000000E+00 -0.00000000000E+00 -0.86770161185E+02  0.86770161185E+02  0.00000000000E+00 0.  1.
      99926    2    1    2    0    0  0.00000000000E+00 -0.14210854715E-13  0.51981534017E+03  0.69335566254E+03  0.45883993604E+03 0.  0.
      99925    2    3    3    0    0  0.52647797271E+01 -0.10352334506E+03  0.24486817053E+03  0.37399966202E+03  0.26300289993E+03 0.  0.
         25    1    3    3    0    0 -0.52647797271E+01  0.10352334506E+03  0.27494716964E+03  0.31935600052E+03  0.12509000000E+03 0.  0.
         25    1    4    4    0    0  0.79097829354E+01 -0.92910901560E+02  0.15199305423E+03  0.21781734763E+03  0.12509000000E+03 0.  0.
         25    1    4    4    0    0 -0.26450032083E+01 -0.10612443503E+02  0.92875116303E+02  0.15618231439E+03  0.12509000000E+03 0.  0.
<mgrwt>
<rscale>  2 0.45883994E+03</rscale>
<asrwt>0</asrwt>
<pdfrwt beam="1">  1       21 0.89203748E-01 0.45883994E+03</pdfrwt>
<pdfrwt beam="2">  1       21 0.12760318E-01 0.45883994E+03</pdfrwt>
<totfact> 0.51685223E+04</totfact>
</mgrwt>
</event>
<event>
 7    0  0.4748297E-002  0.4619491E+03  0.7546771E-02  0.1024217E+00
         21   -1    0    0  502  501  0.00000000000E+00  0.00000000000E+00  0.76488609884E+02  0.76488609884E+02  0.00000000000E+00 0.  1.
         21   -1    0    0  501  502 -0.00000000000E+00 -0.00000000000E+00 -0.69747949182E+03  0.69747949182E+03  0.00000000000E+00 0.  1.
      99926    2    1    2    0    0  0.00000000000E+00  0.00000000000E+00 -0.62099088193E+03  0.77396810170E+03  0.46194907404E+03 0.  0.
      99925    2    3    3    0    0  0.17192422205E+02 -0.75779467211E+01 -0.58618948366E+03  0.64277492322E+03  0.26303704399E+03 0.  0.
         25    1    4    4    0    0  0.95320159533E+01 -0.44344257013E+02 -0.30154289920E+03  0.32959505551E+03  0.12509000000E+03 0.  0.
         25    1    4    4    0    0  0.76604062521E+01  0.36766310292E+02 -0.28464658446E+03  0.31317986771E+03  0.12509000000E+03 0.  0.
         25    1    3    3    0    0 -0.17192422205E+02  0.75779467211E+01 -0.34801398274E+02  0.13119317848E+03  0.12509000000E+03 0.  0.
<mgrwt>
<rscale>  2 0.46194907E+03</rscale>
<asrwt>0</asrwt>
<pdfrwt beam="1">  1       21 0.11248325E-01 0.46194907E+03</pdfrwt>
<pdfrwt beam="2">  1       21 0.10257051E+00 0.46194907E+03</pdfrwt>
<totfact> 0.46462946E+04</totfact>
</mgrwt>
</event>
<event>
 6    0  0.4748297E-002  0.4511152E+03  0.7546771E-02  0.1027390E+00
         21   -1    0    0  502  501  0.00000000000E+00  0.00000000000E+00  0.11005583341E+04  0.11005583341E+04  0.00000000000E+00 0. -1.
         21   -1    0    0  501  502 -0.00000000000E+00 -0.00000000000E+00 -0.46227662466E+02  0.46227662466E+02  0.00000000000E+00 0. -1.
      99926    2    1    2    0    0  0.35527136788E-14 -0.17763568394E-14  0.10543306716E+04  0.11467859966E+04  0.45111523668E+03 0.  0.
         25    1    3    3    0    0 -0.34238261739E+01  0.15814066202E+02  0.34900909708E+03  0.37110196068E+03  0.12509000000E+03 0.  0.
         25    1    3    3    0    0  0.30469949048E+02 -0.54593039403E+01  0.11878714771E+03  0.17526013910E+03  0.12509000000E+03 0.  0.
         25    1    3    3    0    0 -0.27046122874E+02 -0.10354762262E+02  0.58653442684E+03  0.60042389679E+03  0.12509000000E+03 0.  0.
<mgrwt>
<rscale>  2 0.45111524E+03</rscale>
<asrwt>0</asrwt>
<pdfrwt beam="1">  1       21 0.16184680E+00 0.45111524E+03</pdfrwt>
<pdfrwt beam="2">  1       21 0.67981864E-02 0.45111524E+03</pdfrwt>
<totfact> 0.34935700E+04</totfact>
</mgrwt>
</event>
<event>
 7    0  0.4748297E-002  0.4042458E+03  0.7546771E-02  0.1042319E+00
         21   -1    0    0  502  501  0.00000000000E+00  0.00000000000E+00  0.62188480530E+03  0.62188480530E+03  0.00000000000E+00 0.  1.
         21   -1    0    0  501  502 -0.00000000000E+00 -0.00000000000E+00 -0.65693293607E+02  0.65693293607E+02  0.00000000000E+00 0.  1.
      99926    2    1    2    0    0 -0.35527136788E-14 -0.17763568394E-14  0.55619151169E+03  0.68757809891E+03  0.40424577229E+03 0.  0.
      99925    2    3    3    0    0  0.73424990704E+01  0.14163750322E+02  0.45537764327E+03  0.52613006305E+03  0.26303901068E+03 0.  0.
         25    1    4    4    0    0  0.36082639130E+02  0.55854045570E+00  0.27576857235E+03  0.30495586961E+03  0.12509000000E+03 0.  0.
         25    1    4    4    0    0 -0.28740140060E+02  0.13605209866E+02  0.17960907092E+03  0.22117419344E+03  0.12509000000E+03 0.  0.
         25    1    3    3    0    0 -0.73424990704E+01 -0.14163750322E+02  0.10081386842E+03  0.16144803586E+03  0.12509000000E+03 0.  0.
<mgrwt>
<rscale>  2 0.40424577E+03</rscale>
<asrwt>0</asrwt>
<pdfrwt beam="1">  1       21 0.91453644E-01 0.40424577E+03</pdfrwt>
<pdfrwt beam="2">  1       21 0.96607788E-02 0.40424577E+03</pdfrwt>
<totfact> 0.81630380E+04</totfact>
</mgrwt>
</event>
<event>
 7    0  0.4748297E-002  0.4630879E+03  0.7546771E-02  0.1023889E+00
         21   -1    0    0  502  501  0.00000000000E+00  0.00000000000E+00  0.13303092791E+03  0.13303092791E+03  0.00000000000E+00 0.  1.
         21   -1    0    0  501  502 -0.00000000000E+00 -0.00000000000E+00 -0.40300851106E+03  0.40300851106E+03  0.00000000000E+00 0.  1.
      99926    2    1    2    0    0  0.14210854715E-13  0.71054273576E-14 -0.26997758315E+03  0.53603943898E+03  0.46308788014E+03 0.  0.
      99925    2    3    3    0    0 -0.82698097646E+02 -0.45240132413E+02 -0.81558782049E+02  0.29101944460E+03  0.26297307328E+03 0.  0.
         25    1    4    4    0    0 -0.81744660312E+02 -0.15761144458E+02 -0.53265195804E+02  0.15942174365E+03  0.12509000000E+03 0.  0.
         25    1    3    3    0    0  0.82698097646E+02  0.45240132413E+02 -0.18841880110E+03  0.24501999437E+03  0.12509000000E+03 0.  0.
         25    1    4    4    0    0 -0.95343733418E+00 -0.29478987955E+02 -0.28293586245E+02  0.13159770095E+03  0.12509000000E+03 0.  0.
<mgrwt>
<rscale>  2 0.46308788E+03</rscale>
<asrwt>0</asrwt>
<pdfrwt beam="1">  1       21 0.19563371E-01 0.46308788E+03</pdfrwt>
<pdfrwt beam="2">  1       21 0.59265959E-01 0.46308788E+03</pdfrwt>
<totfact> 0.58930361E+04</totfact>
</mgrwt>
</event>
<event>
 7    0  0.4748297E-002  0.4523157E+03  0.7546771E-02  0.1027034E+00
         21   -1    0    0  502  501  0.00000000000E+00  0.00000000000E+00  0.16039357607E+04  0.16039357607E+04  0.00000000000E+00 0. -1.
         21   -1    0    0  501  502 -0.00000000000E+00 -0.00000000000E+00 -0.31888664260E+02  0.31888664260E+02  0.00000000000E+00 0. -1.
      99926    2    1    2    0    0  0.00000000000E+00 -0.71054273576E-14  0.15720470964E+04  0.16358244250E+04  0.45231568165E+03 0.  0.
      99925    2    3    3    0    0  0.68290660226E+02 -0.60266266596E+02  0.12197484659E+04  0.12510420574E+04  0.26272470818E+03 0.  0.
         25    1    4    4    0    0  0.15054407679E+02 -0.51418085000E+02  0.73608383318E+03  0.74855685971E+03  0.12509000000E+03 0.  0.
         25    1    4    4    0    0  0.53236252547E+02 -0.88481815963E+01  0.48366463270E+03  0.50248519772E+03  0.12509000000E+03 0.  0.
         25    1    3    3    0    0 -0.68290660226E+02  0.60266266596E+02  0.35229863055E+03  0.38478236752E+03  0.12509000000E+03 0.  0.
<mgrwt>
<rscale>  2 0.45231568E+03</rscale>
<asrwt>0</asrwt>
<pdfrwt beam="1">  1       21 0.23587285E+00 0.45231568E+03</pdfrwt>
<pdfrwt beam="2">  1       21 0.46895105E-02 0.45231568E+03</pdfrwt>
<totfact> 0.21067907E+04</totfact>
</mgrwt>
</event>
<event>
 7    0  0.4748297E-002  0.4529660E+03  0.7546771E-02  0.1026841E+00
         21   -1    0    0  502  501  0.00000000000E+00  0.00000000000E+00  0.65100449318E+02  0.65100449318E+02  0.00000000000E+00 0. -1.
         21   -1    0    0  501  502 -0.00000000000E+00 -0.00000000000E+00 -0.78792924287E+03  0.78792924287E+03  0.00000000000E+00 0. -1.
      99926    2    1    2    0    0 -0.35527136788E-14  0.00000000000E+00 -0.72282879355E+03  0.85302969218E+03  0.45296599317E+03 0.  0.
      99925    2    3    3    0    0 -0.17347668219E+02  0.77717202150E+02 -0.60197394627E+03  0.66173330614E+03  0.26301602873E+03 0.  0.
         25    1    4    4    0    0  0.28553126030E+02  0.30186696672E+02 -0.32526774429E+03  0.35096029866E+03  0.12509000000E+03 0.  0.
         25    1    3    3    0    0  0.17347668219E+02 -0.77717202150E+02 -0.12085484728E+03  0.19129638605E+03  0.12509000000E+03 0.  0.
         25    1    4    4    0    0 -0.45900794248E+02  0.47530505478E+02 -0.27670620197E+03  0.31077300747E+03  0.12509000000E+03 0.  0.
<mgrwt>
<rscale>  2 0.45296599E+03</rscale>
<asrwt>0</asrwt>
<pdfrwt beam="1">  1       21 0.95735957E-02 0.45296599E+03</pdfrwt>
<pdfrwt beam="2">  1       21 0.11587195E+00 0.45296599E+03</pdfrwt>
<totfact> 0.46034250E+04</totfact>
</mgrwt>
</event>
<event>
 7    0  0.4748297E-002  0.4510504E+03  0.7546771E-02  0.1027409E+00
         21   -1    0    0  502  501  0.00000000000E+00  0.00000000000E+00  0.47344619215E+02  0.47344619215E+02  0.00000000000E+00 0. -1.
         21   -1    0    0  501  502 -0.00000000000E+00 -0.00000000000E+00 -0.10742849123E+04  0.10742849123E+04  0.00000000000E+00 0. -1.
      99926    2    1    2    0    0  0.71054273576E-14 -0.14210854715E-13 -0.10269402931E+04  0.11216295315E+04  0.45105037458E+03 0.  0.
      99925    2    3    3    0    0  0.53933223863E+02 -0.90261564315E+02 -0.72369737433E+03  0.77715933179E+03  0.26302622443E+03 0.  0.
         25    1    4    4    0    0  0.46530977049E+02 -0.53569611502E+02 -0.28180531252E+03  0.31638043139E+03  0.12509000000E+03 0.  0.
         25    1    4    4    0    0  0.74022468142E+01 -0.36691952812E+02 -0.44189206181E+03  0.46077890040E+03  0.12509000000E+03 0.  0.
         25    1    3    3    0    0 -0.53933223863E+02  0.90261564315E+02 -0.30324291878E+03  0.34447019976E+03  0.12509000000E+03 0.  0.
<mgrwt>
<rscale>  2 0.45105037E+03</rscale>
<asrwt>0</asrwt>
<pdfrwt beam="1">  1       21 0.69624446E-02 0.45105037E+03</pdfrwt>
<pdfrwt beam="2">  1       21 0.15798306E+00 0.45105037E+03</pdfrwt>
<totfact> 0.35834574E+04</totfact>
</mgrwt>
</event>
<event>
 7    0  0.4748297E-002  0.4526424E+03  0.7546771E-02  0.1026937E+00
         21   -1    0    0  502  501  0.00000000000E+00  0.00000000000E+00  0.10600257519E+03  0.10600257519E+03  0.00000000000E+00 0. -1.
         21   -1    0    0  501  502 -0.00000000000E+00 -0.00000000000E+00 -0.48320797471E+03  0.48320797471E+03  0.00000000000E+00 0. -1.
      99926    2    1    2    0    0  0.00000000000E+00  0.00000000000E+00 -0.37720539952E+03  0.58921054990E+03  0.45264241813E+03 0.  0.
      99925    2    3    3    0    0 -0.46601979921E+02 -0.36304929970E+02 -0.11553079317E+03  0.29321916459E+03  0.26294547313E+03 0.  0.
         25    1    4    4    0    0 -0.25174552325E+02  0.22493411890E+02 -0.58731510377E+02  0.14225543952E+03  0.12509000000E+03 0.  0.
         25    1    4    4    0    0 -0.21427427595E+02 -0.58798341860E+02 -0.56799282793E+02  0.15096372506E+03  0.12509000000E+03 0.  0.
         25    1    3    3    0    0  0.46601979921E+02  0.36304929970E+02 -0.26167460635E+03  0.29599138532E+03  0.12509000000E+03 0.  0.
<mgrwt>
<rscale>  2 0.45264242E+03</rscale>
<asrwt>0</asrwt>
<pdfrwt beam="1">  1       21 0.15588614E-01 0.45264242E+03</pdfrwt>
<pdfrwt beam="2">  1       21 0.71059998E-01 0.45264242E+03</pdfrwt>
<totfact> 0.60466188E+04</totfact>
</mgrwt>
</event>
<event>
 7    0  0.4748297E-002  0.4580921E+03  0.7546771E-02  0.1025336E+00
         21   -1    0    0  502  501  0.00000000000E+00  0.00000000000E+00  0.28894825110E+03  0.28894825110E+03  0.00000000000E+00 0.  1.
         21   -1    0    0  501  502 -0.00000000000E+00 -0.00000000000E+00 -0.18156221139E+03  0.18156221139E+03  0.00000000000E+00 0.  1.
      99926    2    1    2    0    0  0.71054273576E-14  0.00000000000E+00  0.10738603971E+03  0.47051046249E+03  0.45809205821E+03 0.  0.
      99925    2    3    3    0    0 -0.59465774804E+02 -0.96621917108E+02  0.42743500344E+02  0.28968419439E+03  0.26309304898E+03 0.  0.
         25    1    4    4    0    0 -0.98911625207E+01 -0.78608567996E+02  0.42056780334E+02  0.15392668037E+03  0.12509000000E+03 0.  0.
         25    1    4    4    0    0 -0.49574612283E+02 -0.18013349111E+02  0.68672001065E+00  0.13575751402E+03  0.12509000000E+03 0.  0.
         25    1    3    3    0    0  0.59465774804E+02  0.96621917108E+02  0.64642539368E+02  0.18082626810E+03  0.12509000000E+03 0.  0.
<mgrwt>
<rscale>  2 0.45809206E+03</rscale>
<asrwt>0</asrwt>
<pdfrwt beam="1">  1       21 0.42492390E-01 0.45809206E+03</pdfrwt>
<pdfrwt beam="2">  1       21 0.26700325E-01 0.45809206E+03</pdfrwt>
<totfact> 0.65769859E+04</totfact>
</mgrwt>
</event>
<event>
 7    0  0.4748297E-002  0.4551578E+03  0.7546771E-02  0.1026195E+00
         21   -1    0    0  502  501  0.00000000000E+00  0.00000000000E+00  0.10911239031E+03  0.10911239031E+03  0.00000000000E+00 0.  1.
         21   -1    0    0  501  502 -0.00000000000E+00 -0.00000000000E+00 -0.47466796684E+03  0.47466796684E+03  0.00000000000E+00 0.  1.
      99926    2    1    2    0    0  0.00000000000E+00  0.00000000000E+00 -0.36555557653E+03  0.58378035715E+03  0.45515780325E+03 0.  0.
      99925    2    3    3    0    0  0.46049066790E+02  0.57366248501E+02 -0.34049018413E+03  0.43651466184E+03  0.26305908364E+03 0.  0.
         25    1    3    3    0    0 -0.46049066790E+02 -0.57366248501E+02 -0.25065392399E+02  0.14726569531E+03  0.12509000000E+03 0.  0.
         25    1    4    4    0    0  0.37385678886E+01  0.22019232397E+02 -0.22112372669E+03  0.25503339799E+03  0.12509000000E+03 0.  0.
         25    1    4    4    0    0  0.42310498902E+02  0.35347016104E+02 -0.11936645744E+03  0.18148126385E+03  0.12509000000E+03 0.  0.
<mgrwt>
<rscale>  2 0.45515780E+03</rscale>
<asrwt>0</asrwt>
<pdfrwt beam="1">  1       21 0.16045940E-01 0.45515780E+03</pdfrwt>
<pdfrwt beam="2">  1       21 0.69804112E-01 0.45515780E+03</pdfrwt>
<totfact> 0.59613504E+04</totfact>
</mgrwt>
</event>
<event>
 7    0  0.4748297E-002  0.4506989E+03  0.7546771E-02  0.1027514E+00
         21   -1    0    0  502  501  0.00000000000E+00  0.00000000000E+00  0.14980336998E+03  0.14980336998E+03  0.00000000000E+00 0.  1.
         21   -1    0    0  501  502 -0.00000000000E+00 -0.00000000000E+00 -0.33899359048E+03  0.33899359048E+03  0.00000000000E+00 0.  1.
      99926    2    1    2    0    0  0.71054273576E-14  0.00000000000E+00 -0.18919022049E+03  0.48879696046E+03  0.45069893391E+03 0.  0.
      99925    2    3    3    0    0 -0.51089195136E+02  0.67144457594E+01 -0.15247530296E+02  0.26843644400E+03  0.26300275216E+03 0.  0.
         25    1    4    4    0    0 -0.27191437611E+02  0.77591276488E+01  0.32706144435E+02  0.13235096647E+03  0.12509000000E+03 0.  0.
         25    1    3    3    0    0  0.51089195136E+02 -0.67144457594E+01 -0.17394269020E+03  0.22036051646E+03  0.12509000000E+03 0.  0.
         25    1    4    4    0    0 -0.23897757526E+02 -0.10446818894E+01 -0.47953674732E+02  0.13608547753E+03  0.12509000000E+03 0.  0.
<mgrwt>
<rscale>  2 0.45069893E+03</rscale>
<asrwt>0</asrwt>
<pdfrwt beam="1">  1       21 0.22029907E-01 0.45069893E+03</pdfrwt>
<pdfrwt beam="2">  1       21 0.49851998E-01 0.45069893E+03</pdfrwt>
<totfact> 0.68369929E+04</totfact>
</mgrwt>
</event>
<event>
 7    0  0.4748297E-002  0.4281237E+03  0.7546771E-02  0.1034454E+00
         21   -1    0    0  502  501  0.00000000000E+00  0.00000000000E+00  0.33548476519E+03  0.33548476519E+03  0.00000000000E+00 0. -1.
         21   -1    0    0  501  502 -0.00000000000E+00 -0.00000000000E+00 -0.13658584123E+03  0.13658584123E+03  0.00000000000E+00 0. -1.
      99926    2    1    2    0    0 -0.88817841970E-15  0.00000000000E+00  0.19889892396E+03  0.47207060641E+03  0.42812366845E+03 0.  0.
      99925    2    3    3    0    0 -0.40325358819E+01  0.67581177186E+02  0.18628485275E+03  0.32927669986E+03  0.26294033896E+03 0.  0.
         25    1    4    4    0    0  0.37072280929E+02  0.24605544379E+02  0.98124856543E+02  0.16509325364E+03  0.12509000000E+03 0.  0.
         25    1    4    4    0    0 -0.41104816811E+02  0.42975632807E+02  0.88159996212E+02  0.16418344622E+03  0.12509000000E+03 0.  0.
         25    1    3    3    0    0  0.40325358819E+01 -0.67581177186E+02  0.12614071208E+02  0.14279390655E+03  0.12509000000E+03 0.  0.
<mgrwt>
<rscale>  2 0.42812367E+03</rscale>
<asrwt>0</asrwt>
<pdfrwt beam="1">  1       21 0.49335995E-01 0.42812367E+03</pdfrwt>
<pdfrwt beam="2">  1       21 0.20086153E-01 0.42812367E+03</pdfrwt>
<totfact> 0.83779353E+04</totfact>
</mgrwt>
</event>
<event>
 7    0  0.4748297E-002  0.4351320E+03  0.7546771E-02  0.1032251E+00
         21   -1    0    0  502  501  0.00000000000E+00  0.00000000000E+00  0.13019324052E+03  0.13019324052E+03  0.00000000000E+00 0. -1.
         21   -1    0    0  501  502 -0.00000000000E+00 -0.00000000000E+00 -0.36357475117E+03  0.36357475117E+03  0.00000000000E+00 0. -1.
      99926    2    1    2    0    0 -0.71054273576E-14  0.00000000000E+00 -0.23338151065E+03  0.49376799168E+03  0.43513204904E+03 0.  0.
      99925    2    3    3    0    0 -0.58561288876E+02  0.72020726187E+02 -0.13882438991E+03  0.31154569135E+03  0.26300588779E+03 0.  0.
         25    1    4    4    0    0 -0.58638450020E+02  0.33797094920E+02 -0.40404464104E+02  0.14785378002E+03  0.12509000000E+03 0.  0.
         25    1    3    3    0    0  0.58561288876E+02 -0.72020726187E+02 -0.94557120738E+02  0.18222230033E+03  0.12509000000E+03 0.  0.
         25    1    4    4    0    0  0.77161143797E-01  0.38223631266E+02 -0.98419925809E+02  0.16369191134E+03  0.12509000000E+03 0.  0.
<mgrwt>
<rscale>  2 0.43513205E+03</rscale>
<asrwt>0</asrwt>
<pdfrwt beam="1">  1       21 0.19146065E-01 0.43513205E+03</pdfrwt>
<pdfrwt beam="2">  1       21 0.53466875E-01 0.43513205E+03</pdfrwt>
<totfact> 0.77182519E+04</totfact>
</mgrwt>
</event>
<event>
 7    0  0.4748297E-002  0.4538898E+03  0.7546771E-02  0.1026568E+00
         21   -1    0    0  502  501  0.00000000000E+00  0.00000000000E+00  0.97354737803E+03  0.97354737803E+03  0.00000000000E+00 0. -1.
         21   -1    0    0  501  502 -0.00000000000E+00 -0.00000000000E+00 -0.52903415228E+02  0.52903415228E+02  0.00000000000E+00 0. -1.
      99926    2    1    2    0    0  0.14210854715E-13 -0.14210854715E-13  0.92064396280E+03  0.10264507933E+04  0.45388977157E+03 0.  0.
      99925    2    3    3    0    0  0.74110922479E+02 -0.83561966060E+02  0.55935947236E+03  0.62814309545E+03  0.26306975888E+03 0.  0.
         25    1    4    4    0    0 -0.40089783832E+01 -0.28407865070E+02  0.24929662416E+03  0.28039150063E+03  0.12509000000E+03 0.  0.
         25    1    3    3    0    0 -0.74110922479E+02  0.83561966060E+02  0.36128449044E+03  0.39830769781E+03  0.12509000000E+03 0.  0.
         25    1    4    4    0    0  0.78119900862E+02 -0.55154100990E+02  0.31006284820E+03  0.34775159482E+03  0.12509000000E+03 0.  0.
<mgrwt>
<rscale>  2 0.45388977E+03</rscale>
<asrwt>0</asrwt>
<pdfrwt beam="1">  1       21 0.14316872E+00 0.45388977E+03</pdfrwt>
<pdfrwt beam="2">  1       21 0.77799146E-02 0.45388977E+03</pdfrwt>
<totfact> 0.38486036E+04</totfact>
</mgrwt>
</event>
<event>
 7    0  0.4748297E-002  0.4560701E+03  0.7546771E-02  0.1025927E+00
         21   -1    0    0  502  501  0.00000000000E+00  0.00000000000E+00  0.17595805670E+03  0.17595805670E+03  0.00000000000E+00 0. -1.
         21   -1    0    0  501  502 -0.00000000000E+00 -0.00000000000E+00 -0.29552490991E+03  0.29552490991E+03  0.00000000000E+00 0. -1.
      99926    2    1    2    0    0  0.00000000000E+00 -0.71054273576E-14 -0.11956685321E+03  0.47148296660E+03  0.45607012116E+03 0.  0.
      99925    2    3    3    0    0  0.65675026353E+02 -0.47396754777E+02  0.79809024030E+01  0.27533098596E+03  0.26302812697E+03 0.  0.
         25    1    4    4    0    0  0.56391689273E+02 -0.57065198600E+02 -0.61489145363E+01  0.14873391261E+03  0.12509000000E+03 0.  0.
         25    1    3    3    0    0 -0.65675026353E+02  0.47396754777E+02 -0.12754775561E+03  0.19615198065E+03  0.12509000000E+03 0.  0.
         25    1    4    4    0    0  0.92833370798E+01  0.96684438228E+01  0.14129816939E+02  0.12659707335E+03  0.12509000000E+03 0.  0.
<mgrwt>
<rscale>  2 0.45607012E+03</rscale>
<asrwt>0</asrwt>
<pdfrwt beam="1">  1       21 0.25876185E-01 0.45607012E+03</pdfrwt>
<pdfrwt beam="2">  1       21 0.43459545E-01 0.45607012E+03</pdfrwt>
<totfact> 0.66757036E+04</totfact>
</mgrwt>
</event>
<event>
 7    0  0.4748297E-002  0.4583899E+03  0.7546771E-02  0.1025249E+00
         21   -1    0    0  502  501  0.00000000000E+00  0.00000000000E+00  0.67757365779E+03  0.67757365779E+03  0.00000000000E+00 0.  1.
         21   -1    0    0  501  502 -0.00000000000E+00 -0.00000000000E+00 -0.77527099848E+02  0.77527099848E+02  0.00000000000E+00 0.  1.
      99926    2    1    2    0    0  0.00000000000E+00  0.00000000000E+00  0.60004655794E+03  0.75510075764E+03  0.45838988044E+03 0.  0.
      99925    2    3    3    0    0 -0.77468351423E+02  0.70039947533E+02  0.29255837622E+03  0.40710157701E+03  0.26312421170E+03 0.  0.
         25    1    3    3    0    0  0.77468351423E+02 -0.70039947533E+02  0.30748818172E+03  0.34799918063E+03  0.12509000000E+03 0.  0.
         25    1    4    4    0    0 -0.27696142144E+02  0.17739585154E+02  0.87012208359E+02  0.15588586105E+03  0.12509000000E+03 0.  0.
         25    1    4    4    0    0 -0.49772209279E+02  0.52300362380E+02  0.20554616786E+03  0.25121571596E+03  0.12509000000E+03 0.  0.
<mgrwt>
<rscale>  2 0.45838988E+03</rscale>
<asrwt>0</asrwt>
<pdfrwt beam="1">  1       21 0.99643182E-01 0.45838988E+03</pdfrwt>
<pdfrwt beam="2">  1       21 0.11401044E-01 0.45838988E+03</pdfrwt>
<totfact> 0.48701000E+04</totfact>
</mgrwt>
</event>
<event>
 7    0  0.4748297E-002  0.4548029E+03  0.7546771E-02  0.1026299E+00
         21   -1    0    0  502  501  0.00000000000E+00  0.00000000000E+00  0.18565295135E+03  0.18565295135E+03  0.00000000000E+00 0. -1.
         21   -1    0    0  501  502 -0.00000000000E+00 -0.00000000000E+00 -0.27853804867E+03  0.27853804867E+03  0.00000000000E+00 0. -1.
      99926    2    1    2    0    0  0.00000000000E+00 -0.17763568394E-14 -0.92885097315E+02  0.46419100002E+03  0.45480286191E+03 0.  0.
      99925    2    3    3    0    0 -0.10472827357E+03 -0.11227855029E+02 -0.16528384188E+02  0.28371404373E+03  0.26291898964E+03 0.  0.
         25    1    4    4    0    0 -0.10705140410E+02 -0.15856840586E+02 -0.30646392861E+01  0.12658175042E+03  0.12509000000E+03 0.  0.
         25    1    4    4    0    0 -0.94023133157E+02  0.46289855563E+01 -0.13463744902E+02  0.15713229332E+03  0.12509000000E+03 0.  0.
         25    1    3    3    0    0  0.10472827357E+03  0.11227855029E+02 -0.76356713127E+02  0.18047695629E+03  0.12509000000E+03 0.  0.
<mgrwt>
<rscale>  2 0.45480286E+03</rscale>
<asrwt>0</asrwt>
<pdfrwt beam="1">  1       21 0.27301905E-01 0.45480286E+03</pdfrwt>
<pdfrwt beam="2">  1       21 0.40961477E-01 0.45480286E+03</pdfrwt>
<totfact> 0.67976823E+04</totfact>
</mgrwt>
</event>
<event>
 7    0  0.4748297E-002  0.4522984E+03  0.7546771E-02  0.1027039E+00
         21   -1    0    0  502  501  0.00000000000E+00  0.00000000000E+00  0.13790987763E+03  0.13790987763E+03  0.00000000000E+00 0.  1.
         21   -1    0    0  501  502 -0.00000000000E+00 -0.00000000000E+00 -0.37084696090E+03  0.37084696090E+03  0.00000000000E+00 0.  1.
      99926    2    1    2    0    0  0.00000000000E+00 -0.35527136788E-14 -0.23293708327E+03  0.50875683853E+03  0.45229839265E+03 0.  0.
      99925    2    3    3    0    0 -0.10646033193E+03  0.27058909692E+02 -0.13429553342E+03  0.31525322016E+03  0.26321724042E+03 0.  0.
         25    1    3    3    0    0  0.10646033193E+03 -0.27058909692E+02 -0.98641549844E+02  0.19350361838E+03  0.12509000000E+03 0.  0.
         25    1    4    4    0    0 -0.88591768800E+02  0.13628239699E+02 -0.10038105364E+03  0.18373375968E+03  0.12509000000E+03 0.  0.
         25    1    4    4    0    0 -0.17868563132E+02  0.13430669993E+02 -0.33914479776E+02  0.13151946047E+03  0.12509000000E+03 0.  0.
<mgrwt>
<rscale>  2 0.45229839E+03</rscale>
<asrwt>0</asrwt>
<pdfrwt beam="1">  1       21 0.20280865E-01 0.45229839E+03</pdfrwt>
<pdfrwt beam="2">  1       21 0.54536317E-01 0.45229839E+03</pdfrwt>
<totfact> 0.66064886E+04</totfact>
</mgrwt>
</event>
<event>
 7    0  0.4748297E-002  0.4590923E+03  0.7546771E-02  0.1025045E+00
         21   -1    0    0  502  501  0.00000000000E+00  0.00000000000E+00  0.59721116495E+03  0.59721116495E+03  0.00000000000E+00 0. -1.
         21   -1    0    0  501  502 -0.00000000000E+00 -0.00000000000E+00 -0.88229147961E+02  0.88229147961E+02  0.00000000000E+00 0. -1.
      99926    2    1    2    0    0  0.14210854715E-13  0.00000000000E+00  0.50898201699E+03  0.68544031291E+03  0.45909228805E+03 0.  0.
      99925    2    3    3    0    0 -0.83910955525E+02 -0.79871794126E+02  0.30263130826E+03  0.41776761156E+03  0.26367312449E+03 0.  0.
         25    1    4    4    0    0 -0.14490221253E+02 -0.42897497530E+01  0.12479324566E+03  0.17733930960E+03  0.12509000000E+03 0.  0.
         25    1    3    3    0    0  0.83910955525E+02  0.79871794126E+02  0.20635070873E+03  0.26767270135E+03  0.12509000000E+03 0.  0.
         25    1    4    4    0    0 -0.69420734271E+02 -0.75582044373E+02  0.17783806260E+03  0.24042830197E+03  0.12509000000E+03 0.  0.
<mgrwt>
<rscale>  2 0.45909229E+03</rscale>
<asrwt>0</asrwt>
<pdfrwt beam="1">  1       21 0.87825169E-01 0.45909229E+03</pdfrwt>
<pdfrwt beam="2">  1       21 0.12974875E-01 0.45909229E+03</pdfrwt>
<totfact> 0.52004615E+04</totfact>
</mgrwt>
</event>
<event>
 7    0  0.4748297E-002  0.4555390E+03  0.7546771E-02  0.1026083E+00
         21   -1    0    0  502  501  0.00000000000E+00  0.00000000000E+00  0.15112913663E+03  0.15112913663E+03  0.00000000000E+00 0. -1.
         21   -1    0    0  501  502 -0.00000000000E+00 -0.00000000000E+00 -0.34327562621E+03  0.34327562621E+03  0.00000000000E+00 0. -1.
      99926    2    1    2    0    0 -0.35527136788E-14  0.00000000000E+00 -0.19214648958E+03  0.49440476284E+03  0.45553901706E+03 0.  0.
      99925    2    3    3    0    0 -0.17165467202E+02 -0.88856884813E+02 -0.46176275202E+02  0.28193120960E+03  0.26298813530E+03 0.  0.
         25    1    4    4    0    0  0.19094477630E+02 -0.19206479005E+02 -0.40058573865E+02  0.13411072050E+03  0.12509000000E+03 0.  0.
         25    1    3    3    0    0  0.17165467202E+02  0.88856884813E+02 -0.14597021438E+03  0.21247355325E+03  0.12509000000E+03 0.  0.
         25    1    4    4    0    0 -0.36259944831E+02 -0.69650405808E+02 -0.61177013370E+01  0.14782048910E+03  0.12509000000E+03 0.  0.
<mgrwt>
<rscale>  2 0.45553902E+03</rscale>
<asrwt>0</asrwt>
<pdfrwt beam="1">  1       21 0.22224873E-01 0.45553902E+03</pdfrwt>
<pdfrwt beam="2">  1       21 0.50481709E-01 0.45553902E+03</pdfrwt>
<totfact> 0.65385319E+04</totfact>
</mgrwt>
</event>
<event>
 7    0  0.4748297E-002  0.4446219E+03  0.7546771E-02  0.1029338E+00
         21   -1    0    0  502  501  0.00000000000E+00  0.00000000000E+00  0.14495406187E+04  0.14495406187E+04  0.00000000000E+00 0. -1.
         21   -1    0    0  501  502 -0.00000000000E+00 -0.00000000000E+00 -0.34095042918E+02  0.34095042918E+02  0.00000000000E+00 0. -1.
      99926    2    1    2    0    0  0.00000000000E+00  0.71054273576E-14  0.14154455757E+04  0.14836356616E+04  0.44462186003E+03 0.  0.
      99925    2    3    3    0    0 -0.86587691549E+02  0.54122916064E+02  0.94817407717E+03  0.98925030596E+03  0.26297408400E+03 0.  0.
         25    1    4    4    0    0 -0.51692165275E+02  0.44563215805E+02  0.62045928438E+03  0.63661227747E+03  0.12509000000E+03 0.  0.
         25    1    3    3    0    0  0.86587691549E+02 -0.54122916064E+02  0.46727149857E+03  0.49438535562E+03  0.12509000000E+03 0.  0.
         25    1    4    4    0    0 -0.34895526274E+02  0.95597002595E+01  0.32771479279E+03  0.35263802849E+03  0.12509000000E+03 0.  0.
<mgrwt>
<rscale>  2 0.44462186E+03</rscale>
<asrwt>0</asrwt>
<pdfrwt beam="1">  1       21 0.21316770E+00 0.44462186E+03</pdfrwt>
<pdfrwt beam="2">  1       21 0.50139779E-02 0.44462186E+03</pdfrwt>
<totfact> 0.26235167E+04</totfact>
</mgrwt>
</event>
<event>
 7    0  0.4748297E-002  0.4462190E+03  0.7546771E-02  0.1028856E+00
         21   -1    0    0  502  501  0.00000000000E+00  0.00000000000E+00  0.27830799966E+03  0.27830799966E+03  0.00000000000E+00 0.  1.
         21   -1    0    0  501  502 -0.00000000000E+00 -0.00000000000E+00 -0.17885885940E+03  0.17885885940E+03  0.00000000000E+00 0.  1.
      99926    2    1    2    0    0 -0.71054273576E-14 -0.14210854715E-13  0.99449140254E+02  0.45716685906E+03  0.44621901072E+03 0.  0.
      99925    2    3    3    0    0 -0.47791271636E+02 -0.78050897123E+02  0.11527798396E+03  0.30136567621E+03  0.26297587156E+03 0.  0.
         25    1    4    4    0    0 -0.38570373371E+02 -0.79146800268E+02  0.60692071218E+02  0.16456890746E+03  0.12509000000E+03 0.  0.
         25    1    4    4    0    0 -0.92208982644E+01  0.10959031449E+01  0.54585912745E+02  0.13679676874E+03  0.12509000000E+03 0.  0.
         25    1    3    3    0    0  0.47791271636E+02  0.78050897123E+02 -0.15828843709E+02  0.15580118286E+03  0.12509000000E+03 0.  0.
<mgrwt>
<rscale>  2 0.44621901E+03</rscale>
<asrwt>0</asrwt>
<pdfrwt beam="1">  1       21 0.40927647E-01 0.44621901E+03</pdfrwt>
<pdfrwt beam="2">  1       21 0.26302773E-01 0.44621901E+03</pdfrwt>
<totfact> 0.73381947E+04</totfact>
</mgrwt>
</event>
<event>
 7    0  0.4748297E-002  0.4482615E+03  0.7546771E-02  0.1028242E+00
         21   -1    0    0  502  501  0.00000000000E+00  0.00000000000E+00  0.23463142981E+03  0.23463142981E+03  0.00000000000E+00 0. -1.
         21   -1    0    0  501  502 -0.00000000000E+00 -0.00000000000E+00 -0.21410002171E+03  0.21410002171E+03  0.00000000000E+00 0. -1.
      99926    2    1    2    0    0  0.00000000000E+00  0.00000000000E+00  0.20531408098E+02  0.44873145152E+03  0.44826150500E+03 0.  0.
      99925    2    3    3    0    0  0.47777001948E+02 -0.63294874048E+01 -0.82302231276E+02  0.27977888477E+03  0.26302065083E+03 0.  0.
         25    1    3    3    0    0 -0.47777001948E+02  0.63294874048E+01  0.10283363937E+03  0.16895256675E+03  0.12509000000E+03 0.  0.
         25    1    4    4    0    0  0.27127341201E+02 -0.45342416568E+01 -0.83652303150E+02  0.15297603705E+03  0.12509000000E+03 0.  0.
         25    1    4    4    0    0  0.20649660748E+02 -0.17952457480E+01  0.13500718745E+01  0.12680284772E+03  0.12509000000E+03 0.  0.
<mgrwt>
<rscale>  2 0.44826151E+03</rscale>
<asrwt>0</asrwt>
<pdfrwt beam="1">  1       21 0.34504622E-01 0.44826151E+03</pdfrwt>
<pdfrwt beam="2">  1       21 0.31485297E-01 0.44826151E+03</pdfrwt>
<totfact> 0.72846037E+04</totfact>
</mgrwt>
</event>
<event>
 7    0  0.4748297E-002  0.4487469E+03  0.7546771E-02  0.1028096E+00
         21   -1    0    0  502  501  0.00000000000E+00  0.00000000000E+00  0.88511456889E+02  0.88511456889E+02  0.00000000000E+00 0. -1.
         21   -1    0    0  501  502 -0.00000000000E+00 -0.00000000000E+00 -0.56877897275E+03  0.56877897275E+03  0.00000000000E+00 0. -1.
      99926    2    1    2    0    0  0.00000000000E+00  0.00000000000E+00 -0.48026751586E+03  0.65729042964E+03  0.44874694662E+03 0.  0.
      99925    2    3    3    0    0  0.70246716134E+02 -0.60458240576E+02 -0.38270259066E+03  0.47356176364E+03  0.26307731012E+03 0.  0.
         25    1    3    3    0    0 -0.70246716134E+02  0.60458240576E+02 -0.97564925198E+02  0.18372866600E+03  0.12509000000E+03 0.  0.
         25    1    4    4    0    0  0.61687288218E+02  0.55940585338E+00 -0.19333507730E+03  0.23839378071E+03  0.12509000000E+03 0.  0.
         25    1    4    4    0    0  0.85594279156E+01 -0.61017646429E+02 -0.18936751336E+03  0.23516798294E+03  0.12509000000E+03 0.  0.
<mgrwt>
<rscale>  2 0.44874695E+03</rscale>
<asrwt>0</asrwt>
<pdfrwt beam="1">  1       21 0.13016390E-01 0.44874695E+03</pdfrwt>
<pdfrwt beam="2">  1       21 0.83643971E-01 0.44874695E+03</pdfrwt>
<totfact> 0.58095456E+04</totfact>
</mgrwt>
</event>
<event>
 7    0  0.4748297E-002  0.4621013E+03  0.7546771E-02  0.1024174E+00
         21   -1    0    0  502  501  0.00000000000E+00  0.00000000000E+00  0.27016026408E+03  0.27016026408E+03  0.00000000000E+00 0.  1.
         21   -1    0    0  501  502 -0.00000000000E+00 -0.00000000000E+00 -0.19760274793E+03  0.19760274793E+03  0.00000000000E+00 0.  1.
      99926    2    1    2    0    0  0.00000000000E+00  0.00000000000E+00  0.72557516154E+02  0.46776301201E+03  0.46210133332E+03 0.  0.
      99925    2    3    3    0    0  0.10004245308E+03 -0.38081649596E+02  0.99630474639E+02  0.30091230738E+03  0.26298912678E+03 0.  0.
         25    1    4    4    0    0  0.57171545196E+02 -0.25500041339E+02  0.91196571996E+01  0.14017672394E+03  0.12509000000E+03 0.  0.
         25    1    4    4    0    0  0.42870907885E+02 -0.12581608257E+02  0.90510817440E+02  0.16073558344E+03  0.12509000000E+03 0.  0.
         25    1    3    3    0    0 -0.10004245308E+03  0.38081649596E+02 -0.27072958485E+02  0.16685070463E+03  0.12509000000E+03 0.  0.
<mgrwt>
<rscale>  2 0.46210133E+03</rscale>
<asrwt>0</asrwt>
<pdfrwt beam="1">  1       21 0.39729451E-01 0.46210133E+03</pdfrwt>
<pdfrwt beam="2">  1       21 0.29059227E-01 0.46210133E+03</pdfrwt>
<totfact> 0.63920192E+04</totfact>
</mgrwt>
</event>
<event>
 7    0  0.4748297E-002  0.4627205E+03  0.7546771E-02  0.1023995E+00
         21   -1    0    0  502  501  0.00000000000E+00  0.00000000000E+00  0.13514281191E+03  0.13514281191E+03  0.00000000000E+00 0.  1.
         21   -1    0    0  501  502 -0.00000000000E+00 -0.00000000000E+00 -0.39608154893E+03  0.39608154893E+03  0.00000000000E+00 0.  1.
      99926    2    1    2    0    0 -0.17763568394E-14  0.00000000000E+00 -0.26093873702E+03  0.53122436084E+03  0.46272053885E+03 0.  0.
      99925    2    3    3    0    0  0.77368266347E+01 -0.91969024526E+02 -0.74710282443E+02  0.28864096209E+03  0.26308519292E+03 0.  0.
         25    1    4    4    0    0  0.20615318393E+02 -0.68769982939E+02 -0.80920549800E+01  0.14445515346E+03  0.12509000000E+03 0.  0.
         25    1    4    4    0    0 -0.12878491759E+02 -0.23199041586E+02 -0.66618227463E+02  0.14418580863E+03  0.12509000000E+03 0.  0.
         25    1    3    3    0    0 -0.77368266347E+01  0.91969024526E+02 -0.18622845458E+03  0.24258339876E+03  0.12509000000E+03 0.  0.
<mgrwt>
<rscale>  2 0.46272054E+03</rscale>
<asrwt>0</asrwt>
<pdfrwt beam="1">  1       21 0.19873943E-01 0.46272054E+03</pdfrwt>
<pdfrwt beam="2">  1       21 0.58247285E-01 0.46272054E+03</pdfrwt>
<totfact> 0.59404134E+04</totfact>
</mgrwt>
</event>
<event>
 7    0  0.4748297E-002  0.4484768E+03  0.7546771E-02  0.1028177E+00
         21   -1    0    0  502  501  0.00000000000E+00  0.00000000000E+00  0.11029390514E+03  0.11029390514E+03  0.00000000000E+00 0. -1.
         21   -1    0    0  501  502 -0.00000000000E+00 -0.00000000000E+00 -0.45589879324E+03  0.45589879324E+03  0.00000000000E+00 0. -1.
      99926    2    1    2    0    0  0.17763568394E-14 -0.71054273576E-14 -0.34560488810E+03  0.56619269837E+03  0.44847679205E+03 0.  0.
      99925    2    3    3    0    0  0.10856474873E+02  0.59853321751E+02 -0.32976943785E+03  0.42619786719E+03  0.26305219386E+03 0.  0.
         25    1    4    4    0    0 -0.71563308019E+01  0.34045234373E+02 -0.10472707572E+03  0.16680995037E+03  0.12509000000E+03 0.  0.
         25    1    3    3    0    0 -0.10856474873E+02 -0.59853321751E+02 -0.15835450254E+02  0.13999483118E+03  0.12509000000E+03 0.  0.
         25    1    4    4    0    0  0.18012805675E+02  0.25808087378E+02 -0.22504236213E+03  0.25938791683E+03  0.12509000000E+03 0.  0.
<mgrwt>
<rscale>  2 0.44847679E+03</rscale>
<asrwt>0</asrwt>
<pdfrwt beam="1">  1       21 0.16219693E-01 0.44847679E+03</pdfrwt>
<pdfrwt beam="2">  1       21 0.67043938E-01 0.44847679E+03</pdfrwt>
<totfact> 0.64049849E+04</totfact>
</mgrwt>
</event>
<event>
 7    0  0.4748297E-002  0.4470571E+03  0.7546771E-02  0.1028603E+00
         21   -1    0    0  502  501  0.00000000000E+00  0.00000000000E+00  0.73823422121E+02  0.73823422121E+02  0.00000000000E+00 0. -1.
         21   -1    0    0  501  502 -0.00000000000E+00 -0.00000000000E+00 -0.67681779903E+03  0.67681779903E+03  0.00000000000E+00 0. -1.
      99926    2    1    2    0    0  0.00000000000E+00  0.00000000000E+00 -0.60299437691E+03  0.75064122115E+03  0.44705707053E+03 0.  0.
      99925    2    3    3    0    0  0.48631625521E+02  0.92794132151E+02 -0.36087212996E+03  0.45867122864E+03  0.26301105649E+03 0.  0.
         25    1    3    3    0    0 -0.48631625521E+02 -0.92794132151E+02 -0.24212224695E+03  0.29196999252E+03  0.12509000000E+03 0.  0.
         25    1    4    4    0    0  0.18704038079E+02  0.59877578274E+02 -0.12325529306E+03  0.18647933072E+03  0.12509000000E+03 0.  0.
         25    1    4    4    0    0  0.29927587442E+02  0.32916553877E+02 -0.23761683690E+03  0.27219189791E+03  0.12509000000E+03 0.  0.
<mgrwt>
<rscale>  2 0.44705707E+03</rscale>
<asrwt>0</asrwt>
<pdfrwt beam="1">  1       21 0.10856386E-01 0.44705707E+03</pdfrwt>
<pdfrwt beam="2">  1       21 0.99532030E-01 0.44705707E+03</pdfrwt>
<totfact> 0.53500621E+04</totfact>
</mgrwt>
</event>
<event>
 7    0  0.4748297E-002  0.4562020E+03  0.7546771E-02  0.1025889E+00
         21   -1    0    0  502  501  0.00000000000E+00  0.00000000000E+00  0.27052590282E+03  0.27052590282E+03  0.00000000000E+00 0.  1.
         21   -1    0    0  501  502 -0.00000000000E+00 -0.00000000000E+00 -0.19232935792E+03  0.19232935792E+03  0.00000000000E+00 0.  1.
      99926    2    1    2    0    0  0.88817841970E-15  0.14210854715E-13  0.78196544897E+02  0.46285526074E+03  0.45620203064E+03 0.  0.
      99925    2    3    3    0    0  0.60786183527E+01  0.10711846241E+03  0.91837136597E+01  0.28418910959E+03  0.26299770878E+03 0.  0.
         25    1    3    3    0    0 -0.60786183527E+01 -0.10711846241E+03  0.69012831237E+02  0.17866615114E+03  0.12509000000E+03 0.  0.
         25    1    4    4    0    0 -0.37329326513E+01  0.64273618428E+02  0.43454397796E+02  0.14724410209E+03  0.12509000000E+03 0.  0.
         25    1    4    4    0    0  0.98115510040E+01  0.42844843978E+02 -0.34270684136E+02  0.13694500750E+03  0.12509000000E+03 0.  0.
<mgrwt>
<rscale>  2 0.45620203E+03</rscale>
<asrwt>0</asrwt>
<pdfrwt beam="1">  1       21 0.39783221E-01 0.45620203E+03</pdfrwt>
<pdfrwt beam="2">  1       21 0.28283729E-01 0.45620203E+03</pdfrwt>
<totfact> 0.67323987E+04</totfact>
</mgrwt>
</event>
<event>
 7    0  0.4748297E-002  0.4537339E+03  0.7546771E-02  0.1026614E+00
         21   -1    0    0  502  501  0.00000000000E+00  0.00000000000E+00  0.93035033477E+02  0.93035033477E+02  0.00000000000E+00 0. -1.
         21   -1    0    0  501  502 -0.00000000000E+00 -0.00000000000E+00 -0.55321746967E+03  0.55321746967E+03  0.00000000000E+00 0. -1.
      99926    2    1    2    0    0 -0.71054273576E-14  0.14210854715E-13 -0.46018243619E+03  0.64625250314E+03  0.45373386830E+03 0.  0.
      99925    2    3    3    0    0 -0.60481628473E+02  0.78526625728E+02 -0.36407671955E+03  0.45995093256E+03  0.26301814446E+03 0.  0.
         25    1    3    3    0    0  0.60481628473E+02 -0.78526625728E+02 -0.96105716635E+02  0.18630157058E+03  0.12509000000E+03 0.  0.
         25    1    4    4    0    0  0.80954184767E+01  0.45623612881E+02 -0.15176754420E+03  0.20205926216E+03  0.12509000000E+03 0.  0.
         25    1    4    4    0    0 -0.68577046950E+02  0.32903012847E+02 -0.21230917536E+03  0.25789167040E+03  0.12509000000E+03 0.  0.
<mgrwt>
<rscale>  2 0.45373387E+03</rscale>
<asrwt>0</asrwt>
<pdfrwt beam="1">  1       21 0.13681622E-01 0.45373387E+03</pdfrwt>
<pdfrwt beam="2">  1       21 0.81355511E-01 0.45373387E+03</pdfrwt>
<totfact> 0.56479999E+04</totfact>
</mgrwt>
</event>
<event>
 7    0  0.4748297E-002  0.4575268E+03  0.7546771E-02  0.1025501E+00
         21   -1    0    0  502  501  0.00000000000E+00  0.00000000000E+00  0.21214517407E+04  0.21214517407E+04  0.00000000000E+00 0. -1.
         21   -1    0    0  501  502 -0.00000000000E+00 -0.00000000000E+00 -0.24668338996E+02  0.24668338996E+02  0.00000000000E+00 0. -1.
      99926    2    1    2    0    0  0.00000000000E+00 -0.17763568394E-14  0.20967834017E+04  0.21461200797E+04  0.45752678917E+03 0.  0.
      99925    2    3    3    0    0  0.45048500637E+02 -0.13688875123E+02  0.82248472173E+03  0.86483112454E+03  0.26312545256E+03 0.  0.
         25    1    4    4    0    0  0.49578362762E+02 -0.19053666639E+02  0.51911260374E+03  0.53660642908E+03  0.12509000000E+03 0.  0.
         25    1    3    3    0    0 -0.45048500637E+02  0.13688875123E+02  0.12742986799E+04  0.12812889551E+04  0.12509000000E+03 0.  0.
         25    1    4    4    0    0 -0.45298621248E+01  0.53647915161E+01  0.30337211799E+03  0.32822469546E+03  0.12509000000E+03 0.  0.
<mgrwt>
<rscale>  2 0.45752679E+03</rscale>
<asrwt>0</asrwt>
<pdfrwt beam="1">  1       21 0.31197807E+00 0.45752679E+03</pdfrwt>
<pdfrwt beam="2">  1       21 0.36276984E-02 0.45752679E+03</pdfrwt>
<totfact> 0.11245221E+04</totfact>
</mgrwt>
</event>
<event>
 7    0  0.4748297E-002  0.4541486E+03  0.7546771E-02  0.1026492E+00
         21   -1    0    0  502  501  0.00000000000E+00  0.00000000000E+00  0.19653034660E+03  0.19653034660E+03  0.00000000000E+00 0. -1.
         21   -1    0    0  501  502 -0.00000000000E+00 -0.00000000000E+00 -0.26236527199E+03  0.26236527199E+03  0.00000000000E+00 0. -1.
      99926    2    1    2    0    0  0.00000000000E+00  0.00000000000E+00 -0.65834925398E+02  0.45889561859E+03  0.45414860052E+03 0.  0.
      99925    2    3    3    0    0  0.81989699803E+02  0.54744300860E+02  0.12564434825E+02  0.28137599394E+03  0.26324007217E+03 0.  0.
         25    1    3    3    0    0 -0.81989699803E+02 -0.54744300860E+02 -0.78399360223E+02  0.17751962464E+03  0.12509000000E+03 0.  0.
         25    1    4    4    0    0  0.12217377179E+02  0.37726470354E+02  0.33982911539E+02  0.13555403811E+03  0.12509000000E+03 0.  0.
         25    1    4    4    0    0  0.69772322624E+02  0.17017830506E+02 -0.21418476714E+02  0.14582195584E+03  0.12509000000E+03 0.  0.
<mgrwt>
<rscale>  2 0.45414860E+03</rscale>
<asrwt>0</asrwt>
<pdfrwt beam="1">  1       21 0.28901522E-01 0.45414860E+03</pdfrwt>
<pdfrwt beam="2">  1       21 0.38583128E-01 0.45414860E+03</pdfrwt>
<totfact> 0.68726580E+04</totfact>
</mgrwt>
</event>
<event>
 7    0  0.4748297E-002  0.4624093E+03  0.7546771E-02  0.1024085E+00
         21   -1    0    0  502  501  0.00000000000E+00  0.00000000000E+00  0.58927600635E+03  0.58927600635E+03  0.00000000000E+00 0.  1.
         21   -1    0    0  501  502 -0.00000000000E+00 -0.00000000000E+00 -0.90714008188E+02  0.90714008188E+02  0.00000000000E+00 0.  1.
      99926    2    1    2    0    0 -0.55511151231E-16  0.00000000000E+00  0.49856199817E+03  0.67999001454E+03  0.46240929258E+03 0.  0.
      99925    2    3    3    0    0  0.47188474228E+00 -0.11459242698E+03  0.36386045338E+03  0.46337131437E+03  0.26303402528E+03 0.  0.
         25    1    3    3    0    0 -0.47188474228E+00  0.11459242698E+03  0.13470154479E+03  0.21661870017E+03  0.12509000000E+03 0.  0.
         25    1    4    4    0    0 -0.62725367768E+01 -0.10081410167E+03  0.19775085120E+03  0.25486415021E+03  0.12509000000E+03 0.  0.
         25    1    4    4    0    0  0.67444215191E+01 -0.13778325305E+02  0.16610960218E+03  0.20850716416E+03  0.12509000000E+03 0.  0.
<mgrwt>
<rscale>  2 0.46240929E+03</rscale>
<asrwt>0</asrwt>
<pdfrwt beam="1">  1       21 0.86658234E-01 0.46240929E+03</pdfrwt>
<pdfrwt beam="2">  1       21 0.13340296E-01 0.46240929E+03</pdfrwt>
<totfact> 0.50962036E+04</totfact>
</mgrwt>
</event>
<event>
 7    0  0.4748297E-002  0.4644935E+03  0.7546771E-02  0.1023486E+00
         21   -1    0    0  502  501  0.00000000000E+00  0.00000000000E+00  0.55684984408E+03  0.55684984408E+03  0.00000000000E+00 0.  1.
         21   -1    0    0  501  502 -0.00000000000E+00 -0.00000000000E+00 -0.96863727760E+02  0.96863727760E+02  0.00000000000E+00 0.  1.
      99926    2    1    2    0    0  0.00000000000E+00  0.35527136788E-14  0.45998611632E+03  0.65371357184E+03  0.46449349489E+03 0.  0.
      99925    2    3    3    0    0  0.11712511004E+03  0.25785191345E+02  0.31974418864E+03  0.43078202658E+03  0.26259025259E+03 0.  0.
         25    1    4    4    0    0  0.28084679194E+02  0.25916951703E+01  0.18554124172E+03  0.22554052090E+03  0.12509000000E+03 0.  0.
         25    1    4    4    0    0  0.89040430844E+02  0.23193496175E+02  0.13420294693E+03  0.20524150568E+03  0.12509000000E+03 0.  0.
         25    1    3    3    0    0 -0.11712511004E+03 -0.25785191345E+02  0.14024192767E+03  0.22293154526E+03  0.12509000000E+03 0.  0.
<mgrwt>
<rscale>  2 0.46449349E+03</rscale>
<asrwt>0</asrwt>
<pdfrwt beam="1">  1       21 0.81889682E-01 0.46449349E+03</pdfrwt>
<pdfrwt beam="2">  1       21 0.14244666E-01 0.46449349E+03</pdfrwt>
<totfact> 0.51519911E+04</totfact>
</mgrwt>
</event>
<event>
 7    0  0.4748297E-002  0.4299421E+03  0.7546771E-02  0.1033878E+00
         21   -1    0    0  502  501  0.00000000000E+00  0.00000000000E+00  0.16616845340E+03  0.16616845340E+03  0.00000000000E+00 0. -1.
         21   -1    0    0  501  502 -0.00000000000E+00 -0.00000000000E+00 -0.27810660283E+03  0.27810660283E+03  0.00000000000E+00 0. -1.
      99926    2    1    2    0    0 -0.71054273576E-14  0.00000000000E+00 -0.11193814943E+03  0.44427505623E+03  0.42994206155E+03 0.  0.
      99925    2    3    3    0    0 -0.39152160309E+02  0.49248166548E+02 -0.13530027676E+03  0.30231882826E+03  0.26293009615E+03 0.  0.
         25    1    4    4    0    0  0.20531477207E+02  0.27493511508E+02 -0.57368147380E+02  0.14183105148E+03  0.12509000000E+03 0.  0.
         25    1    3    3    0    0  0.39152160309E+02 -0.49248166548E+02  0.23362127338E+02  0.14195622797E+03  0.12509000000E+03 0.  0.
         25    1    4    4    0    0 -0.59683637517E+02  0.21754655041E+02 -0.77932129384E+02  0.16048777677E+03  0.12509000000E+03 0.  0.
<mgrwt>
<rscale>  2 0.42994206E+03</rscale>
<asrwt>0</asrwt>
<pdfrwt beam="1">  1       21 0.24436537E-01 0.42994206E+03</pdfrwt>
<pdfrwt beam="2">  1       21 0.40898030E-01 0.42994206E+03</pdfrwt>
<totfact> 0.85094315E+04</totfact>
</mgrwt>
</event>
<event>
 7    0  0.4748297E-002  0.4557603E+03  0.7546771E-02  0.1026018E+00
         21   -1    0    0  502  501  0.00000000000E+00  0.00000000000E+00  0.24894444054E+03  0.24894444054E+03  0.00000000000E+00 0. -1.
         21   -1    0    0  501  502 -0.00000000000E+00 -0.00000000000E+00 -0.20859823369E+03  0.20859823369E+03  0.00000000000E+00 0. -1.
      99926    2    1    2    0    0  0.00000000000E+00  0.00000000000E+00  0.40346206850E+02  0.45754267423E+03  0.45576033432E+03 0.  0.
      99925    2    3    3    0    0  0.71294410200E+02  0.72724075160E+02  0.76592010778E+02  0.29221587533E+03  0.26296786428E+03 0.  0.
         25    1    4    4    0    0  0.42941872051E+02 -0.42292192279E+01  0.39834159908E+02  0.13818885290E+03  0.12509000000E+03 0.  0.
         25    1    3    3    0    0 -0.71294410200E+02 -0.72724075160E+02 -0.36245803928E+02  0.16532679890E+03  0.12509000000E+03 0.  0.
         25    1    4    4    0    0  0.28352538149E+02  0.76953294388E+02  0.36757850870E+02  0.15402702243E+03  0.12509000000E+03 0.  0.
<mgrwt>
<rscale>  2 0.45576033E+03</rscale>
<asrwt>0</asrwt>
<pdfrwt beam="1">  1       21 0.36609477E-01 0.45576033E+03</pdfrwt>
<pdfrwt beam="2">  1       21 0.30676211E-01 0.45576033E+03</pdfrwt>
<totfact> 0.67946808E+04</totfact>
</mgrwt>
</event>
<event>
 7    0  0.4748297E-002  0.4722584E+03  0.7546771E-02  0.1021285E+00
         21   -1    0    0  502  501  0.00000000000E+00  0.00000000000E+00  0.27541740447E+03  0.27541740447E+03  0.00000000000E+00 0.  1.
         21   -1    0    0  501  502 -0.00000000000E+00 -0.00000000000E+00 -0.20244547949E+03  0.20244547949E+03  0.00000000000E+00 0.  1.
      99926    2    1    2    0    0  0.00000000000E+00  0.00000000000E+00  0.72971924974E+02  0.47786288396E+03  0.47225843987E+03 0.  0.
      99925    2    3    3    0    0  0.70774047464E+02 -0.91160462369E+02  0.10278045889E+03  0.30507615852E+03  0.26303696332E+03 0.  0.
         25    1    3    3    0    0 -0.70774047464E+02  0.91160462369E+02 -0.29808533913E+02  0.17278672544E+03  0.12509000000E+03 0.  0.
         25    1    4    4    0    0  0.48418081996E+02 -0.26159211958E+02  0.85740254972E+02  0.16133045112E+03  0.12509000000E+03 0.  0.
         25    1    4    4    0    0  0.22355965469E+02 -0.65001250412E+02  0.17040203915E+02  0.14374570740E+03  0.12509000000E+03 0.  0.
<mgrwt>
<rscale>  2 0.47225844E+03</rscale>
<asrwt>0</asrwt>
<pdfrwt beam="1">  1       21 0.40502560E-01 0.47225844E+03</pdfrwt>
<pdfrwt beam="2">  1       21 0.29771394E-01 0.47225844E+03</pdfrwt>
<totfact> 0.58428833E+04</totfact>
</mgrwt>
</event>
<event>
 7    0  0.4748297E-002  0.4541417E+03  0.7546771E-02  0.1026494E+00
         21   -1    0    0  502  501  0.00000000000E+00  0.00000000000E+00  0.61104793654E+03  0.61104793654E+03  0.00000000000E+00 0. -1.
         21   -1    0    0  501  502 -0.00000000000E+00 -0.00000000000E+00 -0.84381558700E+02  0.84381558700E+02  0.00000000000E+00 0. -1.
      99926    2    1    2    0    0  0.00000000000E+00  0.00000000000E+00  0.52666637784E+03  0.69542949524E+03  0.45414172821E+03 0.  0.
      99925    2    3    3    0    0 -0.41482904041E+02 -0.17625604123E+02  0.48932005491E+03  0.55732175040E+03  0.26294851984E+03 0.  0.
         25    1    4    4    0    0  0.11406405724E+02 -0.33370288860E+02  0.24594646292E+03  0.27817414149E+03  0.12509000000E+03 0.  0.
         25    1    3    3    0    0  0.41482904041E+02  0.17625604123E+02  0.37346322936E+02  0.13810774484E+03  0.12509000000E+03 0.  0.
         25    1    4    4    0    0 -0.52889309765E+02  0.15744684737E+02  0.24337359199E+03  0.27914760891E+03  0.12509000000E+03 0.  0.
<mgrwt>
<rscale>  2 0.45414173E+03</rscale>
<asrwt>0</asrwt>
<pdfrwt beam="1">  1       21 0.89859989E-01 0.45414173E+03</pdfrwt>
<pdfrwt beam="2">  1       21 0.12409053E-01 0.45414173E+03</pdfrwt>
<totfact> 0.53512411E+04</totfact>
</mgrwt>
</event>
<event>
 7    0  0.4748297E-002  0.4557475E+03  0.7546771E-02  0.1026022E+00
         21   -1    0    0  502  501  0.00000000000E+00  0.00000000000E+00  0.63886261002E+03  0.63886261002E+03  0.00000000000E+00 0.  1.
         21   -1    0    0  501  502 -0.00000000000E+00 -0.00000000000E+00 -0.81279522909E+02  0.81279522909E+02  0.00000000000E+00 0.  1.
      99926    2    1    2    0    0  0.00000000000E+00  0.00000000000E+00  0.55758308711E+03  0.72014213293E+03  0.45574750969E+03 0.  0.
      99925    2    3    3    0    0  0.24396195899E+02 -0.79297396674E+02  0.47417778110E+03  0.54842374526E+03  0.26275613176E+03 0.  0.
         25    1    3    3    0    0 -0.24396195899E+02  0.79297396674E+02  0.83405306006E+02  0.17171838767E+03  0.12509000000E+03 0.  0.
         25    1    4    4    0    0  0.50892110820E+02 -0.52548954229E+02  0.24928582939E+03  0.28834412144E+03  0.12509000000E+03 0.  0.
         25    1    4    4    0    0 -0.26495914921E+02 -0.26748442445E+02  0.22489195171E+03  0.26007962382E+03  0.12509000000E+03 0.  0.
<mgrwt>
<rscale>  2 0.45574751E+03</rscale>
<asrwt>0</asrwt>
<pdfrwt beam="1">  1       21 0.93950381E-01 0.45574751E+03</pdfrwt>
<pdfrwt beam="2">  1       21 0.11952871E-01 0.45574751E+03</pdfrwt>
<totfact> 0.51519436E+04</totfact>
</mgrwt>
</event>
<event>
 7    0  0.4748297E-002  0.4525699E+03  0.7546771E-02  0.1026958E+00
         21   -1    0    0  502  501  0.00000000000E+00  0.00000000000E+00  0.80062213510E+02  0.80062213510E+02  0.00000000000E+00 0. -1.
         21   -1    0    0  501  502 -0.00000000000E+00 -0.00000000000E+00 -0.63956350857E+03  0.63956350857E+03  0.00000000000E+00 0. -1.
      99926    2    1    2    0    0  0.00000000000E+00  0.00000000000E+00 -0.55950129506E+03  0.71962572208E+03  0.45256986279E+03 0.  0.
      99925    2    3    3    0    0  0.10224837278E+03  0.41414737842E+02 -0.35884999451E+03  0.45870741540E+03  0.26357022620E+03 0.  0.
         25    1    4    4    0    0  0.70612950328E+02  0.18853146013E+02 -0.24751770359E+03  0.28679984582E+03  0.12509000000E+03 0.  0.
         25    1    3    3    0    0 -0.10224837278E+03 -0.41414737842E+02 -0.20065130055E+03  0.26091830668E+03  0.12509000000E+03 0.  0.
         25    1    4    4    0    0  0.31635422456E+02  0.22561591830E+02 -0.11133229092E+03  0.17190756959E+03  0.12509000000E+03 0.  0.
<mgrwt>
<rscale>  2 0.45256986E+03</rscale>
<asrwt>0</asrwt>
<pdfrwt beam="1">  1       21 0.11773855E-01 0.45256986E+03</pdfrwt>
<pdfrwt beam="2">  1       21 0.94053456E-01 0.45256986E+03</pdfrwt>
<totfact> 0.52853414E+04</totfact>
</mgrwt>
</event>
<event>
 7    0  0.4748297E-002  0.4572761E+03  0.7546771E-02  0.1025574E+00
         21   -1    0    0  502  501  0.00000000000E+00  0.00000000000E+00  0.11705976630E+03  0.11705976630E+03  0.00000000000E+00 0.  1.
         21   -1    0    0  501  502 -0.00000000000E+00 -0.00000000000E+00 -0.44656990787E+03  0.44656990787E+03  0.00000000000E+00 0.  1.
      99926    2    1    2    0    0 -0.14210854715E-13  0.00000000000E+00 -0.32951014157E+03  0.56362967417E+03  0.45727614874E+03 0.  0.
      99925    2    3    3    0    0  0.10158321199E+03  0.41368807938E+02 -0.25066523130E+03  0.37952493441E+03  0.26301252902E+03 0.  0.
         25    1    4    4    0    0  0.33141550630E+02  0.47371914150E+02 -0.15659434242E+03  0.20859471903E+03  0.12509000000E+03 0.  0.
         25    1    3    3    0    0 -0.10158321199E+03 -0.41368807938E+02 -0.78844910268E+02  0.18410473976E+03  0.12509000000E+03 0.  0.
         25    1    4    4    0    0  0.68441661361E+02 -0.60031062126E+01 -0.94070888878E+02  0.17093021538E+03  0.12509000000E+03 0.  0.
<mgrwt>
<rscale>  2 0.45727615E+03</rscale>
<asrwt>0</asrwt>
<pdfrwt beam="1">  1       21 0.17214672E-01 0.45727615E+03</pdfrwt>
<pdfrwt beam="2">  1       21 0.65672043E-01 0.45727615E+03</pdfrwt>
<totfact> 0.59889278E+04</totfact>
</mgrwt>
</event>
<event>
 7    0  0.4748297E-002  0.4468142E+03  0.7546771E-02  0.1028676E+00
         21   -1    0    0  502  501  0.00000000000E+00  0.00000000000E+00  0.44693747856E+02  0.44693747856E+02  0.00000000000E+00 0.  1.
         21   -1    0    0  501  502 -0.00000000000E+00 -0.00000000000E+00 -0.11167272786E+04  0.11167272786E+04  0.00000000000E+00 0.  1.
      99926    2    1    2    0    0  0.00000000000E+00  0.00000000000E+00 -0.10720335308E+04  0.11614210265E+04  0.44681417799E+03 0.  0.
      99925    2    3    3    0    0  0.71676999885E+02  0.64917834031E+02 -0.78783250264E+03  0.83619856419E+03  0.26305145704E+03 0.  0.
         25    1    3    3    0    0 -0.71676999885E+02 -0.64917834031E+02 -0.28420102811E+03  0.32522246227E+03  0.12509000000E+03 0.  0.
         25    1    4    4    0    0  0.29835793486E+02  0.18623207634E+01 -0.45158777606E+03  0.46954517397E+03  0.12509000000E+03 0.  0.
         25    1    4    4    0    0  0.41841206399E+02  0.63055513268E+02 -0.33624472658E+03  0.36665339022E+03  0.12509000000E+03 0.  0.
<mgrwt>
<rscale>  2 0.44681418E+03</rscale>
<asrwt>0</asrwt>
<pdfrwt beam="1">  1       21 0.65726106E-02 0.44681418E+03</pdfrwt>
<pdfrwt beam="2">  1       21 0.16422458E+00 0.44681418E+03</pdfrwt>
<totfact> 0.35621989E+04</totfact>
</mgrwt>
</event>
<event>
 7    0  0.4748297E-002  0.4447249E+03  0.7546771E-02  0.1029307E+00
         21   -1    0    0  502  501  0.00000000000E+00  0.00000000000E+00  0.64763919250E+03  0.64763919250E+03  0.00000000000E+00 0.  1.
         21   -1    0    0  501  502 -0.00000000000E+00 -0.00000000000E+00 -0.76346612990E+02  0.76346612990E+02  0.00000000000E+00 0.  1.
      99926    2    1    2    0    0 -0.35527136788E-14  0.00000000000E+00  0.57129257951E+03  0.72398580549E+03  0.44472489828E+03 0.  0.
      99925    2    3    3    0    0 -0.30627029647E+02 -0.24282209675E+02  0.20719799562E+03  0.33702325592E+03  0.26291828576E+03 0.  0.
         25    1    3    3    0    0  0.30627029647E+02  0.24282209675E+02  0.36409458389E+03  0.38696254957E+03  0.12509000000E+03 0.  0.
         25    1    4    4    0    0  0.66520954934E+01 -0.42407150529E+02  0.12324019674E+03  0.18077132235E+03  0.12509000000E+03 0.  0.
         25    1    4    4    0    0 -0.37279125141E+02  0.18124940854E+02  0.83957798878E+02  0.15625193357E+03  0.12509000000E+03 0.  0.
<mgrwt>
<rscale>  2 0.44472490E+03</rscale>
<asrwt>0</asrwt>
<pdfrwt beam="1">  1       21 0.95241055E-01 0.44472490E+03</pdfrwt>
<pdfrwt beam="2">  1       21 0.11227443E-01 0.44472490E+03</pdfrwt>
<totfact> 0.56010865E+04</totfact>
</mgrwt>
</event>
<event>
 7    0  0.4748297E-002  0.4560902E+03  0.7546771E-02  0.1025921E+00
         21   -1    0    0  502  501  0.00000000000E+00  0.00000000000E+00  0.18458845348E+03  0.18458845348E+03  0.00000000000E+00 0. -1.
         21   -1    0    0  501  502 -0.00000000000E+00 -0.00000000000E+00 -0.28173249771E+03  0.28173249771E+03  0.00000000000E+00 0. -1.
      99926    2    1    2    0    0  0.00000000000E+00  0.14210854715E-13 -0.97144044226E+02  0.46632095119E+03  0.45609019304E+03 0.  0.
      99925    2    3    3    0    0 -0.75028916084E+01  0.83360824240E+02 -0.14050205294E+03  0.30969162628E+03  0.26298812922E+03 0.  0.
         25    1    4    4    0    0  0.61638147023E+01  0.31104911302E+01 -0.48341212947E+02  0.13428346412E+03  0.12509000000E+03 0.  0.
         25    1    4    4    0    0 -0.13666706311E+02  0.80250333110E+02 -0.92160839994E+02  0.17540816216E+03  0.12509000000E+03 0.  0.
         25    1    3    3    0    0  0.75028916084E+01 -0.83360824240E+02  0.43358008715E+02  0.15662932491E+03  0.12509000000E+03 0.  0.
<mgrwt>
<rscale>  2 0.45609019E+03</rscale>
<asrwt>0</asrwt>
<pdfrwt beam="1">  1       21 0.27145361E-01 0.45609019E+03</pdfrwt>
<pdfrwt beam="2">  1       21 0.41431249E-01 0.45609019E+03</pdfrwt>
<totfact> 0.67128581E+04</totfact>
</mgrwt>
</event>
<event>
 7    0  0.4748297E-002  0.4418406E+03  0.7546771E-02  0.1030184E+00
         21   -1    0    0  502  501  0.00000000000E+00  0.00000000000E+00  0.52803053084E+03  0.52803053084E+03  0.00000000000E+00 0.  1.
         21   -1    0    0  501  502 -0.00000000000E+00 -0.00000000000E+00 -0.92429841125E+02  0.92429841125E+02  0.00000000000E+00 0.  1.
      99926    2    1    2    0    0  0.35527136788E-14 -0.14210854715E-13  0.43560068971E+03  0.62046037196E+03  0.44184059603E+03 0.  0.
      99925    2    3    3    0    0 -0.14446100007E+02  0.99035161309E+02  0.26761344282E+03  0.38833136430E+03  0.26299741584E+03 0.  0.
         25    1    4    4    0    0 -0.39041487936E+02  0.24934244691E+02  0.13923431843E+03  0.19282027349E+03  0.12509000000E+03 0.  0.
         25    1    4    4    0    0  0.24595387929E+02  0.74100916618E+02  0.12837912439E+03  0.19551109081E+03  0.12509000000E+03 0.  0.
         25    1    3    3    0    0  0.14446100007E+02 -0.99035161309E+02  0.16798724689E+03  0.23212900766E+03  0.12509000000E+03 0.  0.
<mgrwt>
<rscale>  2 0.44184060E+03</rscale>
<asrwt>0</asrwt>
<pdfrwt beam="1">  1       21 0.77651548E-01 0.44184060E+03</pdfrwt>
<pdfrwt beam="2">  1       21 0.13592624E-01 0.44184060E+03</pdfrwt>
<totfact> 0.63812559E+04</totfact>
</mgrwt>
</event>
<event>
 7    0  0.4748297E-002  0.4509260E+03  0.7546771E-02  0.1027446E+00
         21   -1    0    0  502  501  0.00000000000E+00  0.00000000000E+00  0.14476493997E+03  0.14476493997E+03  0.00000000000E+00 0. -1.
         21   -1    0    0  501  502 -0.00000000000E+00 -0.00000000000E+00 -0.35114562416E+03  0.35114562416E+03  0.00000000000E+00 0. -1.
      99926    2    1    2    0    0  0.14210854715E-13 -0.14210854715E-13 -0.20638068419E+03  0.49591056413E+03  0.45092604805E+03 0.  0.
      99925    2    3    3    0    0  0.69695774938E+02 -0.84108873619E+02 -0.13436720629E+03  0.31489881654E+03  0.26301124476E+03 0.  0.
         25    1    3    3    0    0 -0.69695774938E+02  0.84108873619E+02 -0.72013477903E+02  0.18101174759E+03  0.12509000000E+03 0.  0.
         25    1    4    4    0    0  0.16145988834E+02 -0.31429604634E+01 -0.52560365444E+02  0.13667725221E+03  0.12509000000E+03 0.  0.
         25    1    4    4    0    0  0.53549786104E+02 -0.80965913155E+02 -0.81806840844E+02  0.17822156433E+03  0.12509000000E+03 0.  0.
<mgrwt>
<rscale>  2 0.45092605E+03</rscale>
<asrwt>0</asrwt>
<pdfrwt beam="1">  1       21 0.21288962E-01 0.45092605E+03</pdfrwt>
<pdfrwt beam="2">  1       21 0.51639062E-01 0.45092605E+03</pdfrwt>
<totfact> 0.67722718E+04</totfact>
</mgrwt>
</event>
<event>
 7    0  0.4748297E-002  0.4584812E+03  0.7546771E-02  0.1025223E+00
         21   -1    0    0  502  501  0.00000000000E+00  0.00000000000E+00  0.96787339739E+02  0.96787339739E+02  0.00000000000E+00 0.  1.
         21   -1    0    0  501  502 -0.00000000000E+00 -0.00000000000E+00 -0.54295587780E+03  0.54295587780E+03  0.00000000000E+00 0.  1.
      99926    2    1    2    0    0 -0.17763568394E-14  0.00000000000E+00 -0.44616853806E+03  0.63974321754E+03  0.45848121012E+03 0.  0.
      99925    2    3    3    0    0  0.88851537883E+01  0.50820208239E+02 -0.13423022885E+03  0.29972166472E+03  0.26297087756E+03 0.  0.
         25    1    4    4    0    0  0.44181260125E+02  0.32700700863E+02 -0.72925561702E+02  0.15487725860E+03  0.12509000000E+03 0.  0.
         25    1    4    4    0    0 -0.35296106337E+02  0.18119507376E+02 -0.61304667144E+02  0.14484440612E+03  0.12509000000E+03 0.  0.
         25    1    3    3    0    0 -0.88851537883E+01 -0.50820208239E+02 -0.31193830922E+03  0.34002155282E+03  0.12509000000E+03 0.  0.
<mgrwt>
<rscale>  2 0.45848121E+03</rscale>
<asrwt>0</asrwt>
<pdfrwt beam="1">  1       21 0.14233432E-01 0.45848121E+03</pdfrwt>
<pdfrwt beam="2">  1       21 0.79846452E-01 0.45848121E+03</pdfrwt>
<totfact> 0.54775838E+04</totfact>
</mgrwt>
</event>
<event>
 7    0  0.4748297E-002  0.4513825E+03  0.7546771E-02  0.1027311E+00
         21   -1    0    0  502  501  0.00000000000E+00  0.00000000000E+00  0.71438672055E+03  0.71438672055E+03  0.00000000000E+00 0.  1.
         21   -1    0    0  501  502 -0.00000000000E+00 -0.00000000000E+00 -0.71301086344E+02  0.71301086344E+02  0.00000000000E+00 0.  1.
      99926    2    1    2    0    0  0.00000000000E+00  0.35527136788E-14  0.64308563421E+03  0.78568780690E+03  0.45138253952E+03 0.  0.
      99925    2    3    3    0    0  0.66085240903E+02 -0.29395943867E+02  0.55052587231E+03  0.61408886108E+03  0.26228803375E+03 0.  0.
         25    1    3    3    0    0 -0.66085240903E+02  0.29395943867E+02  0.92559761901E+02  0.17159894581E+03  0.12509000000E+03 0.  0.
         25    1    4    4    0    0  0.34269562807E+02  0.22615798337E+02  0.23816294866E+03  0.27213043836E+03  0.12509000000E+03 0.  0.
         25    1    4    4    0    0  0.31815678095E+02 -0.52011742204E+02  0.31236292365E+03  0.34195842272E+03  0.12509000000E+03 0.  0.
<mgrwt>
<rscale>  2 0.45138254E+03</rscale>
<asrwt>0</asrwt>
<pdfrwt beam="1">  1       21 0.10505687E+00 0.45138254E+03</pdfrwt>
<pdfrwt beam="2">  1       21 0.10485454E-01 0.45138254E+03</pdfrwt>
<totfact> 0.49865717E+04</totfact>
</mgrwt>
</event>
<event>
 7    0  0.4748297E-002  0.4645418E+03  0.7546771E-02  0.1023472E+00
         21   -1    0    0  502  501  0.00000000000E+00  0.00000000000E+00  0.42020958372E+02  0.42020958372E+02  0.00000000000E+00 0.  1.
         21   -1    0    0  501  502 -0.00000000000E+00 -0.00000000000E+00 -0.12838774992E+04  0.12838774992E+04  0.00000000000E+00 0.  1.
      99926    2    1    2    0    0  0.14210854715E-13  0.00000000000E+00 -0.12418565409E+04  0.13258984576E+04  0.46454176540E+03 0.  0.
      99925    2    3    3    0    0 -0.10250822429E+03  0.45418042688E+02 -0.63775523511E+03  0.69887642421E+03  0.26291782321E+03 0.  0.
         25    1    4    4    0    0 -0.74743707845E+02  0.13003375004E+02 -0.41290888063E+03  0.43806045408E+03  0.12509000000E+03 0.  0.
         25    1    3    3    0    0  0.10250822429E+03 -0.45418042688E+02 -0.60410130575E+03  0.62702203339E+03  0.12509000000E+03 0.  0.
         25    1    4    4    0    0 -0.27764516442E+02  0.32414667684E+02 -0.22484635447E+03  0.26081597013E+03  0.12509000000E+03 0.  0.
<mgrwt>
<rscale>  2 0.46454177E+03</rscale>
<asrwt>0</asrwt>
<pdfrwt beam="1">  1       21 0.61795520E-02 0.46454177E+03</pdfrwt>
<pdfrwt beam="2">  1       21 0.18880554E+00 0.46454177E+03</pdfrwt>
<totfact> 0.26360814E+04</totfact>
</mgrwt>
</event>
<event>
 7    0  0.4748297E-002  0.4541482E+03  0.7546771E-02  0.1026492E+00
         21   -1    0    0  502  501  0.00000000000E+00  0.00000000000E+00  0.70749809886E+02  0.70749809886E+02  0.00000000000E+00 0. -1.
         21   -1    0    0  501  502 -0.00000000000E+00 -0.00000000000E+00 -0.72880266441E+03  0.72880266441E+03  0.00000000000E+00 0. -1.
      99926    2    1    2    0    0  0.00000000000E+00  0.00000000000E+00 -0.65805285453E+03  0.79955247430E+03  0.45414821348E+03 0.  0.
      99925    2    3    3    0    0 -0.81103206647E+02  0.21037983914E+02 -0.54629338485E+03  0.61204777020E+03  0.26295566886E+03 0.  0.
         25    1    4    4    0    0 -0.60915950746E+02 -0.80821365162E+01 -0.34868240566E+03  0.37550366456E+03  0.12509000000E+03 0.  0.
         25    1    3    3    0    0  0.81103206647E+02 -0.21037983914E+02 -0.11175946968E+03  0.18750470410E+03  0.12509000000E+03 0.  0.
         25    1    4    4    0    0 -0.20187255900E+02  0.29120120430E+02 -0.19761097919E+03  0.23654410564E+03  0.12509000000E+03 0.  0.
<mgrwt>
<rscale>  2 0.45414821E+03</rscale>
<asrwt>0</asrwt>
<pdfrwt beam="1">  1       21 0.10404384E-01 0.45414821E+03</pdfrwt>
<pdfrwt beam="2">  1       21 0.10717686E+00 0.45414821E+03</pdfrwt>
<totfact> 0.48107238E+04</totfact>
</mgrwt>
</event>
<event>
 7    0  0.4748297E-002  0.4560289E+03  0.7546771E-02  0.1025939E+00
         21   -1    0    0  502  501  0.00000000000E+00  0.00000000000E+00  0.72616417749E+03  0.72616417749E+03  0.00000000000E+00 0.  1.
         21   -1    0    0  501  502 -0.00000000000E+00 -0.00000000000E+00 -0.71596179577E+02  0.71596179577E+02  0.00000000000E+00 0.  1.
      99926    2    1    2    0    0  0.00000000000E+00  0.00000000000E+00  0.65456799792E+03  0.79776035707E+03  0.45602886248E+03 0.  0.
      99925    2    3    3    0    0  0.81252053522E+02 -0.33083897622E+02  0.53920290973E+03  0.60631048855E+03  0.26301366920E+03 0.  0.
         25    1    4    4    0    0  0.37837444493E+02  0.69190743448E+01  0.18999294883E+03  0.23070408428E+03  0.12509000000E+03 0.  0.
         25    1    4    4    0    0  0.43414609029E+02 -0.40002971967E+02  0.34920996089E+03  0.37560640427E+03  0.12509000000E+03 0.  0.
         25    1    3    3    0    0 -0.81252053522E+02  0.33083897622E+02  0.11536508819E+03  0.19144986852E+03  0.12509000000E+03 0.  0.
<mgrwt>
<rscale>  2 0.45602886E+03</rscale>
<asrwt>0</asrwt>
<pdfrwt beam="1">  1       21 0.10678885E+00 0.45602886E+03</pdfrwt>
<pdfrwt beam="2">  1       21 0.10528850E-01 0.45602886E+03</pdfrwt>
<totfact> 0.47488723E+04</totfact>
</mgrwt>
</event>
<event>
 7    0  0.4748297E-002  0.4484765E+03  0.7546771E-02  0.1028177E+00
         21   -1    0    0  502  501  0.00000000000E+00  0.00000000000E+00  0.43484366088E+03  0.43484366088E+03  0.00000000000E+00 0. -1.
         21   -1    0    0  501  502 -0.00000000000E+00 -0.00000000000E+00 -0.11563420781E+03  0.11563420781E+03  0.00000000000E+00 0. -1.
      99926    2    1    2    0    0  0.71054273576E-14  0.14210854715E-13  0.31920945307E+03  0.55047786869E+03  0.44847654229E+03 0.  0.
      99925    2    3    3    0    0 -0.50940500881E+02 -0.91241416292E+02  0.23088177868E+03  0.36508850319E+03  0.26279895121E+03 0.  0.
         25    1    4    4    0    0 -0.31201503192E+02 -0.32509448390E+02  0.64120063274E+02  0.14761195294E+03  0.12509000000E+03 0.  0.
         25    1    4    4    0    0 -0.19738997689E+02 -0.58731967901E+02  0.16676171541E+03  0.21747655025E+03  0.12509000000E+03 0.  0.
         25    1    3    3    0    0  0.50940500881E+02  0.91241416292E+02  0.88327674389E+02  0.18538936550E+03  0.12509000000E+03 0.  0.
<mgrwt>
<rscale>  2 0.44847654E+03</rscale>
<asrwt>0</asrwt>
<pdfrwt beam="1">  1       21 0.63947597E-01 0.44847654E+03</pdfrwt>
<pdfrwt beam="2">  1       21 0.17005031E-01 0.44847654E+03</pdfrwt>
<totfact> 0.65131992E+04</totfact>
</mgrwt>
</event>
<event>
 7    0  0.4748297E-002  0.4516792E+03  0.7546771E-02  0.1027222E+00
         21   -1    0    0  502  501  0.00000000000E+00  0.00000000000E+00  0.37711870902E+03  0.37711870902E+03  0.00000000000E+00 0.  1.
         21   -1    0    0  501  502 -0.00000000000E+00 -0.00000000000E+00 -0.13524525406E+03  0.13524525406E+03  0.00000000000E+00 0.  1.
      99926    2    1    2    0    0 -0.71054273576E-14  0.00000000000E+00  0.24187345496E+03  0.51236396308E+03  0.45167915874E+03 0.  0.
      99925    2    3    3    0    0  0.35999045507E+02  0.91183153605E+02  0.20927172734E+03  0.35012747050E+03  0.26302906865E+03 0.  0.
         25    1    3    3    0    0 -0.35999045507E+02 -0.91183153605E+02  0.32601727619E+02  0.16223649257E+03  0.12509000000E+03 0.  0.
         25    1    4    4    0    0  0.35341543270E+02  0.10843728119E+02  0.79271202148E+02  0.15263696377E+03  0.12509000000E+03 0.  0.
         25    1    4    4    0    0  0.65750223783E+00  0.80339425486E+02  0.13000052520E+03  0.19749050673E+03  0.12509000000E+03 0.  0.
<mgrwt>
<rscale>  2 0.45167916E+03</rscale>
<asrwt>0</asrwt>
<pdfrwt beam="1">  1       21 0.55458633E-01 0.45167916E+03</pdfrwt>
<pdfrwt beam="2">  1       21 0.19889008E-01 0.45167916E+03</pdfrwt>
<totfact> 0.66136192E+04</totfact>
</mgrwt>
</event>
<event>
 7    0  0.4748297E-002  0.4544344E+03  0.7546771E-02  0.1026408E+00
         21   -1    0    0  502  501  0.00000000000E+00  0.00000000000E+00  0.10720683685E+04  0.10720683685E+04  0.00000000000E+00 0.  1.
         21   -1    0    0  501  502 -0.00000000000E+00 -0.00000000000E+00 -0.48157060688E+02  0.48157060688E+02  0.00000000000E+00 0.  1.
      99926    2    1    2    0    0  0.00000000000E+00  0.00000000000E+00  0.10239113078E+04  0.11202254292E+04  0.45443442424E+03 0.  0.
      99925    2    3    3    0    0 -0.65120620350E+02 -0.37689263202E+02  0.85120248814E+03  0.89409046895E+03  0.26304166035E+03 0.  0.
         25    1    4    4    0    0 -0.42162813092E+02  0.16754374902E+02  0.47382900750E+03  0.49215835697E+03  0.12509000000E+03 0.  0.
         25    1    3    3    0    0  0.65120620350E+02  0.37689263202E+02  0.17270881969E+03  0.22613496027E+03  0.12509000000E+03 0.  0.
         25    1    4    4    0    0 -0.22957807258E+02 -0.54443638104E+02  0.37737348064E+03  0.40193211197E+03  0.12509000000E+03 0.  0.
<mgrwt>
<rscale>  2 0.45443442E+03</rscale>
<asrwt>0</asrwt>
<pdfrwt beam="1">  1       21 0.15765710E+00 0.45443442E+03</pdfrwt>
<pdfrwt beam="2">  1       21 0.70819214E-02 0.45443442E+03</pdfrwt>
<totfact> 0.34945988E+04</totfact>
</mgrwt>
</event>
<event>
 7    0  0.4748297E-002  0.4560977E+03  0.7546771E-02  0.1025919E+00
         21   -1    0    0  502  501  0.00000000000E+00  0.00000000000E+00  0.83240331019E+02  0.83240331019E+02  0.00000000000E+00 0.  1.
         21   -1    0    0  501  502 -0.00000000000E+00 -0.00000000000E+00 -0.62477253214E+03  0.62477253214E+03  0.00000000000E+00 0.  1.
      99926    2    1    2    0    0  0.00000000000E+00  0.00000000000E+00 -0.54153220112E+03  0.70801286316E+03  0.45609767545E+03 0.  0.
      99925    2    3    3    0    0 -0.88249673170E+02  0.70395346698E+02 -0.36652769976E+03  0.46507749470E+03  0.26307985809E+03 0.  0.
         25    1    4    4    0    0 -0.69659096547E+02  0.19290156858E+02 -0.14337440212E+03  0.20353925215E+03  0.12509000000E+03 0.  0.
         25    1    3    3    0    0  0.88249673170E+02 -0.70395346698E+02 -0.17500450137E+03  0.24293536846E+03  0.12509000000E+03 0.  0.
         25    1    4    4    0    0 -0.18590576624E+02  0.51105189840E+02 -0.22315329764E+03  0.26153824255E+03  0.12509000000E+03 0.  0.
<mgrwt>
<rscale>  2 0.45609768E+03</rscale>
<asrwt>0</asrwt>
<pdfrwt beam="1">  1       21 0.12241226E-01 0.45609768E+03</pdfrwt>
<pdfrwt beam="2">  1       21 0.91878310E-01 0.45609768E+03</pdfrwt>
<totfact> 0.52019345E+04</totfact>
</mgrwt>
</event>
<event>
 7    0  0.4748297E-002  0.4578902E+03  0.7546771E-02  0.1025395E+00
         21   -1    0    0  502  501  0.00000000000E+00  0.00000000000E+00  0.89128756693E+03  0.89128756693E+03  0.00000000000E+00 0.  1.
         21   -1    0    0  501  502 -0.00000000000E+00 -0.00000000000E+00 -0.58809150507E+02  0.58809150507E+02  0.00000000000E+00 0.  1.
      99926    2    1    2    0    0  0.00000000000E+00  0.35527136788E-14  0.83247841642E+03  0.95009671744E+03  0.45789022557E+03 0.  0.
      99925    2    3    3    0    0 -0.64693491731E+02  0.22571587879E+02  0.32902048113E+03  0.42682611329E+03  0.26311847053E+03 0.  0.
         25    1    4    4    0    0 -0.56031724385E+02 -0.21797559456E+02  0.16230620036E+03  0.21355443922E+03  0.12509000000E+03 0.  0.
         25    1    3    3    0    0  0.64693491731E+02 -0.22571587879E+02  0.50345793529E+03  0.52327060415E+03  0.12509000000E+03 0.  0.
         25    1    4    4    0    0 -0.86617673461E+01  0.44369147334E+02  0.16671428077E+03  0.21327167407E+03  0.12509000000E+03 0.  0.
<mgrwt>
<rscale>  2 0.45789023E+03</rscale>
<asrwt>0</asrwt>
<pdfrwt beam="1">  1       21 0.13107169E+00 0.45789023E+03</pdfrwt>
<pdfrwt beam="2">  1       21 0.86484050E-02 0.45789023E+03</pdfrwt>
<totfact> 0.40220151E+04</totfact>
</mgrwt>
</event>
<event>
 7    0  0.4748297E-002  0.4243543E+03  0.7546771E-02  0.1035658E+00
         21   -1    0    0  502  501  0.00000000000E+00  0.00000000000E+00  0.96409470458E+02  0.96409470458E+02  0.00000000000E+00 0. -1.
         21   -1    0    0  501  502 -0.00000000000E+00 -0.00000000000E+00 -0.46695761640E+03  0.46695761640E+03  0.00000000000E+00 0. -1.
      99926    2    1    2    0    0  0.00000000000E+00  0.00000000000E+00 -0.37054814594E+03  0.56336708685E+03  0.42435426956E+03 0.  0.
      99925    2    3    3    0    0  0.36916780914E+02  0.45106831082E+02 -0.31533152979E+03  0.41472705953E+03  0.26299635987E+03 0.  0.
         25    1    3    3    0    0 -0.36916780914E+02 -0.45106831082E+02 -0.55216616151E+02  0.14864002732E+03  0.12509000000E+03 0.  0.
         25    1    4    4    0    0 -0.20202799732E+02  0.84963327603E+01 -0.15370395687E+03  0.19938092999E+03  0.12509000000E+03 0.  0.
         25    1    4    4    0    0  0.57119580646E+02  0.36610498322E+02 -0.16162757292E+03  0.21534612954E+03  0.12509000000E+03 0.  0.
<mgrwt>
<rscale>  2 0.42435427E+03</rscale>
<asrwt>0</asrwt>
<pdfrwt beam="1">  1       21 0.14177863E-01 0.42435427E+03</pdfrwt>
<pdfrwt beam="2">  1       21 0.68670238E-01 0.42435427E+03</pdfrwt>
<totfact> 0.78316315E+04</totfact>
</mgrwt>
</event>
<event>
 6    0  0.5157349E-002  0.4551258E+03  0.7546771E-02  0.1026204E+00
         21   -1    0    0  502  501  0.00000000000E+00  0.00000000000E+00  0.18976271000E+03  0.18976271000E+03  0.00000000000E+00 0.  1.
         21   -1    0    0  501  502 -0.00000000000E+00 -0.00000000000E+00 -0.27289280277E+03  0.27289280277E+03  0.00000000000E+00 0.  1.
      99926    2    1    2    0    0  0.00000000000E+00 -0.62172489379E-14 -0.83130092770E+02  0.46265551277E+03  0.45512581906E+03 0.  0.
         25    1    3    3    0    0 -0.10488064359E+02 -0.39729060606E+02  0.67306039935E+02  0.14787159586E+03  0.12509000000E+03 0.  0.
         25    1    3    3    0    0 -0.68915808412E+01 -0.50542015316E+01 -0.12753285748E+03  0.17884400095E+03  0.12509000000E+03 0.  0.
         25    1    3    3    0    0  0.17379645200E+02  0.44783262137E+02 -0.22903275228E+02  0.13593991596E+03  0.12509000000E+03 0.  0.
<mgrwt>
<rscale>  2 0.45512582E+03</rscale>
<asrwt>0</asrwt>
<pdfrwt beam="1">  1       21 0.27906281E-01 0.45512582E+03</pdfrwt>
<pdfrwt beam="2">  1       21 0.40131294E-01 0.45512582E+03</pdfrwt>
<totfact> 0.67916570E+04</totfact>
</mgrwt>
</event>
<event>
 7    0  0.4748297E-002  0.4523755E+03  0.7546771E-02  0.1027016E+00
         21   -1    0    0  502  501  0.00000000000E+00  0.00000000000E+00  0.86105465542E+02  0.86105465542E+02  0.00000000000E+00 0. -1.
         21   -1    0    0  501  502 -0.00000000000E+00 -0.00000000000E+00 -0.59416545238E+03  0.59416545238E+03  0.00000000000E+00 0. -1.
      99926    2    1    2    0    0  0.00000000000E+00  0.00000000000E+00 -0.50805998684E+03  0.68027091792E+03  0.45237547629E+03 0.  0.
      99925    2    3    3    0    0  0.25864871360E+02  0.50880192299E+02 -0.17792921130E+03  0.32265153562E+03  0.26303502365E+03 0.  0.
         25    1    3    3    0    0 -0.25864871360E+02 -0.50880192299E+02 -0.33013077554E+03  0.35761938230E+03  0.12509000000E+03 0.  0.
         25    1    4    4    0    0 -0.22098955681E+01  0.51845880700E+02 -0.12380827014E+03  0.18349080314E+03  0.12509000000E+03 0.  0.
         25    1    4    4    0    0  0.28074766928E+02 -0.96568840082E+00 -0.54120941165E+02  0.13916073248E+03  0.12509000000E+03 0.  0.
<mgrwt>
<rscale>  2 0.45237548E+03</rscale>
<asrwt>0</asrwt>
<pdfrwt beam="1">  1       21 0.12662569E-01 0.45237548E+03</pdfrwt>
<pdfrwt beam="2">  1       21 0.87377269E-01 0.45237548E+03</pdfrwt>
<totfact> 0.55117921E+04</totfact>
</mgrwt>
</event>
<event>
 7    0  0.4748297E-002  0.4525908E+03  0.7546771E-02  0.1026952E+00
         21   -1    0    0  502  501  0.00000000000E+00  0.00000000000E+00  0.59370549075E+03  0.59370549075E+03  0.00000000000E+00 0. -1.
         21   -1    0    0  501  502 -0.00000000000E+00 -0.00000000000E+00 -0.86254235746E+02  0.86254235746E+02  0.00000000000E+00 0. -1.
      99926    2    1    2    0    0  0.00000000000E+00  0.00000000000E+00  0.50745125500E+03  0.67995972650E+03  0.45259082343E+03 0.  0.
      99925    2    3    3    0    0  0.54364660039E+02 -0.96274192500E+02  0.30726807216E+03  0.41929701110E+03  0.26300585345E+03 0.  0.
         25    1    3    3    0    0 -0.54364660039E+02  0.96274192500E+02  0.20018318285E+03  0.26066271540E+03  0.12509000000E+03 0.  0.
         25    1    4    4    0    0  0.25180484312E+01 -0.49437552087E+02  0.19675034527E+03  0.23834558647E+03  0.12509000000E+03 0.  0.
         25    1    4    4    0    0  0.51846611608E+02 -0.46836640413E+02  0.11051772688E+03  0.18095142463E+03  0.12509000000E+03 0.  0.
<mgrwt>
<rscale>  2 0.45259082E+03</rscale>
<asrwt>0</asrwt>
<pdfrwt beam="1">  1       21 0.87309629E-01 0.45259082E+03</pdfrwt>
<pdfrwt beam="2">  1       21 0.12684447E-01 0.45259082E+03</pdfrwt>
<totfact> 0.55041746E+04</totfact>
</mgrwt>
</event>
<event>
 7    0  0.4748297E-002  0.4225372E+03  0.7546771E-02  0.1036244E+00
         21   -1    0    0  502  501  0.00000000000E+00  0.00000000000E+00  0.73122369678E+02  0.73122369678E+02  0.00000000000E+00 0. -1.
         21   -1    0    0  501  502 -0.00000000000E+00 -0.00000000000E+00 -0.61040726014E+03  0.61040726014E+03  0.00000000000E+00 0. -1.
      99926    2    1    2    0    0  0.00000000000E+00 -0.17763568394E-14 -0.53728489046E+03  0.68352962982E+03  0.42253721886E+03 0.  0.
      99925    2    3    3    0    0  0.72595005149E+02  0.14093475550E+02 -0.39372431770E+03  0.47926067237E+03  0.26306518756E+03 0.  0.
         25    1    4    4    0    0  0.10026781797E+02 -0.24173794137E+02 -0.17065219359E+03  0.21320081602E+03  0.12509000000E+03 0.  0.
         25    1    3    3    0    0 -0.72595005149E+02 -0.14093475550E+02 -0.14356057276E+03  0.20426895745E+03  0.12509000000E+03 0.  0.
         25    1    4    4    0    0  0.62568223353E+02  0.38267269687E+02 -0.22307212411E+03  0.26605985634E+03  0.12509000000E+03 0.  0.
<mgrwt>
<rscale>  2 0.42253722E+03</rscale>
<asrwt>0</asrwt>
<pdfrwt beam="1">  1       21 0.10753289E-01 0.42253722E+03</pdfrwt>
<pdfrwt beam="2">  1       21 0.89765776E-01 0.42253722E+03</pdfrwt>
<totfact> 0.70070677E+04</totfact>
</mgrwt>
</event>
<event>
 7    0  0.4748297E-002  0.4553884E+03  0.7546771E-02  0.1026127E+00
         21   -1    0    0  502  501  0.00000000000E+00  0.00000000000E+00  0.20371900324E+04  0.20371900324E+04  0.00000000000E+00 0.  1.
         21   -1    0    0  501  502 -0.00000000000E+00 -0.00000000000E+00 -0.25449098427E+02  0.25449098427E+02  0.00000000000E+00 0.  1.
      99926    2    1    2    0    0  0.00000000000E+00 -0.71054273576E-14  0.20117409340E+04  0.20626391308E+04  0.45538840411E+03 0.  0.
      99925    2    3    3    0    0  0.88621320600E+02  0.57938448441E+02  0.10771873831E+04  0.11138248973E+04  0.26279771911E+03 0.  0.
         25    1    4    4    0    0  0.11903646772E+02  0.43913619175E+02  0.43356768529E+03  0.45354001872E+03  0.12509000000E+03 0.  0.
         25    1    4    4    0    0  0.76717673828E+02  0.14024829266E+02  0.64361969783E+03  0.66028487855E+03  0.12509000000E+03 0.  0.
         25    1    3    3    0    0 -0.88621320600E+02 -0.57938448441E+02  0.93455355088E+03  0.94881423358E+03  0.12509000000E+03 0.  0.
<mgrwt>
<rscale>  2 0.45538840E+03</rscale>
<asrwt>0</asrwt>
<pdfrwt beam="1">  1       21 0.29958666E+00 0.45538840E+03</pdfrwt>
<pdfrwt beam="2">  1       21 0.37425159E-02 0.45538840E+03</pdfrwt>
<totfact> 0.12675703E+04</totfact>
</mgrwt>
</event>
<event>
 7    0  0.4748297E-002  0.4660610E+03  0.7546771E-02  0.1023038E+00
         21   -1    0    0  502  501  0.00000000000E+00  0.00000000000E+00  0.19710064189E+03  0.19710064189E+03  0.00000000000E+00 0. -1.
         21   -1    0    0  501  502 -0.00000000000E+00 -0.00000000000E+00 -0.27551006165E+03  0.27551006165E+03  0.00000000000E+00 0. -1.
      99926    2    1    2    0    0  0.00000000000E+00 -0.14210854715E-13 -0.78409419760E+02  0.47261070354E+03  0.46606098312E+03 0.  0.
      99925    2    3    3    0    0  0.24508023670E+02 -0.11932423908E+03 -0.30225720560E+02  0.29148065571E+03  0.26307501063E+03 0.  0.
         25    1    4    4    0    0 -0.22812430135E+02 -0.35462956172E+02 -0.16308323192E+02  0.13300938965E+03  0.12509000000E+03 0.  0.
         25    1    3    3    0    0 -0.24508023670E+02  0.11932423908E+03 -0.48183699200E+02  0.18113004782E+03  0.12509000000E+03 0.  0.
         25    1    4    4    0    0  0.47320453805E+02 -0.83861282906E+02 -0.13917397368E+02  0.15847126607E+03  0.12509000000E+03 0.  0.
<mgrwt>
<rscale>  2 0.46606098E+03</rscale>
<asrwt>0</asrwt>
<pdfrwt beam="1">  1       21 0.28985388E-01 0.46606098E+03</pdfrwt>
<pdfrwt beam="2">  1       21 0.40516186E-01 0.46606098E+03</pdfrwt>
<totfact> 0.61647425E+04</totfact>
</mgrwt>
</event>
<event>
 7    0  0.4748297E-002  0.4540818E+03  0.7546771E-02  0.1026512E+00
         21   -1    0    0  502  501  0.00000000000E+00  0.00000000000E+00  0.10122761698E+03  0.10122761698E+03  0.00000000000E+00 0.  1.
         21   -1    0    0  501  502 -0.00000000000E+00 -0.00000000000E+00 -0.50922431630E+03  0.50922431630E+03  0.00000000000E+00 0.  1.
      99926    2    1    2    0    0  0.00000000000E+00  0.26645352591E-14 -0.40799669932E+03  0.61045193328E+03  0.45408177258E+03 0.  0.
      99925    2    3    3    0    0  0.11108501587E+03 -0.42484522828E+01 -0.27846499765E+03  0.39882986464E+03  0.26299158906E+03 0.  0.
         25    1    4    4    0    0  0.35333977484E+02 -0.38001217919E+02 -0.13395893164E+03  0.19048644570E+03  0.12509000000E+03 0.  0.
         25    1    3    3    0    0 -0.11108501587E+03  0.42484522828E+01 -0.12953170167E+03  0.21162206864E+03  0.12509000000E+03 0.  0.
         25    1    4    4    0    0  0.75751038386E+02  0.33752765636E+02 -0.14450606601E+03  0.20834341895E+03  0.12509000000E+03 0.  0.
<mgrwt>
<rscale>  2 0.45408177E+03</rscale>
<asrwt>0</asrwt>
<pdfrwt beam="1">  1       21 0.14886414E-01 0.45408177E+03</pdfrwt>
<pdfrwt beam="2">  1       21 0.74885928E-01 0.45408177E+03</pdfrwt>
<totfact> 0.58462363E+04</totfact>
</mgrwt>
</event>
<event>
 7    0  0.4748297E-002  0.4636104E+03  0.7546771E-02  0.1023739E+00
         21   -1    0    0  502  501  0.00000000000E+00  0.00000000000E+00  0.10538786646E+03  0.10538786646E+03  0.00000000000E+00 0.  1.
         21   -1    0    0  501  502 -0.00000000000E+00 -0.00000000000E+00 -0.50986552558E+03  0.50986552558E+03  0.00000000000E+00 0.  1.
      99926    2    1    2    0    0  0.00000000000E+00  0.00000000000E+00 -0.40447765912E+03  0.61525339204E+03  0.46361035331E+03 0.  0.
      99925    2    3    3    0    0  0.10388740731E+03  0.40130266255E+02 -0.18929836392E+03  0.34257653411E+03  0.26291021181E+03 0.  0.
         25    1    4    4    0    0  0.88567307878E+02  0.14989308031E+02 -0.78277532233E+02  0.17275337199E+03  0.12509000000E+03 0.  0.
         25    1    4    4    0    0  0.15320099433E+02  0.25140958224E+02 -0.11102083168E+03  0.16982316213E+03  0.12509000000E+03 0.  0.
         25    1    3    3    0    0 -0.10388740731E+03 -0.40130266255E+02 -0.21517929520E+03  0.27267685793E+03  0.12509000000E+03 0.  0.
<mgrwt>
<rscale>  2 0.46361035E+03</rscale>
<asrwt>0</asrwt>
<pdfrwt beam="1">  1       21 0.15498216E-01 0.46361035E+03</pdfrwt>
<pdfrwt beam="2">  1       21 0.74980224E-01 0.46361035E+03</pdfrwt>
<totfact> 0.53983189E+04</totfact>
</mgrwt>
</event>
<event>
 7    0  0.4748297E-002  0.4464681E+03  0.7546771E-02  0.1028781E+00
         21   -1    0    0  502  501  0.00000000000E+00  0.00000000000E+00  0.86533734088E+03  0.86533734088E+03  0.00000000000E+00 0.  1.
         21   -1    0    0  501  502 -0.00000000000E+00 -0.00000000000E+00 -0.57588448817E+02  0.57588448817E+02  0.00000000000E+00 0.  1.
      99926    2    1    2    0    0  0.00000000000E+00  0.17763568394E-14  0.80774889207E+03  0.92292578970E+03  0.44646807351E+03 0.  0.
      99925    2    3    3    0    0  0.91789306335E+02  0.14232858923E+02  0.41137284499E+03  0.49702752740E+03  0.26302261190E+03 0.  0.
         25    1    4    4    0    0  0.63644644201E+02 -0.37688554211E+01  0.27627897595E+03  0.30990712425E+03  0.12509000000E+03 0.  0.
         25    1    3    3    0    0 -0.91789306335E+02 -0.14232858923E+02  0.39637604708E+03  0.42589826230E+03  0.12509000000E+03 0.  0.
         25    1    4    4    0    0  0.28144662134E+02  0.18001714345E+02  0.13509386904E+03  0.18712040316E+03  0.12509000000E+03 0.  0.
<mgrwt>
<rscale>  2 0.44646807E+03</rscale>
<asrwt>0</asrwt>
<pdfrwt beam="1">  1       21 0.12725548E+00 0.44646807E+03</pdfrwt>
<pdfrwt beam="2">  1       21 0.84688901E-02 0.44646807E+03</pdfrwt>
<totfact> 0.45198958E+04</totfact>
</mgrwt>
</event>
<event>
 7    0  0.4748297E-002  0.4390049E+03  0.7546771E-02  0.1031053E+00
         21   -1    0    0  502  501  0.00000000000E+00  0.00000000000E+00  0.14289037338E+03  0.14289037338E+03  0.00000000000E+00 0.  1.
         21   -1    0    0  501  502 -0.00000000000E+00 -0.00000000000E+00 -0.33719081740E+03  0.33719081740E+03  0.00000000000E+00 0.  1.
      99926    2    1    2    0    0  0.00000000000E+00  0.00000000000E+00 -0.19430044402E+03  0.48008119077E+03  0.43900488288E+03 0.  0.
      99925    2    3    3    0    0 -0.43203380185E+02  0.87089426212E+02 -0.11789217702E+03  0.30419249988E+03  0.26302739661E+03 0.  0.
         25    1    4    4    0    0 -0.53135994608E+02  0.25663618646E+02 -0.38808626344E+02  0.14365121936E+03  0.12509000000E+03 0.  0.
         25    1    4    4    0    0  0.99326144236E+01  0.61425807567E+02 -0.79083550674E+02  0.16054128052E+03  0.12509000000E+03 0.  0.
         25    1    3    3    0    0  0.43203380185E+02 -0.87089426212E+02 -0.76408267003E+02  0.17588869089E+03  0.12509000000E+03 0.  0.
<mgrwt>
<rscale>  2 0.43900488E+03</rscale>
<asrwt>0</asrwt>
<pdfrwt beam="1">  1       21 0.21013290E-01 0.43900488E+03</pdfrwt>
<pdfrwt beam="2">  1       21 0.49586885E-01 0.43900488E+03</pdfrwt>
<totfact> 0.75881281E+04</totfact>
</mgrwt>
</event>
<event>
 6    0  0.5905747E-002  0.4358704E+03  0.7546771E-02  0.1032021E+00
         21   -1    0    0  502  501  0.00000000000E+00  0.00000000000E+00  0.25225864691E+03  0.25225864691E+03  0.00000000000E+00 0. -1.
         21   -1    0    0  501  502 -0.00000000000E+00 -0.00000000000E+00 -0.18828194748E+03  0.18828194748E+03  0.00000000000E+00 0. -1.
      99926    2    1    2    0    0  0.14210854715E-13 -0.88817841970E-15  0.63976699433E+02  0.44054059439E+03  0.43587039041E+03 0.  0.
         25    1    3    3    0    0 -0.17206422398E+01  0.39459991582E+02  0.64711485005E+02  0.14627076241E+03  0.12509000000E+03 0.  0.
         25    1    3    3    0    0  0.70803791075E+02 -0.79978648494E+01 -0.24502728381E+02  0.14603093669E+03  0.12509000000E+03 0.  0.
         25    1    3    3    0    0 -0.69083148836E+02 -0.31462126732E+02  0.23767942810E+02  0.14823889529E+03  0.12509000000E+03 0.  0.
<mgrwt>
<rscale>  2 0.43587039E+03</rscale>
<asrwt>0</asrwt>
<pdfrwt beam="1">  1       21 0.37096860E-01 0.43587039E+03</pdfrwt>
<pdfrwt beam="2">  1       21 0.27688522E-01 0.43587039E+03</pdfrwt>
<totfact> 0.81340950E+04</totfact>
</mgrwt>
</event>
<event>
 7    0  0.4748297E-002  0.4551846E+03  0.7546771E-02  0.1026187E+00
         21   -1    0    0  502  501  0.00000000000E+00  0.00000000000E+00  0.17584522235E+03  0.17584522235E+03  0.00000000000E+00 0.  1.
         21   -1    0    0  501  502 -0.00000000000E+00 -0.00000000000E+00 -0.29456734942E+03  0.29456734942E+03  0.00000000000E+00 0.  1.
      99926    2    1    2    0    0  0.14210854715E-13  0.00000000000E+00 -0.11872212707E+03  0.47041257178E+03  0.45518462653E+03 0.  0.
      99925    2    3    3    0    0  0.11042464541E+03 -0.25695395861E+02 -0.75411179832E+02  0.29612200424E+03  0.26295919772E+03 0.  0.
         25    1    4    4    0    0  0.99096756015E+02 -0.15163023647E+02 -0.43533015982E+02  0.16611055330E+03  0.12509000000E+03 0.  0.
         25    1    3    3    0    0 -0.11042464541E+03  0.25695395861E+02 -0.43310947236E+02  0.17429056754E+03  0.12509000000E+03 0.  0.
         25    1    4    4    0    0  0.11327889398E+02 -0.10532372214E+02 -0.31878163850E+02  0.13001145093E+03  0.12509000000E+03 0.  0.
<mgrwt>
<rscale>  2 0.45518463E+03</rscale>
<asrwt>0</asrwt>
<pdfrwt beam="1">  1       21 0.25859592E-01 0.45518463E+03</pdfrwt>
<pdfrwt beam="2">  1       21 0.43318727E-01 0.45518463E+03</pdfrwt>
<totfact> 0.67306403E+04</totfact>
</mgrwt>
</event>
<event>
 7    0  0.4748297E-002  0.4478589E+03  0.7546771E-02  0.1028362E+00
         21   -1    0    0  502  501  0.00000000000E+00  0.00000000000E+00  0.58820133020E+03  0.58820133020E+03  0.00000000000E+00 0. -1.
         21   -1    0    0  501  502 -0.00000000000E+00 -0.00000000000E+00 -0.85250401188E+02  0.85250401188E+02  0.00000000000E+00 0. -1.
      99926    2    1    2    0    0  0.71054273576E-14  0.00000000000E+00  0.50295092902E+03  0.67345173139E+03  0.44785890358E+03 0.  0.
      99925    2    3    3    0    0 -0.41256681203E+02  0.66554214003E+02  0.21041036271E+03  0.34579479468E+03  0.26300179114E+03 0.  0.
         25    1    4    4    0    0  0.14654514673E+02  0.11181639779E+02  0.90652935123E+02  0.15558035421E+03  0.12509000000E+03 0.  0.
         25    1    4    4    0    0 -0.55911195876E+02  0.55372574224E+02  0.11975742759E+03  0.19021444047E+03  0.12509000000E+03 0.  0.
         25    1    3    3    0    0  0.41256681203E+02 -0.66554214003E+02  0.29254056630E+03  0.32765693672E+03  0.12509000000E+03 0.  0.
<mgrwt>
<rscale>  2 0.44785890E+03</rscale>
<asrwt>0</asrwt>
<pdfrwt beam="1">  1       21 0.86500193E-01 0.44785890E+03</pdfrwt>
<pdfrwt beam="2">  1       21 0.12536824E-01 0.44785890E+03</pdfrwt>
<totfact> 0.57537208E+04</totfact>
</mgrwt>
</event>
<event>
 7    0  0.4748297E-002  0.4510980E+03  0.7546771E-02  0.1027395E+00
         21   -1    0    0  502  501  0.00000000000E+00  0.00000000000E+00  0.22087796969E+03  0.22087796969E+03  0.00000000000E+00 0. -1.
         21   -1    0    0  501  502 -0.00000000000E+00 -0.00000000000E+00 -0.23031881835E+03  0.23031881835E+03  0.00000000000E+00 0. -1.
      99926    2    1    2    0    0  0.14210854715E-13 -0.35527136788E-14 -0.94408486668E+01  0.45119678804E+03  0.45109800700E+03 0.  0.
      99925    2    3    3    0    0  0.89700998679E+02  0.18733232910E+02 -0.65733940361E+02  0.28623126603E+03  0.26307828409E+03 0.  0.
         25    1    4    4    0    0  0.71538403342E+02 -0.20294792788E+02 -0.45029149575E+02  0.15233106767E+03  0.12509000000E+03 0.  0.
         25    1    4    4    0    0  0.18162595337E+02  0.39028025698E+02 -0.20704790785E+02  0.13390019836E+03  0.12509000000E+03 0.  0.
         25    1    3    3    0    0 -0.89700998679E+02 -0.18733232910E+02  0.56293091694E+02  0.16496552201E+03  0.12509000000E+03 0.  0.
<mgrwt>
<rscale>  2 0.45109801E+03</rscale>
<asrwt>0</asrwt>
<pdfrwt beam="1">  1       21 0.32482054E-01 0.45109801E+03</pdfrwt>
<pdfrwt beam="2">  1       21 0.33870415E-01 0.45109801E+03</pdfrwt>
<totfact> 0.71010527E+04</totfact>
</mgrwt>
</event>
<event>
 7    0  0.4748297E-002  0.4539379E+03  0.7546771E-02  0.1026554E+00
         21   -1    0    0  502  501  0.00000000000E+00  0.00000000000E+00  0.10686164082E+03  0.10686164082E+03  0.00000000000E+00 0. -1.
         21   -1    0    0  501  502 -0.00000000000E+00 -0.00000000000E+00 -0.48207100793E+03  0.48207100793E+03  0.00000000000E+00 0. -1.
      99926    2    1    2    0    0  0.00000000000E+00  0.00000000000E+00 -0.37520936711E+03  0.58893264874E+03  0.45393787635E+03 0.  0.
      99925    2    3    3    0    0  0.33658076279E+02 -0.78407014763E+02 -0.14212751504E+03  0.31098448105E+03  0.26311706683E+03 0.  0.
         25    1    4    4    0    0 -0.20014927351E+02 -0.47925909235E+02 -0.52956785799E+02  0.14542839941E+03  0.12509000000E+03 0.  0.
         25    1    4    4    0    0  0.53673003630E+02 -0.30481105527E+02 -0.89170729243E+02  0.16555608164E+03  0.12509000000E+03 0.  0.
         25    1    3    3    0    0 -0.33658076279E+02  0.78407014763E+02 -0.23308185207E+03  0.27794816770E+03  0.12509000000E+03 0.  0.
<mgrwt>
<rscale>  2 0.45393788E+03</rscale>
<asrwt>0</asrwt>
<pdfrwt beam="1">  1       21 0.15714947E-01 0.45393788E+03</pdfrwt>
<pdfrwt beam="2">  1       21 0.70892796E-01 0.45393788E+03</pdfrwt>
<totfact> 0.59865689E+04</totfact>
</mgrwt>
</event>
<event>
 7    0  0.4748297E-002  0.4022334E+03  0.7546771E-02  0.1043009E+00
         21   -1    0    0  502  501  0.00000000000E+00  0.00000000000E+00  0.48332380884E+03  0.48332380884E+03  0.00000000000E+00 0. -1.
         21   -1    0    0  501  502 -0.00000000000E+00 -0.00000000000E+00 -0.83687027717E+02  0.83687027717E+02  0.00000000000E+00 0. -1.
      99926    2    1    2    0    0  0.00000000000E+00  0.00000000000E+00  0.39963678112E+03  0.56701083655E+03  0.40223342967E+03 0.  0.
      99925    2    3    3    0    0  0.17870129406E+02  0.36940101349E+02  0.22500481708E+03  0.34831528658E+03  0.26270222410E+03 0.  0.
         25    1    4    4    0    0  0.25367575740E+02  0.17376556685E+02  0.16117827771E+03  0.20632838856E+03  0.12509000000E+03 0.  0.
         25    1    4    4    0    0 -0.74974463341E+01  0.19563544664E+02  0.63826539370E+02  0.14198689802E+03  0.12509000000E+03 0.  0.
         25    1    3    3    0    0 -0.17870129406E+02 -0.36940101349E+02  0.17463196404E+03  0.21869554997E+03  0.12509000000E+03 0.  0.
<mgrwt>
<rscale>  2 0.40223343E+03</rscale>
<asrwt>0</asrwt>
<pdfrwt beam="1">  1       21 0.71077030E-01 0.40223343E+03</pdfrwt>
<pdfrwt beam="2">  1       21 0.12306916E-01 0.40223343E+03</pdfrwt>
<totfact> 0.94394115E+04</totfact>
</mgrwt>
</event>
<event>
 7    0  0.4748297E-002  0.4456162E+03  0.7546771E-02  0.1029037E+00
         21   -1    0    0  502  501  0.00000000000E+00  0.00000000000E+00  0.99429306080E+02  0.99429306080E+02  0.00000000000E+00 0.  1.
         21   -1    0    0  501  502 -0.00000000000E+00 -0.00000000000E+00 -0.49928377036E+03  0.49928377036E+03  0.00000000000E+00 0.  1.
      99926    2    1    2    0    0  0.00000000000E+00  0.00000000000E+00 -0.39985446428E+03  0.59871307644E+03  0.44561615242E+03 0.  0.
      99925    2    3    3    0    0  0.88950090826E+02  0.49682282647E+02 -0.22464693823E+03  0.36054163996E+03  0.26295166747E+03 0.  0.
         25    1    3    3    0    0 -0.88950090826E+02 -0.49682282647E+02 -0.17520752605E+03  0.23817143647E+03  0.12509000000E+03 0.  0.
         25    1    4    4    0    0  0.37341665541E+02  0.18948279207E+02 -0.59148595587E+02  0.14456659964E+03  0.12509000000E+03 0.  0.
         25    1    4    4    0    0  0.51608425285E+02  0.30734003441E+02 -0.16549834264E+03  0.21597504033E+03  0.12509000000E+03 0.  0.
<mgrwt>
<rscale>  2 0.44561615E+03</rscale>
<asrwt>0</asrwt>
<pdfrwt beam="1">  1       21 0.14621957E-01 0.44561615E+03</pdfrwt>
<pdfrwt beam="2">  1       21 0.73424081E-01 0.44561615E+03</pdfrwt>
<totfact> 0.63323610E+04</totfact>
</mgrwt>
</event>
<event>
 7    0  0.4748297E-002  0.4459193E+03  0.7546771E-02  0.1028946E+00
         21   -1    0    0  502  501  0.00000000000E+00  0.00000000000E+00  0.68398329545E+03  0.68398329545E+03  0.00000000000E+00 0. -1.
         21   -1    0    0  501  502 -0.00000000000E+00 -0.00000000000E+00 -0.72678688079E+02  0.72678688079E+02  0.00000000000E+00 0. -1.
      99926    2    1    2    0    0  0.14210854715E-13  0.00000000000E+00  0.61130460737E+03  0.75666198353E+03  0.44591931369E+03 0.  0.
      99925    2    3    3    0    0  0.65045984121E+02 -0.81322751068E+02  0.36067696927E+03  0.45782073642E+03  0.26204499737E+03 0.  0.
         25    1    3    3    0    0 -0.65045984121E+02  0.81322751068E+02  0.25062763810E+03  0.29884124711E+03  0.12509000000E+03 0.  0.
         25    1    4    4    0    0  0.35420121400E+02 -0.68219838573E+02  0.23801532268E+03  0.27965574069E+03  0.12509000000E+03 0.  0.
         25    1    4    4    0    0  0.29625862721E+02 -0.13102912496E+02  0.12266164659E+03  0.17816499573E+03  0.12509000000E+03 0.  0.
<mgrwt>
<rscale>  2 0.44591931E+03</rscale>
<asrwt>0</asrwt>
<pdfrwt beam="1">  1       21 0.10058578E+00 0.44591931E+03</pdfrwt>
<pdfrwt beam="2">  1       21 0.10688043E-01 0.44591931E+03</pdfrwt>
<totfact> 0.53656408E+04</totfact>
</mgrwt>
</event>
<event>
 7    0  0.4748297E-002  0.4252330E+03  0.7546771E-02  0.1035376E+00
         21   -1    0    0  502  501  0.00000000000E+00  0.00000000000E+00  0.15978092789E+03  0.15978092789E+03  0.00000000000E+00 0. -1.
         21   -1    0    0  501  502 -0.00000000000E+00 -0.00000000000E+00 -0.28292353532E+03  0.28292353532E+03  0.00000000000E+00 0. -1.
      99926    2    1    2    0    0  0.44408920985E-15  0.00000000000E+00 -0.12314260743E+03  0.44270446321E+03  0.42523304197E+03 0.  0.
      99925    2    3    3    0    0 -0.45375235639E+00  0.77941198804E+02 -0.10705791841E+03  0.29444367378E+03  0.26298411125E+03 0.  0.
         25    1    4    4    0    0 -0.11060429449E+02  0.49798038030E+02 -0.14319089885E+02  0.13584815835E+03  0.12509000000E+03 0.  0.
         25    1    3    3    0    0  0.45375235639E+00 -0.77941198804E+02 -0.16084689016E+02  0.14826078943E+03  0.12509000000E+03 0.  0.
         25    1    4    4    0    0  0.10606677093E+02  0.28143160774E+02 -0.92738828528E+02  0.15859551543E+03  0.12509000000E+03 0.  0.
<mgrwt>
<rscale>  2 0.42523304E+03</rscale>
<asrwt>0</asrwt>
<pdfrwt beam="1">  1       21 0.23497196E-01 0.42523304E+03</pdfrwt>
<pdfrwt beam="2">  1       21 0.41606402E-01 0.42523304E+03</pdfrwt>
<totfact> 0.88682753E+04</totfact>
</mgrwt>
</event>
<event>
 7    0  0.4748297E-002  0.4666148E+03  0.7546771E-02  0.1022880E+00
         21   -1    0    0  502  501  0.00000000000E+00  0.00000000000E+00  0.43250310556E+03  0.43250310556E+03  0.00000000000E+00 0. -1.
         21   -1    0    0  501  502 -0.00000000000E+00 -0.00000000000E+00 -0.12585420522E+03  0.12585420522E+03  0.00000000000E+00 0. -1.
      99926    2    1    2    0    0 -0.35527136788E-14 -0.17763568394E-14  0.30664890034E+03  0.55835731078E+03  0.46661476447E+03 0.  0.
      99925    2    3    3    0    0 -0.29490244340E+02  0.12017069310E+02  0.33407849238E+03  0.42639528941E+03  0.26304071795E+03 0.  0.
         25    1    3    3    0    0  0.29490244340E+02 -0.12017069310E+02 -0.27429592030E+02  0.13196202137E+03  0.12509000000E+03 0.  0.
         25    1    4    4    0    0 -0.52133936396E+02 -0.64802350325E+01  0.18838313575E+03  0.23215437688E+03  0.12509000000E+03 0.  0.
         25    1    4    4    0    0  0.22643692056E+02  0.18497304342E+02  0.14569535663E+03  0.19424091253E+03  0.12509000000E+03 0.  0.
<mgrwt>
<rscale>  2 0.46661476E+03</rscale>
<asrwt>0</asrwt>
<pdfrwt beam="1">  1       21 0.63603397E-01 0.46661476E+03</pdfrwt>
<pdfrwt beam="2">  1       21 0.18507972E-01 0.46661476E+03</pdfrwt>
<totfact> 0.55992973E+04</totfact>
</mgrwt>
</event>
<event>
 7    0  0.4748297E-002  0.4387437E+03  0.7546771E-02  0.1031133E+00
         21   -1    0    0  502  501  0.00000000000E+00  0.00000000000E+00  0.13442655821E+03  0.13442655821E+03  0.00000000000E+00 0.  1.
         21   -1    0    0  501  502 -0.00000000000E+00 -0.00000000000E+00 -0.35799487919E+03  0.35799487919E+03  0.00000000000E+00 0.  1.
      99926    2    1    2    0    0  0.00000000000E+00  0.00000000000E+00 -0.22356832098E+03  0.49242143740E+03  0.43874374966E+03 0.  0.
      99925    2    3    3    0    0  0.77582847001E+02 -0.58228006407E+02 -0.14735423159E+03  0.31673508506E+03  0.26305559424E+03 0.  0.
         25    1    4    4    0    0  0.11318423355E+02 -0.39383073965E+02 -0.38418345947E+02  0.13712261166E+03  0.12509000000E+03 0.  0.
         25    1    3    3    0    0 -0.77582847001E+02  0.58228006407E+02 -0.76214089384E+02  0.17568635234E+03  0.12509000000E+03 0.  0.
         25    1    4    4    0    0  0.66264423645E+02 -0.18844932442E+02 -0.10893588565E+03  0.17961247340E+03  0.12509000000E+03 0.  0.
<mgrwt>
<rscale>  2 0.43874375E+03</rscale>
<asrwt>0</asrwt>
<pdfrwt beam="1">  1       21 0.19768612E-01 0.43874375E+03</pdfrwt>
<pdfrwt beam="2">  1       21 0.52646306E-01 0.43874375E+03</pdfrwt>
<totfact> 0.75030749E+04</totfact>
</mgrwt>
</event>
<event>
 7    0  0.4748297E-002  0.4557124E+03  0.7546771E-02  0.1026032E+00
         21   -1    0    0  502  501  0.00000000000E+00  0.00000000000E+00  0.84471657203E+03  0.84471657203E+03  0.00000000000E+00 0.  1.
         21   -1    0    0  501  502 -0.00000000000E+00 -0.00000000000E+00 -0.61462558938E+02  0.61462558938E+02  0.00000000000E+00 0.  1.
      99926    2    1    2    0    0  0.14210854715E-13  0.00000000000E+00  0.78325401309E+03  0.90617913096E+03  0.45571237461E+03 0.  0.
      99925    2    3    3    0    0 -0.80442005349E+02 -0.48082411162E+02  0.62111402551E+03  0.68096874453E+03  0.26296951125E+03 0.  0.
         25    1    3    3    0    0  0.80442005349E+02  0.48082411162E+02  0.16213998758E+03  0.22521038644E+03  0.12509000000E+03 0.  0.
         25    1    4    4    0    0  0.87580915049E+00 -0.13123584962E+02  0.26887736829E+03  0.29684262296E+03  0.12509000000E+03 0.  0.
         25    1    4    4    0    0 -0.81317814499E+02 -0.34958826200E+02  0.35223665722E+03  0.38412612157E+03  0.12509000000E+03 0.  0.
<mgrwt>
<rscale>  2 0.45571237E+03</rscale>
<asrwt>0</asrwt>
<pdfrwt beam="1">  1       21 0.12422302E+00 0.45571237E+03</pdfrwt>
<pdfrwt beam="2">  1       21 0.90386121E-02 0.45571237E+03</pdfrwt>
<totfact> 0.42728829E+04</totfact>
</mgrwt>
</event>
<event>
 7    0  0.4748297E-002  0.4697835E+03  0.7546771E-02  0.1021981E+00
         21   -1    0    0  502  501  0.00000000000E+00  0.00000000000E+00  0.10468519803E+03  0.10468519803E+03  0.00000000000E+00 0.  1.
         21   -1    0    0  501  502 -0.00000000000E+00 -0.00000000000E+00 -0.52704801665E+03  0.52704801665E+03  0.00000000000E+00 0.  1.
      99926    2    1    2    0    0  0.00000000000E+00  0.00000000000E+00 -0.42236281862E+03  0.63173321468E+03  0.46978346498E+03 0.  0.
      99925    2    3    3    0    0  0.17431857469E+02  0.80559687900E+02 -0.39163385095E+03  0.47880999694E+03  0.26284635624E+03 0.  0.
         25    1    3    3    0    0 -0.17431857469E+02 -0.80559687900E+02 -0.30728967669E+02  0.15292321774E+03  0.12509000000E+03 0.  0.
         25    1    4    4    0    0  0.36259856268E+02  0.10831700343E+02 -0.19782288067E+03  0.23709386986E+03  0.12509000000E+03 0.  0.
         25    1    4    4    0    0 -0.18827998798E+02  0.69727987557E+02 -0.19381097029E+03  0.24171612708E+03  0.12509000000E+03 0.  0.
<mgrwt>
<rscale>  2 0.46978346E+03</rscale>
<asrwt>0</asrwt>
<pdfrwt beam="1">  1       21 0.15394882E-01 0.46978346E+03</pdfrwt>
<pdfrwt beam="2">  1       21 0.77507060E-01 0.46978346E+03</pdfrwt>
<totfact> 0.50597523E+04</totfact>
</mgrwt>
</event>
<event>
 7    0  0.4748297E-002  0.4510289E+03  0.7546771E-02  0.1027416E+00
         21   -1    0    0  502  501  0.00000000000E+00  0.00000000000E+00  0.13404419721E+03  0.13404419721E+03  0.00000000000E+00 0.  1.
         21   -1    0    0  501  502 -0.00000000000E+00 -0.00000000000E+00 -0.37940297845E+03  0.37940297845E+03  0.00000000000E+00 0.  1.
      99926    2    1    2    0    0  0.35527136788E-14 -0.19984014443E-14 -0.24535878124E+03  0.51344717566E+03  0.45102890225E+03 0.  0.
      99925    2    3    3    0    0 -0.19733496099E+02 -0.19585651570E+01 -0.32527421713E+02  0.26578219521E+03  0.26303782101E+03 0.  0.
         25    1    4    4    0    0  0.23049110314E+02 -0.20325554090E+02 -0.30132689924E+02  0.13228709966E+03  0.12509000000E+03 0.  0.
         25    1    3    3    0    0  0.19733496099E+02  0.19585651570E+01 -0.21283135953E+03  0.24766498046E+03  0.12509000000E+03 0.  0.
         25    1    4    4    0    0 -0.42782606412E+02  0.18366988933E+02 -0.23947317886E+01  0.13349509554E+03  0.12509000000E+03 0.  0.
<mgrwt>
<rscale>  2 0.45102890E+03</rscale>
<asrwt>0</asrwt>
<pdfrwt beam="1">  1       21 0.19712382E-01 0.45102890E+03</pdfrwt>
<pdfrwt beam="2">  1       21 0.55794555E-01 0.45102890E+03</pdfrwt>
<totfact> 0.66403769E+04</totfact>
</mgrwt>
</event>
<event>
 7    0  0.4748297E-002  0.4675430E+03  0.7546771E-02  0.1022616E+00
         21   -1    0    0  502  501  0.00000000000E+00  0.00000000000E+00  0.48967131919E+03  0.48967131919E+03  0.00000000000E+00 0. -1.
         21   -1    0    0  501  502 -0.00000000000E+00 -0.00000000000E+00 -0.11160367404E+03  0.11160367404E+03  0.00000000000E+00 0. -1.
      99926    2    1    2    0    0  0.00000000000E+00  0.00000000000E+00  0.37806764514E+03  0.60127499323E+03  0.46754301746E+03 0.  0.
      99925    2    3    3    0    0 -0.75795697679E+02  0.75811401970E+02  0.31697717933E+03  0.42557095352E+03  0.26295198766E+03 0.  0.
         25    1    4    4    0    0 -0.64395470130E+02  0.72521391176E+02  0.17977553835E+03  0.23952636815E+03  0.12509000000E+03 0.  0.
         25    1    4    4    0    0 -0.11400227549E+02  0.32900107939E+01  0.13720164098E+03  0.18604458537E+03  0.12509000000E+03 0.  0.
         25    1    3    3    0    0  0.75795697679E+02 -0.75811401970E+02  0.61090465817E+02  0.17570403971E+03  0.12509000000E+03 0.  0.
<mgrwt>
<rscale>  2 0.46754302E+03</rscale>
<asrwt>0</asrwt>
<pdfrwt beam="1">  1       21 0.72010487E-01 0.46754302E+03</pdfrwt>
<pdfrwt beam="2">  1       21 0.16412305E-01 0.46754302E+03</pdfrwt>
<totfact> 0.53134689E+04</totfact>
</mgrwt>
</event>
<event>
 7    0  0.4748297E-002  0.4378004E+03  0.7546771E-02  0.1031424E+00
         21   -1    0    0  502  501  0.00000000000E+00  0.00000000000E+00  0.30134431047E+03  0.30134431047E+03  0.00000000000E+00 0. -1.
         21   -1    0    0  501  502 -0.00000000000E+00 -0.00000000000E+00 -0.15901178606E+03  0.15901178606E+03  0.00000000000E+00 0. -1.
      99926    2    1    2    0    0  0.00000000000E+00 -0.11102230246E-14  0.14233252441E+03  0.46035609653E+03  0.43780039756E+03 0.  0.
      99925    2    3    3    0    0  0.96626938474E+02  0.10999949913E+01  0.10376069167E+03  0.29765001302E+03  0.26170837566E+03 0.  0.
         25    1    3    3    0    0 -0.96626938474E+02 -0.10999949913E+01  0.38571832734E+02  0.16270608350E+03  0.12509000000E+03 0.  0.
         25    1    4    4    0    0  0.77726966466E+02 -0.13523445631E+02  0.79855454936E+02  0.16807369420E+03  0.12509000000E+03 0.  0.
         25    1    4    4    0    0  0.18899972008E+02  0.14623440622E+02  0.23905236737E+02  0.12957631883E+03  0.12509000000E+03 0.  0.
<mgrwt>
<rscale>  2 0.43780040E+03</rscale>
<asrwt>0</asrwt>
<pdfrwt beam="1">  1       21 0.44315340E-01 0.43780040E+03</pdfrwt>
<pdfrwt beam="2">  1       21 0.23384086E-01 0.43780040E+03</pdfrwt>
<totfact> 0.78313373E+04</totfact>
</mgrwt>
</event>
<event>
 7    0  0.4748297E-002  0.4453444E+03  0.7546771E-02  0.1029120E+00
         21   -1    0    0  502  501  0.00000000000E+00  0.00000000000E+00  0.26182858437E+03  0.26182858437E+03  0.00000000000E+00 0. -1.
         21   -1    0    0  501  502 -0.00000000000E+00 -0.00000000000E+00 -0.18937165442E+03  0.18937165442E+03  0.00000000000E+00 0. -1.
      99926    2    1    2    0    0  0.00000000000E+00  0.00000000000E+00  0.72456929946E+02  0.45120023879E+03  0.44534441591E+03 0.  0.
      99925    2    3    3    0    0  0.88176931653E+02 -0.45752684094E+02  0.76708330661E+02  0.29140642825E+03  0.26299250760E+03 0.  0.
         25    1    4    4    0    0  0.36848138372E+02  0.16132561452E+02  0.23566358115E+02  0.13349504176E+03  0.12509000000E+03 0.  0.
         25    1    3    3    0    0 -0.88176931653E+02  0.45752684094E+02 -0.42514007155E+01  0.15979381054E+03  0.12509000000E+03 0.  0.
         25    1    4    4    0    0  0.51328793281E+02 -0.61885245545E+02  0.53141972547E+02  0.15791138649E+03  0.12509000000E+03 0.  0.
<mgrwt>
<rscale>  2 0.44534442E+03</rscale>
<asrwt>0</asrwt>
<pdfrwt beam="1">  1       21 0.38504204E-01 0.44534442E+03</pdfrwt>
<pdfrwt beam="2">  1       21 0.27848773E-01 0.44534442E+03</pdfrwt>
<totfact> 0.74391766E+04</totfact>
</mgrwt>
</event>
<event>
 7    0  0.4748297E-002  0.4457016E+03  0.7546771E-02  0.1029012E+00
         21   -1    0    0  502  501  0.00000000000E+00  0.00000000000E+00  0.47470767963E+03  0.47470767963E+03  0.00000000000E+00 0.  1.
         21   -1    0    0  501  502 -0.00000000000E+00 -0.00000000000E+00 -0.10461696994E+03  0.10461696994E+03  0.00000000000E+00 0.  1.
      99926    2    1    2    0    0  0.00000000000E+00  0.00000000000E+00  0.37009070970E+03  0.57932464957E+03  0.44570159995E+03 0.  0.
      99925    2    3    3    0    0 -0.74566565988E+02 -0.68225827257E+02  0.26962295364E+03  0.38970341032E+03  0.26259717176E+03 0.  0.
         25    1    4    4    0    0 -0.46710399632E+02 -0.83316630256E+01  0.17165023328E+03  0.21762947578E+03  0.12509000000E+03 0.  0.
         25    1    3    3    0    0  0.74566565988E+02  0.68225827257E+02  0.10046775605E+03  0.18962123925E+03  0.12509000000E+03 0.  0.
         25    1    4    4    0    0 -0.27856166355E+02 -0.59894164231E+02  0.97972720366E+02  0.17207393454E+03  0.12509000000E+03 0.  0.
<mgrwt>
<rscale>  2 0.44570160E+03</rscale>
<asrwt>0</asrwt>
<pdfrwt beam="1">  1       21 0.69809952E-01 0.44570160E+03</pdfrwt>
<pdfrwt beam="2">  1       21 0.15384849E-01 0.44570160E+03</pdfrwt>
<totfact> 0.64587773E+04</totfact>
</mgrwt>
</event>
<event>
 7    0  0.4748297E-002  0.4433575E+03  0.7546771E-02  0.1029722E+00
         21   -1    0    0  502  501  0.00000000000E+00  0.00000000000E+00  0.11912876488E+03  0.11912876488E+03  0.00000000000E+00 0. -1.
         21   -1    0    0  501  502 -0.00000000000E+00 -0.00000000000E+00 -0.41250707711E+03  0.41250707711E+03  0.00000000000E+00 0. -1.
      99926    2    1    2    0    0  0.14210854715E-13  0.17763568394E-14 -0.29337831223E+03  0.53163584198E+03  0.44335745668E+03 0.  0.
      99925    2    3    3    0    0 -0.96630613419E+02  0.13656267991E+02 -0.22237971031E+03  0.35781904567E+03  0.26278844111E+03 0.  0.
         25    1    3    3    0    0  0.96630613419E+02 -0.13656267991E+02 -0.70998601921E+02  0.17381679631E+03  0.12509000000E+03 0.  0.
         25    1    4    4    0    0 -0.56024464025E+02  0.26665243684E+02 -0.15785849717E+03  0.21075243538E+03  0.12509000000E+03 0.  0.
         25    1    4    4    0    0 -0.40606149394E+02 -0.13008975693E+02 -0.64521213139E+02  0.14706661029E+03  0.12509000000E+03 0.  0.
<mgrwt>
<rscale>  2 0.44335746E+03</rscale>
<asrwt>0</asrwt>
<pdfrwt beam="1">  1       21 0.17518935E-01 0.44335746E+03</pdfrwt>
<pdfrwt beam="2">  1       21 0.60662807E-01 0.44335746E+03</pdfrwt>
<totfact> 0.69262234E+04</totfact>
</mgrwt>
</event>
<event>
 6    0  0.1260334E-001  0.5530405E+03  0.7546771E-02  0.1000793E+00
         21   -1    0    0  502  501  0.00000000000E+00  0.00000000000E+00  0.12361344507E+04  0.12361344507E+04  0.00000000000E+00 0. -1.
         21   -1    0    0  501  502 -0.00000000000E+00 -0.00000000000E+00 -0.61856896835E+02  0.61856896835E+02  0.00000000000E+00 0. -1.
      99926    2    1    2    0    0 -0.17763568394E-14 -0.28421709430E-13  0.11742775538E+04  0.12979913475E+04  0.55304047298E+03 0.  0.
         25    1    3    3    0    0 -0.17014931525E+01 -0.18463811872E+03  0.45544289929E+03  0.50711918971E+03  0.12509000000E+03 0.  0.
         25    1    3    3    0    0  0.20091285628E+02  0.34502047128E+02  0.33370055249E+03  0.35860510014E+03  0.12509000000E+03 0.  0.
         25    1    3    3    0    0 -0.18389792476E+02  0.15013607159E+03  0.38513410204E+03  0.43226705763E+03  0.12509000000E+03 0.  0.
<mgrwt>
<rscale>  2 0.55304047E+03</rscale>
<asrwt>0</asrwt>
<pdfrwt beam="1">  1       21 0.18178446E+00 0.55304047E+03</pdfrwt>
<pdfrwt beam="2">  1       21 0.90966032E-02 0.55304047E+03</pdfrwt>
<totfact> 0.14521322E+04</totfact>
</mgrwt>
</event>
<event>
 7    0  0.4748297E-002  0.4543190E+03  0.7546771E-02  0.1026442E+00
         21   -1    0    0  502  501  0.00000000000E+00  0.00000000000E+00  0.10510561667E+04  0.10510561667E+04  0.00000000000E+00 0.  1.
         21   -1    0    0  501  502 -0.00000000000E+00 -0.00000000000E+00 -0.49094840078E+02  0.49094840078E+02  0.00000000000E+00 0.  1.
      99926    2    1    2    0    0  0.00000000000E+00  0.00000000000E+00  0.10019613266E+04  0.11001510068E+04  0.45431898230E+03 0.  0.
      99925    2    3    3    0    0 -0.23467235900E+02 -0.80350205872E+02  0.44944409508E+03  0.52749957179E+03  0.26315192740E+03 0.  0.
         25    1    4    4    0    0  0.22384256583E+02 -0.19721425329E+02  0.18610262627E+03  0.22621159379E+03  0.12509000000E+03 0.  0.
         25    1    3    3    0    0  0.23467235900E+02  0.80350205872E+02  0.55251723157E+03  0.57265143501E+03  0.12509000000E+03 0.  0.
         25    1    4    4    0    0 -0.45851492484E+02 -0.60628780544E+02  0.26334146881E+03  0.30128797800E+03  0.12509000000E+03 0.  0.
<mgrwt>
<rscale>  2 0.45431898E+03</rscale>
<asrwt>0</asrwt>
<pdfrwt beam="1">  1       21 0.15456707E+00 0.45431898E+03</pdfrwt>
<pdfrwt beam="2">  1       21 0.72198301E-02 0.45431898E+03</pdfrwt>
<totfact> 0.35678166E+04</totfact>
</mgrwt>
</event>
<event>
 7    0  0.4748297E-002  0.4554934E+03  0.7546771E-02  0.1026096E+00
         21   -1    0    0  502  501  0.00000000000E+00  0.00000000000E+00  0.13411073762E+04  0.13411073762E+04  0.00000000000E+00 0. -1.
         21   -1    0    0  501  502 -0.00000000000E+00 -0.00000000000E+00 -0.38675912172E+02  0.38675912172E+02  0.00000000000E+00 0. -1.
      99926    2    1    2    0    0  0.00000000000E+00  0.00000000000E+00  0.13024314640E+04  0.13797832883E+04  0.45549336370E+03 0.  0.
      99925    2    3    3    0    0 -0.68105268968E+02  0.85628619438E+02  0.91141364468E+03  0.95491503670E+03  0.26309182328E+03 0.  0.
         25    1    3    3    0    0  0.68105268968E+02 -0.85628619438E+02  0.39101781930E+03  0.42486825163E+03  0.12509000000E+03 0.  0.
         25    1    4    4    0    0 -0.20855095412E+02  0.44871466381E+01  0.35806389510E+03  0.37988462797E+03  0.12509000000E+03 0.  0.
         25    1    4    4    0    0 -0.47250173556E+02  0.81141472800E+02  0.55334974958E+03  0.57503040873E+03  0.12509000000E+03 0.  0.
<mgrwt>
<rscale>  2 0.45549336E+03</rscale>
<asrwt>0</asrwt>
<pdfrwt beam="1">  1       21 0.19722164E+00 0.45549336E+03</pdfrwt>
<pdfrwt beam="2">  1       21 0.56876350E-02 0.45549336E+03</pdfrwt>
<totfact> 0.26772961E+04</totfact>
</mgrwt>
</event>
<event>
 7    0  0.4748297E-002  0.4459762E+03  0.7546771E-02  0.1028929E+00
         21   -1    0    0  502  501  0.00000000000E+00  0.00000000000E+00  0.64234394885E+03  0.64234394885E+03  0.00000000000E+00 0. -1.
         21   -1    0    0  501  502 -0.00000000000E+00 -0.00000000000E+00 -0.77409750210E+02  0.77409750210E+02  0.00000000000E+00 0. -1.
      99926    2    1    2    0    0  0.00000000000E+00  0.71054273576E-14  0.56493419864E+03  0.71975369906E+03  0.44597616362E+03 0.  0.
      99925    2    3    3    0    0  0.87811881381E+02  0.56378095352E+02  0.37085295011E+03  0.46636771824E+03  0.26282602965E+03 0.  0.
         25    1    3    3    0    0 -0.87811881381E+02 -0.56378095352E+02  0.19408124853E+03  0.25338598082E+03  0.12509000000E+03 0.  0.
         25    1    4    4    0    0  0.18310329684E+02 -0.59885188065E+01  0.17277589113E+03  0.21417317103E+03  0.12509000000E+03 0.  0.
         25    1    4    4    0    0  0.69501551697E+02  0.62366614159E+02  0.19807705898E+03  0.25219454721E+03  0.12509000000E+03 0.  0.
<mgrwt>
<rscale>  2 0.44597616E+03</rscale>
<asrwt>0</asrwt>
<pdfrwt beam="1">  1       21 0.94462343E-01 0.44597616E+03</pdfrwt>
<pdfrwt beam="2">  1       21 0.11383787E-01 0.44597616E+03</pdfrwt>
<totfact> 0.55692468E+04</totfact>
</mgrwt>
</event>
<event>
 7    0  0.4748297E-002  0.4568379E+03  0.7546771E-02  0.1025702E+00
         21   -1    0    0  502  501  0.00000000000E+00  0.00000000000E+00  0.29026842954E+03  0.29026842954E+03  0.00000000000E+00 0. -1.
         21   -1    0    0  501  502 -0.00000000000E+00 -0.00000000000E+00 -0.17974818323E+03  0.17974818323E+03  0.00000000000E+00 0. -1.
      99926    2    1    2    0    0  0.00000000000E+00  0.00000000000E+00  0.11052024631E+03  0.47001661277E+03  0.45683792688E+03 0.  0.
      99925    2    3    3    0    0 -0.49107091014E+02  0.85425676060E+02  0.86887437800E+01  0.28100281559E+03  0.26301717735E+03 0.  0.
         25    1    3    3    0    0  0.49107091014E+02 -0.85425676060E+02  0.10183150253E+03  0.18901379718E+03  0.12509000000E+03 0.  0.
         25    1    4    4    0    0 -0.46323195682E+01  0.73985824024E+02 -0.13041413814E+02  0.14598954454E+03  0.12509000000E+03 0.  0.
         25    1    4    4    0    0 -0.44474771446E+02  0.11439852036E+02  0.21730157594E+02  0.13501327105E+03  0.12509000000E+03 0.  0.
<mgrwt>
<rscale>  2 0.45683793E+03</rscale>
<asrwt>0</asrwt>
<pdfrwt beam="1">  1       21 0.42686534E-01 0.45683793E+03</pdfrwt>
<pdfrwt beam="2">  1       21 0.26433556E-01 0.45683793E+03</pdfrwt>
<totfact> 0.66460297E+04</totfact>
</mgrwt>
</event>
<event>
 7    0  0.4748297E-002  0.4549224E+03  0.7546771E-02  0.1026264E+00
         21   -1    0    0  502  501  0.00000000000E+00  0.00000000000E+00  0.21918452483E+03  0.21918452483E+03  0.00000000000E+00 0.  1.
         21   -1    0    0  501  502 -0.00000000000E+00 -0.00000000000E+00 -0.23605040527E+03  0.23605040527E+03  0.00000000000E+00 0.  1.
      99926    2    1    2    0    0  0.14210854715E-13  0.00000000000E+00 -0.16865880433E+02  0.45523493010E+03  0.45492239301E+03 0.  0.
      99925    2    3    3    0    0  0.72663085180E+02  0.23169971218E+02 -0.94796182838E+02  0.28929092856E+03  0.26246171826E+03 0.  0.
         25    1    3    3    0    0 -0.72663085180E+02 -0.23169971218E+02  0.77930302406E+02  0.16594400154E+03  0.12509000000E+03 0.  0.
         25    1    4    4    0    0  0.74066077867E+02  0.21507889365E+02 -0.37373132680E+02  0.15163321649E+03  0.12509000000E+03 0.  0.
         25    1    4    4    0    0 -0.14029926871E+01  0.16620818530E+01 -0.57423050158E+02  0.13765771208E+03  0.12509000000E+03 0.  0.
<mgrwt>
<rscale>  2 0.45492239E+03</rscale>
<asrwt>0</asrwt>
<pdfrwt beam="1">  1       21 0.32233018E-01 0.45492239E+03</pdfrwt>
<pdfrwt beam="2">  1       21 0.34713295E-01 0.45492239E+03</pdfrwt>
<totfact> 0.68571052E+04</totfact>
</mgrwt>
</event>
<event>
 7    0  0.4748297E-002  0.4566143E+03  0.7546771E-02  0.1025768E+00
         21   -1    0    0  502  501  0.00000000000E+00  0.00000000000E+00  0.88896448346E+02  0.88896448346E+02  0.00000000000E+00 0. -1.
         21   -1    0    0  501  502 -0.00000000000E+00 -0.00000000000E+00 -0.58634676122E+03  0.58634676122E+03  0.00000000000E+00 0. -1.
      99926    2    1    2    0    0  0.00000000000E+00 -0.14210854715E-13 -0.49745031287E+03  0.67524320957E+03  0.45661425546E+03 0.  0.
      99925    2    3    3    0    0 -0.27883897979E+02  0.84588152139E+02 -0.41934382403E+03  0.50296204708E+03  0.26303785051E+03 0.  0.
         25    1    4    4    0    0 -0.11670341608E+02  0.31719275645E+01 -0.22062137429E+03  0.25390462165E+03  0.12509000000E+03 0.  0.
         25    1    4    4    0    0 -0.16213556370E+02  0.81416224575E+02 -0.19872244973E+03  0.24905742543E+03  0.12509000000E+03 0.  0.
         25    1    3    3    0    0  0.27883897979E+02 -0.84588152139E+02 -0.78106488846E+02  0.17228116249E+03  0.12509000000E+03 0.  0.
<mgrwt>
<rscale>  2 0.45661426E+03</rscale>
<asrwt>0</asrwt>
<pdfrwt beam="1">  1       21 0.13073008E-01 0.45661426E+03</pdfrwt>
<pdfrwt beam="2">  1       21 0.86227462E-01 0.45661426E+03</pdfrwt>
<totfact> 0.53583223E+04</totfact>
</mgrwt>
</event>
<event>
 7    0  0.4748297E-002  0.4343272E+03  0.7546771E-02  0.1032502E+00
         21   -1    0    0  502  501  0.00000000000E+00  0.00000000000E+00  0.86199361776E+02  0.86199361776E+02  0.00000000000E+00 0. -1.
         21   -1    0    0  501  502 -0.00000000000E+00 -0.00000000000E+00 -0.54710415893E+03  0.54710415893E+03  0.00000000000E+00 0. -1.
      99926    2    1    2    0    0  0.14210854715E-13  0.00000000000E+00 -0.46090479716E+03  0.63330352071E+03  0.43432720074E+03 0.  0.
      99925    2    3    3    0    0 -0.78566273823E+02 -0.35443892885E+02 -0.24690496814E+03  0.37086807371E+03  0.26296793697E+03 0.  0.
         25    1    4    4    0    0 -0.68215705415E+02  0.28235874762E+01 -0.15565166811E+03  0.21103626465E+03  0.12509000000E+03 0.  0.
         25    1    4    4    0    0 -0.10350568408E+02 -0.38267480361E+02 -0.91253300030E+02  0.15983180906E+03  0.12509000000E+03 0.  0.
         25    1    3    3    0    0  0.78566273823E+02  0.35443892885E+02 -0.21399982901E+03  0.26243544700E+03  0.12509000000E+03 0.  0.
<mgrwt>
<rscale>  2 0.43432720E+03</rscale>
<asrwt>0</asrwt>
<pdfrwt beam="1">  1       21 0.12676377E-01 0.43432720E+03</pdfrwt>
<pdfrwt beam="2">  1       21 0.80456492E-01 0.43432720E+03</pdfrwt>
<totfact> 0.66943927E+04</totfact>
</mgrwt>
</event>
<event>
 7    0  0.4748297E-002  0.4551761E+03  0.7546771E-02  0.1026190E+00
         21   -1    0    0  502  501  0.00000000000E+00  0.00000000000E+00  0.12898804182E+03  0.12898804182E+03  0.00000000000E+00 0. -1.
         21   -1    0    0  501  502 -0.00000000000E+00 -0.00000000000E+00 -0.40155910385E+03  0.40155910385E+03  0.00000000000E+00 0. -1.
      99926    2    1    2    0    0  0.00000000000E+00  0.00000000000E+00 -0.27257106203E+03  0.53054714567E+03  0.45517610870E+03 0.  0.
      99925    2    3    3    0    0  0.65551594874E+02  0.16763711916E+02 -0.27746099637E+03  0.38824657229E+03  0.26300715344E+03 0.  0.
         25    1    4    4    0    0  0.68579822673E+02  0.19489543157E+02 -0.17412829120E+03  0.22594513553E+03  0.12509000000E+03 0.  0.
         25    1    4    4    0    0 -0.30282277991E+01 -0.27258312409E+01 -0.10333270516E+03  0.16230143676E+03  0.12509000000E+03 0.  0.
         25    1    3    3    0    0 -0.65551594874E+02 -0.16763711916E+02  0.48899343349E+01  0.14230057338E+03  0.12509000000E+03 0.  0.
<mgrwt>
<rscale>  2 0.45517611E+03</rscale>
<asrwt>0</asrwt>
<pdfrwt beam="1">  1       21 0.18968830E-01 0.45517611E+03</pdfrwt>
<pdfrwt beam="2">  1       21 0.59052810E-01 0.45517611E+03</pdfrwt>
<totfact> 0.63081405E+04</totfact>
</mgrwt>
</event>
<event>
 7    0  0.4748297E-002  0.4551848E+03  0.7546771E-02  0.1026187E+00
         21   -1    0    0  502  501  0.00000000000E+00  0.00000000000E+00  0.35255290420E+02  0.35255290420E+02  0.00000000000E+00 0. -1.
         21   -1    0    0  501  502 -0.00000000000E+00 -0.00000000000E+00 -0.14692349068E+04  0.14692349068E+04  0.00000000000E+00 0. -1.
      99926    2    1    2    0    0  0.00000000000E+00 -0.35527136788E-14 -0.14339796164E+04  0.15044901972E+04  0.45518481229E+03 0.  0.
      99925    2    3    3    0    0  0.10191095326E+03 -0.17472077548E+02 -0.74843006228E+03  0.79999263504E+03  0.26296300521E+03 0.  0.
         25    1    3    3    0    0 -0.10191095326E+03  0.17472077548E+02 -0.68554955411E+03  0.70449756219E+03  0.12509000000E+03 0.  0.
         25    1    4    4    0    0  0.69068409462E+02 -0.44243121458E+02 -0.36539898585E+03  0.39483138925E+03  0.12509000000E+03 0.  0.
         25    1    4    4    0    0  0.32842543801E+02  0.26771043910E+02 -0.38303107643E+03  0.40516124578E+03  0.12509000000E+03 0.  0.
<mgrwt>
<rscale>  2 0.45518481E+03</rscale>
<asrwt>0</asrwt>
<pdfrwt beam="1">  1       21 0.51846017E-02 0.45518481E+03</pdfrwt>
<pdfrwt beam="2">  1       21 0.21606395E+00 0.45518481E+03</pdfrwt>
<totfact> 0.23635338E+04</totfact>
</mgrwt>
</event>
<event>
 7    0  0.4748297E-002  0.4546696E+03  0.7546771E-02  0.1026339E+00
         21   -1    0    0  502  501  0.00000000000E+00  0.00000000000E+00  0.21260548462E+03  0.21260548462E+03  0.00000000000E+00 0. -1.
         21   -1    0    0  501  502 -0.00000000000E+00 -0.00000000000E+00 -0.24308460010E+03  0.24308460010E+03  0.00000000000E+00 0. -1.
      99926    2    1    2    0    0  0.00000000000E+00  0.00000000000E+00 -0.30479115478E+02  0.45569008471E+03  0.45466963482E+03 0.  0.
      99925    2    3    3    0    0 -0.41538794420E+02  0.22578790043E+01  0.86002188550E+02  0.27977541293E+03  0.26295881006E+03 0.  0.
         25    1    3    3    0    0  0.41538794420E+02 -0.22578790043E+01 -0.11648130403E+03  0.17591467178E+03  0.12509000000E+03 0.  0.
         25    1    4    4    0    0  0.16647084810E+02  0.49556835754E+01  0.58018203525E+02  0.13897951026E+03  0.12509000000E+03 0.  0.
         25    1    4    4    0    0 -0.58185879230E+02 -0.26978045710E+01  0.27983985026E+02  0.14079590267E+03  0.12509000000E+03 0.  0.
<mgrwt>
<rscale>  2 0.45466963E+03</rscale>
<asrwt>0</asrwt>
<pdfrwt beam="1">  1       21 0.31265513E-01 0.45466963E+03</pdfrwt>
<pdfrwt beam="2">  1       21 0.35747735E-01 0.45466963E+03</pdfrwt>
<totfact> 0.68676149E+04</totfact>
</mgrwt>
</event>
<event>
 7    0  0.4748297E-002  0.4559392E+03  0.7546771E-02  0.1025966E+00
         21   -1    0    0  502  501  0.00000000000E+00  0.00000000000E+00  0.25070560095E+03  0.25070560095E+03  0.00000000000E+00 0. -1.
         21   -1    0    0  501  502 -0.00000000000E+00 -0.00000000000E+00 -0.20729546903E+03  0.20729546903E+03  0.00000000000E+00 0. -1.
      99926    2    1    2    0    0 -0.17763568394E-14 -0.71054273576E-14  0.43410131915E+02  0.45800106998E+03  0.45593918514E+03 0.  0.
      99925    2    3    3    0    0  0.66132304844E+01 -0.50745734914E+02  0.12964822296E+03  0.29767833024E+03  0.26303015444E+03 0.  0.
         25    1    4    4    0    0  0.29445916391E+02  0.53769366623E+01  0.69910937586E+02  0.14639337667E+03  0.12509000000E+03 0.  0.
         25    1    3    3    0    0 -0.66132304844E+01  0.50745734914E+02 -0.86238091049E+02  0.16032273974E+03  0.12509000000E+03 0.  0.
         25    1    4    4    0    0 -0.22832685907E+02 -0.56122671577E+02  0.59737285379E+02  0.15128495356E+03  0.12509000000E+03 0.  0.
<mgrwt>
<rscale>  2 0.45593919E+03</rscale>
<asrwt>0</asrwt>
<pdfrwt beam="1">  1       21 0.36868471E-01 0.45593919E+03</pdfrwt>
<pdfrwt beam="2">  1       21 0.30484628E-01 0.45593919E+03</pdfrwt>
<totfact> 0.67816895E+04</totfact>
</mgrwt>
</event>
<event>
 7    0  0.4748297E-002  0.4786362E+03  0.7546771E-02  0.1019511E+00
         21   -1    0    0  502  501  0.00000000000E+00  0.00000000000E+00  0.33717645980E+03  0.33717645980E+03  0.00000000000E+00 0. -1.
         21   -1    0    0  501  502 -0.00000000000E+00 -0.00000000000E+00 -0.16986105189E+03  0.16986105189E+03  0.00000000000E+00 0. -1.
      99926    2    1    2    0    0 -0.17763568394E-14  0.00000000000E+00  0.16731540791E+03  0.50703751170E+03  0.47863617973E+03 0.  0.
      99925    2    3    3    0    0  0.12298315686E+02 -0.68464647621E+02 -0.18705410219E+02  0.27232511445E+03  0.26262600604E+03 0.  0.
         25    1    4    4    0    0  0.44305908951E+02 -0.45839334455E+02 -0.45052506352E+01  0.14047086365E+03  0.12509000000E+03 0.  0.
         25    1    3    3    0    0 -0.12298315686E+02  0.68464647621E+02  0.18602081813E+03  0.23471239724E+03  0.12509000000E+03 0.  0.
         25    1    4    4    0    0 -0.32007593265E+02 -0.22625313166E+02 -0.14200159584E+02  0.13185425080E+03  0.12509000000E+03 0.  0.
<mgrwt>
<rscale>  2 0.47863618E+03</rscale>
<asrwt>0</asrwt>
<pdfrwt beam="1">  1       21 0.49584774E-01 0.47863618E+03</pdfrwt>
<pdfrwt beam="2">  1       21 0.24979566E-01 0.47863618E+03</pdfrwt>
<totfact> 0.53927704E+04</totfact>
</mgrwt>
</event>
<event>
 7    0  0.4748297E-002  0.4921916E+03  0.7546771E-02  0.1015837E+00
         21   -1    0    0  502  501  0.00000000000E+00  0.00000000000E+00  0.25024244733E+04  0.25024244733E+04  0.00000000000E+00 0.  1.
         21   -1    0    0  501  502 -0.00000000000E+00 -0.00000000000E+00 -0.24201791204E+02  0.24201791204E+02  0.00000000000E+00 0.  1.
      99926    2    1    2    0    0  0.00000000000E+00 -0.14210854715E-13  0.24782226821E+04  0.25266262645E+04  0.49219164807E+03 0.  0.
      99925    2    3    3    0    0 -0.98509164958E+02  0.10475425511E+03  0.16204732425E+04  0.16479573173E+04  0.26296821187E+03 0.  0.
         25    1    4    4    0    0 -0.82607797003E+02  0.80066585182E+02  0.99710827173E+03  0.10114875777E+04  0.12509000000E+03 0.  0.
         25    1    3    3    0    0  0.98509164958E+02 -0.10475425511E+03  0.85774943952E+03  0.87866894712E+03  0.12509000000E+03 0.  0.
         25    1    4    4    0    0 -0.15901367956E+02  0.24687669932E+02  0.62336497081E+03  0.63646973964E+03  0.12509000000E+03 0.  0.
<mgrwt>
<rscale>  2 0.49219165E+03</rscale>
<asrwt>0</asrwt>
<pdfrwt beam="1">  1       21 0.36800342E+00 0.49219165E+03</pdfrwt>
<pdfrwt beam="2">  1       21 0.35590886E-02 0.49219165E+03</pdfrwt>
<totfact> 0.51917797E+03</totfact>
</mgrwt>
</event>
<event>
 7    0  0.4748297E-002  0.4539105E+03  0.7546771E-02  0.1026562E+00
         21   -1    0    0  502  501  0.00000000000E+00  0.00000000000E+00  0.45548333607E+03  0.45548333607E+03  0.00000000000E+00 0.  1.
         21   -1    0    0  501  502 -0.00000000000E+00 -0.00000000000E+00 -0.11308578539E+03  0.11308578539E+03  0.00000000000E+00 0.  1.
      99926    2    1    2    0    0  0.17763568394E-14  0.14210854715E-13  0.34239755068E+03  0.56856912146E+03  0.45391052331E+03 0.  0.
      99925    2    3    3    0    0 -0.13204585118E+02  0.11086858454E+03  0.22897828212E+03  0.36613976913E+03  0.26298492875E+03 0.  0.
         25    1    3    3    0    0  0.13204585118E+02 -0.11086858454E+03  0.11341926855E+03  0.20242935233E+03  0.12509000000E+03 0.  0.
         25    1    4    4    0    0  0.28247726351E+02  0.42089592791E+02  0.13110550738E+03  0.18816383827E+03  0.12509000000E+03 0.  0.
         25    1    4    4    0    0 -0.41452311469E+02  0.68778991748E+02  0.97872774743E+02  0.17797593087E+03  0.12509000000E+03 0.  0.
<mgrwt>
<rscale>  2 0.45391052E+03</rscale>
<asrwt>0</asrwt>
<pdfrwt beam="1">  1       21 0.66982842E-01 0.45391052E+03</pdfrwt>
<pdfrwt beam="2">  1       21 0.16630263E-01 0.45391052E+03</pdfrwt>
<totfact> 0.61181288E+04</totfact>
</mgrwt>
</event>
<event>
 7    0  0.4748297E-002  0.4543946E+03  0.7546771E-02  0.1026420E+00
         21   -1    0    0  502  501  0.00000000000E+00  0.00000000000E+00  0.18892763171E+04  0.18892763171E+04  0.00000000000E+00 0.  1.
         21   -1    0    0  501  502 -0.00000000000E+00 -0.00000000000E+00 -0.27321894480E+02  0.27321894480E+02  0.00000000000E+00 0.  1.
      99926    2    1    2    0    0  0.00000000000E+00  0.00000000000E+00  0.18619544226E+04  0.19165982116E+04  0.45439457822E+03 0.  0.
      99925    2    3    3    0    0 -0.59691999183E+02 -0.95388144491E+02  0.11649177346E+04  0.11995419478E+04  0.26306942673E+03 0.  0.
         25    1    3    3    0    0  0.59691999183E+02  0.95388144491E+02  0.69703668809E+03  0.71705626385E+03  0.12509000000E+03 0.  0.
         25    1    4    4    0    0  0.75981264326E+01 -0.45414292218E+02  0.62256595081E+03  0.63667578930E+03  0.12509000000E+03 0.  0.
         25    1    4    4    0    0 -0.67290125616E+02 -0.49973852272E+02  0.54235178374E+03  0.56286615847E+03  0.12509000000E+03 0.  0.
<mgrwt>
<rscale>  2 0.45439458E+03</rscale>
<asrwt>0</asrwt>
<pdfrwt beam="1">  1       21 0.27783466E+00 0.45439458E+03</pdfrwt>
<pdfrwt beam="2">  1       21 0.40179270E-02 0.45439458E+03</pdfrwt>
<totfact> 0.15190826E+04</totfact>
</mgrwt>
</event>
<event>
 7    0  0.4748297E-002  0.4108328E+03  0.7546771E-02  0.1040092E+00
         21   -1    0    0  502  501  0.00000000000E+00  0.00000000000E+00  0.23576081209E+03  0.23576081209E+03  0.00000000000E+00 0. -1.
         21   -1    0    0  501  502 -0.00000000000E+00 -0.00000000000E+00 -0.17897758885E+03  0.17897758885E+03  0.00000000000E+00 0. -1.
      99926    2    1    2    0    0  0.17763568394E-14  0.35527136788E-14  0.56783223247E+02  0.41473840094E+03  0.41083282095E+03 0.  0.
      99925    2    3    3    0    0  0.11514259635E+02  0.29672602684E+02 -0.18075533080E+02  0.26552585782E+03  0.26299090241E+03 0.  0.
         25    1    3    3    0    0 -0.11514259635E+02 -0.29672602684E+02  0.74858756327E+02  0.14921254312E+03  0.12509000000E+03 0.  0.
         25    1    4    4    0    0  0.27149411527E+02  0.41349380502E+02 -0.31675663523E+02  0.13819449184E+03  0.12509000000E+03 0.  0.
         25    1    4    4    0    0 -0.15635151893E+02 -0.11676777818E+02  0.13600130442E+02  0.12733136598E+03  0.12509000000E+03 0.  0.
<mgrwt>
<rscale>  2 0.41083282E+03</rscale>
<asrwt>0</asrwt>
<pdfrwt beam="1">  1       21 0.34670707E-01 0.41083282E+03</pdfrwt>
<pdfrwt beam="2">  1       21 0.26320234E-01 0.41083282E+03</pdfrwt>
<totfact> 0.10355273E+05</totfact>
</mgrwt>
</event>
<event>
 7    0  0.4748297E-002  0.4525730E+03  0.7546771E-02  0.1026958E+00
         21   -1    0    0  502  501  0.00000000000E+00  0.00000000000E+00  0.52134580880E+03  0.52134580880E+03  0.00000000000E+00 0.  1.
         21   -1    0    0  501  502 -0.00000000000E+00 -0.00000000000E+00 -0.98218069472E+02  0.98218069472E+02  0.00000000000E+00 0.  1.
      99926    2    1    2    0    0  0.00000000000E+00  0.35527136788E-14  0.42312773933E+03  0.61956387827E+03  0.45257299463E+03 0.  0.
      99925    2    3    3    0    0 -0.40826062296E+00 -0.24350892765E+02  0.11897421683E+03  0.28979122021E+03  0.26311775764E+03 0.  0.
         25    1    4    4    0    0  0.59560123828E+01  0.11457752818E+02  0.94351312077E+02  0.15721460611E+03  0.12509000000E+03 0.  0.
         25    1    3    3    0    0  0.40826062296E+00  0.24350892765E+02  0.30415352249E+03  0.32977265806E+03  0.12509000000E+03 0.  0.
         25    1    4    4    0    0 -0.63642730058E+01 -0.35808645582E+02  0.24622904754E+02  0.13257661411E+03  0.12509000000E+03 0.  0.
<mgrwt>
<rscale>  2 0.45257299E+03</rscale>
<asrwt>0</asrwt>
<pdfrwt beam="1">  1       21 0.76668500E-01 0.45257299E+03</pdfrwt>
<pdfrwt beam="2">  1       21 0.14443834E-01 0.45257299E+03</pdfrwt>
<totfact> 0.58605045E+04</totfact>
</mgrwt>
</event>
<event>
 7    0  0.4748297E-002  0.4536427E+03  0.7546771E-02  0.1026641E+00
         21   -1    0    0  502  501  0.00000000000E+00  0.00000000000E+00  0.15974737192E+04  0.15974737192E+04  0.00000000000E+00 0.  1.
         21   -1    0    0  501  502 -0.00000000000E+00 -0.00000000000E+00 -0.32205796677E+02  0.32205796677E+02  0.00000000000E+00 0.  1.
      99926    2    1    2    0    0 -0.71054273576E-14 -0.20816681712E-15  0.15652679225E+04  0.16296795159E+04  0.45364265143E+03 0.  0.
      99925    2    3    3    0    0  0.60389620794E+02  0.12430359017E+00  0.64774579226E+03  0.70170252835E+03  0.26299221501E+03 0.  0.
         25    1    3    3    0    0 -0.60389620794E+02 -0.12430359017E+00  0.91752213028E+03  0.92797698754E+03  0.12509000000E+03 0.  0.
         25    1    4    4    0    0  0.63970121048E+02 -0.22605841110E+02  0.35964733830E+03  0.38677760597E+03  0.12509000000E+03 0.  0.
         25    1    4    4    0    0 -0.35805002541E+01  0.22730144700E+02  0.28809845396E+03  0.31492492238E+03  0.12509000000E+03 0.  0.
<mgrwt>
<rscale>  2 0.45364265E+03</rscale>
<asrwt>0</asrwt>
<pdfrwt beam="1">  1       21 0.23492255E+00 0.45364265E+03</pdfrwt>
<pdfrwt beam="2">  1       21 0.47361476E-02 0.45364265E+03</pdfrwt>
<totfact> 0.20987654E+04</totfact>
</mgrwt>
</event>
<event>
 7    0  0.4748297E-002  0.4543440E+03  0.7546771E-02  0.1026434E+00
         21   -1    0    0  502  501  0.00000000000E+00  0.00000000000E+00  0.94900447567E+02  0.94900447567E+02  0.00000000000E+00 0. -1.
         21   -1    0    0  501  502 -0.00000000000E+00 -0.00000000000E+00 -0.54380272724E+03  0.54380272724E+03  0.00000000000E+00 0. -1.
      99926    2    1    2    0    0  0.00000000000E+00  0.00000000000E+00 -0.44890227967E+03  0.63870317480E+03  0.45434402033E+03 0.  0.
      99925    2    3    3    0    0 -0.19067522149E+02  0.11077718659E+03 -0.29016577231E+03  0.40744586716E+03  0.26302243968E+03 0.  0.
         25    1    3    3    0    0  0.19067522149E+02 -0.11077718659E+03 -0.15873650736E+03  0.23125730764E+03  0.12509000000E+03 0.  0.
         25    1    4    4    0    0 -0.16168204076E+02  0.85414949290E+02 -0.11585206072E+03  0.19138007330E+03  0.12509000000E+03 0.  0.
         25    1    4    4    0    0 -0.28993180731E+01  0.25362237299E+02 -0.17431371159E+03  0.21606579386E+03  0.12509000000E+03 0.  0.
<mgrwt>
<rscale>  2 0.45434402E+03</rscale>
<asrwt>0</asrwt>
<pdfrwt beam="1">  1       21 0.13955948E-01 0.45434402E+03</pdfrwt>
<pdfrwt beam="2">  1       21 0.79970990E-01 0.45434402E+03</pdfrwt>
<totfact> 0.56649735E+04</totfact>
</mgrwt>
</event>
<event>
 7    0  0.4748297E-002  0.4578774E+03  0.7546771E-02  0.1025399E+00
         21   -1    0    0  502  501  0.00000000000E+00  0.00000000000E+00  0.11043432971E+04  0.11043432971E+04  0.00000000000E+00 0.  1.
         21   -1    0    0  501  502 -0.00000000000E+00 -0.00000000000E+00 -0.47460720649E+02  0.47460720649E+02  0.00000000000E+00 0.  1.
      99926    2    1    2    0    0  0.00000000000E+00  0.15543122345E-14  0.10568825764E+04  0.11518040177E+04  0.45787740160E+03 0.  0.
      99925    2    3    3    0    0 -0.10690045120E+03  0.19269630659E+01  0.55166192497E+03  0.62045965254E+03  0.26307390847E+03 0.  0.
         25    1    4    4    0    0 -0.86673116718E+02 -0.22360771200E+02  0.32738535818E+03  0.36171938585E+03  0.12509000000E+03 0.  0.
         25    1    4    4    0    0 -0.20227334480E+02  0.24287734265E+02  0.22427656678E+03  0.25874026668E+03  0.12509000000E+03 0.  0.
         25    1    3    3    0    0  0.10690045120E+03 -0.19269630659E+01  0.50522065145E+03  0.53134436518E+03  0.12509000000E+03 0.  0.
<mgrwt>
<rscale>  2 0.45787740E+03</rscale>
<asrwt>0</asrwt>
<pdfrwt beam="1">  1       21 0.16240341E+00 0.45787740E+03</pdfrwt>
<pdfrwt beam="2">  1       21 0.69795185E-02 0.45787740E+03</pdfrwt>
<totfact> 0.32976461E+04</totfact>
</mgrwt>
</event>
<event>
 7    0  0.4748297E-002  0.4538313E+03  0.7546771E-02  0.1026586E+00
         21   -1    0    0  502  501  0.00000000000E+00  0.00000000000E+00  0.35915083549E+03  0.35915083549E+03  0.00000000000E+00 0. -1.
         21   -1    0    0  501  502 -0.00000000000E+00 -0.00000000000E+00 -0.14336791961E+03  0.14336791961E+03  0.00000000000E+00 0. -1.
      99926    2    1    2    0    0  0.44408920985E-15  0.00000000000E+00  0.21578291588E+03  0.50251875510E+03  0.45383128192E+03 0.  0.
      99925    2    3    3    0    0 -0.29014054025E+01 -0.79182559828E+02  0.48123984312E+02  0.27883299031E+03  0.26297076394E+03 0.  0.
         25    1    3    3    0    0  0.29014054025E+01  0.79182559828E+02  0.16765893157E+03  0.22368576479E+03  0.12509000000E+03 0.  0.
         25    1    4    4    0    0 -0.24958099168E+02 -0.51624935287E+02  0.56125248341E+02  0.14861222109E+03  0.12509000000E+03 0.  0.
         25    1    4    4    0    0  0.22056693765E+02 -0.27557624541E+02 -0.80012640285E+01  0.13022076922E+03  0.12509000000E+03 0.  0.
<mgrwt>
<rscale>  2 0.45383128E+03</rscale>
<asrwt>0</asrwt>
<pdfrwt beam="1">  1       21 0.52816299E-01 0.45383128E+03</pdfrwt>
<pdfrwt beam="2">  1       21 0.21083518E-01 0.45383128E+03</pdfrwt>
<totfact> 0.65701460E+04</totfact>
</mgrwt>
</event>
<event>
 7    0  0.4748297E-002  0.4530286E+03  0.7546771E-02  0.1026823E+00
         21   -1    0    0  502  501  0.00000000000E+00  0.00000000000E+00  0.26717719246E+02  0.26717719246E+02  0.00000000000E+00 0. -1.
         21   -1    0    0  501  502 -0.00000000000E+00 -0.00000000000E+00 -0.19204006028E+04  0.19204006028E+04  0.00000000000E+00 0. -1.
      99926    2    1    2    0    0 -0.22204460493E-14  0.00000000000E+00 -0.18936828835E+04  0.19471183220E+04  0.45302858252E+03 0.  0.
      99925    2    3    3    0    0 -0.26594662945E+01 -0.72438090667E+02 -0.83228742402E+03  0.87592171107E+03  0.26321500339E+03 0.  0.
         25    1    3    3    0    0  0.26594662945E+01  0.72438090667E+02 -0.10613954595E+04  0.10711966109E+04  0.12509000000E+03 0.  0.
         25    1    4    4    0    0 -0.41475891361E+02 -0.37720307459E+02 -0.39376447862E+03  0.41694249470E+03  0.12509000000E+03 0.  0.
         25    1    4    4    0    0  0.38816425066E+02 -0.34717783208E+02 -0.43852294539E+03  0.45897921637E+03  0.12509000000E+03 0.  0.
<mgrwt>
<rscale>  2 0.45302858E+03</rscale>
<asrwt>0</asrwt>
<pdfrwt beam="1">  1       21 0.39290755E-02 0.45302858E+03</pdfrwt>
<pdfrwt beam="2">  1       21 0.28241192E+00 0.45302858E+03</pdfrwt>
<totfact> 0.14818058E+04</totfact>
</mgrwt>
</event>
<event>
 7    0  0.4748297E-002  0.4540418E+03  0.7546771E-02  0.1026524E+00
         21   -1    0    0  502  501  0.00000000000E+00  0.00000000000E+00  0.41617577933E+03  0.41617577933E+03  0.00000000000E+00 0. -1.
         21   -1    0    0  501  502 -0.00000000000E+00 -0.00000000000E+00 -0.12383827116E+03  0.12383827116E+03  0.00000000000E+00 0. -1.
      99926    2    1    2    0    0  0.00000000000E+00  0.00000000000E+00  0.29233750817E+03  0.54001405049E+03  0.45404179989E+03 0.  0.
      99925    2    3    3    0    0  0.94601108700E+02 -0.49778613983E+02  0.22447045878E+03  0.36202325109E+03  0.26314742501E+03 0.  0.
         25    1    4    4    0    0  0.51579325634E+02 -0.14233977149E+02  0.16178195813E+03  0.21138576824E+03  0.12509000000E+03 0.  0.
         25    1    3    3    0    0 -0.94601108700E+02  0.49778613983E+02  0.67867049386E+02  0.17799079940E+03  0.12509000000E+03 0.  0.
         25    1    4    4    0    0  0.43021783066E+02 -0.35544636834E+02  0.62688500652E+02  0.15063748285E+03  0.12509000000E+03 0.  0.
<mgrwt>
<rscale>  2 0.45404180E+03</rscale>
<asrwt>0</asrwt>
<pdfrwt beam="1">  1       21 0.61202320E-01 0.45404180E+03</pdfrwt>
<pdfrwt beam="2">  1       21 0.18211511E-01 0.45404180E+03</pdfrwt>
<totfact> 0.63007691E+04</totfact>
</mgrwt>
</event>
<event>
 7    0  0.4748297E-002  0.4557648E+03  0.7546771E-02  0.1026017E+00
         21   -1    0    0  502  501  0.00000000000E+00  0.00000000000E+00  0.17044367806E+03  0.17044367806E+03  0.00000000000E+00 0.  1.
         21   -1    0    0  501  502 -0.00000000000E+00 -0.00000000000E+00 -0.30467774933E+03  0.30467774933E+03  0.00000000000E+00 0.  1.
      99926    2    1    2    0    0  0.00000000000E+00 -0.71054273576E-14 -0.13423407127E+03  0.47512142740E+03  0.45576483507E+03 0.  0.
      99925    2    3    3    0    0 -0.95393849866E+02  0.53396359479E+02 -0.51393329359E+02  0.28948400009E+03  0.26307518737E+03 0.  0.
         25    1    3    3    0    0  0.95393849866E+02 -0.53396359479E+02 -0.82840741910E+02  0.18563742731E+03  0.12509000000E+03 0.  0.
         25    1    4    4    0    0 -0.71711077431E+02  0.46552287745E+02 -0.56954059945E+02  0.16186681922E+03  0.12509000000E+03 0.  0.
         25    1    4    4    0    0 -0.23682772436E+02  0.68440717334E+01  0.55607305852E+01  0.12761718087E+03  0.12509000000E+03 0.  0.
<mgrwt>
<rscale>  2 0.45576484E+03</rscale>
<asrwt>0</asrwt>
<pdfrwt beam="1">  1       21 0.25065247E-01 0.45576484E+03</pdfrwt>
<pdfrwt beam="2">  1       21 0.44805551E-01 0.45576484E+03</pdfrwt>
<totfact> 0.66651524E+04</totfact>
</mgrwt>
</event>
<event>
 7    0  0.4748297E-002  0.4702692E+03  0.7546771E-02  0.1021844E+00
         21   -1    0    0  502  501  0.00000000000E+00  0.00000000000E+00  0.44128632559E+03  0.44128632559E+03  0.00000000000E+00 0. -1.
         21   -1    0    0  501  502 -0.00000000000E+00 -0.00000000000E+00 -0.12528889422E+03  0.12528889422E+03  0.00000000000E+00 0. -1.
      99926    2    1    2    0    0  0.00000000000E+00  0.00000000000E+00  0.31599743137E+03  0.56657521981E+03  0.47026918151E+03 0.  0.
      99925    2    3    3    0    0 -0.67030613183E+02 -0.10338652628E+03  0.15949019374E+03  0.33136488745E+03  0.26302792592E+03 0.  0.
         25    1    4    4    0    0 -0.10735181812E+02 -0.78785869700E+02  0.10538616934E+03  0.18186866190E+03  0.12509000000E+03 0.  0.
         25    1    3    3    0    0  0.67030613183E+02  0.10338652628E+03  0.15650723763E+03  0.23521033236E+03  0.12509000000E+03 0.  0.
         25    1    4    4    0    0 -0.56295431370E+02 -0.24600656583E+02  0.54104024400E+02  0.14949622555E+03  0.12509000000E+03 0.  0.
<mgrwt>
<rscale>  2 0.47026918E+03</rscale>
<asrwt>0</asrwt>
<pdfrwt beam="1">  1       21 0.64895047E-01 0.47026918E+03</pdfrwt>
<pdfrwt beam="2">  1       21 0.18424838E-01 0.47026918E+03</pdfrwt>
<totfact> 0.53965927E+04</totfact>
</mgrwt>
</event>
<event>
 7    0  0.4748297E-002  0.4553175E+03  0.7546771E-02  0.1026148E+00
         21   -1    0    0  502  501  0.00000000000E+00  0.00000000000E+00  0.24314171082E+03  0.24314171082E+03  0.00000000000E+00 0.  1.
         21   -1    0    0  501  502 -0.00000000000E+00 -0.00000000000E+00 -0.21316174785E+03  0.21316174785E+03  0.00000000000E+00 0.  1.
      99926    2    1    2    0    0  0.00000000000E+00  0.00000000000E+00  0.29979962972E+02  0.45630345867E+03  0.45531752461E+03 0.  0.
      99925    2    3    3    0    0  0.53399089025E+02  0.97013231786E+02 -0.36033085669E+01  0.28589696209E+03  0.26355466083E+03 0.  0.
         25    1    4    4    0    0  0.16658978555E+02  0.43012678491E+02  0.38258003227E+02  0.13870398332E+03  0.12509000000E+03 0.  0.
         25    1    4    4    0    0  0.36740110470E+02  0.54000553295E+02 -0.41861311794E+02  0.14719297877E+03  0.12509000000E+03 0.  0.
         25    1    3    3    0    0 -0.53399089025E+02 -0.97013231786E+02  0.33583271539E+02  0.17040649658E+03  0.12509000000E+03 0.  0.
<mgrwt>
<rscale>  2 0.45531752E+03</rscale>
<asrwt>0</asrwt>
<pdfrwt beam="1">  1       21 0.35756134E-01 0.45531752E+03</pdfrwt>
<pdfrwt beam="2">  1       21 0.31347316E-01 0.45531752E+03</pdfrwt>
<totfact> 0.68277302E+04</totfact>
</mgrwt>
</event>
<event>
 7    0  0.4748297E-002  0.4564680E+03  0.7546771E-02  0.1025811E+00
         21   -1    0    0  502  501  0.00000000000E+00  0.00000000000E+00  0.49901057628E+03  0.49901057628E+03  0.00000000000E+00 0.  1.
         21   -1    0    0  501  502 -0.00000000000E+00 -0.00000000000E+00 -0.10438808262E+03  0.10438808262E+03  0.00000000000E+00 0.  1.
      99926    2    1    2    0    0  0.00000000000E+00 -0.71054273576E-14  0.39462249366E+03  0.60339865889E+03  0.45646799346E+03 0.  0.
      99925    2    3    3    0    0  0.95423348396E+02  0.61718168158E+02  0.22858646346E+03  0.36648048922E+03  0.26294758033E+03 0.  0.
         25    1    4    4    0    0  0.54099628408E+02 -0.19573593655E+01  0.80494282600E+02  0.15829541586E+03  0.12509000000E+03 0.  0.
         25    1    3    3    0    0 -0.95423348396E+02 -0.61718168158E+02  0.16603603020E+03  0.23691816968E+03  0.12509000000E+03 0.  0.
         25    1    4    4    0    0  0.41323719988E+02  0.63675527524E+02  0.14809218086E+03  0.20818507336E+03  0.12509000000E+03 0.  0.
<mgrwt>
<rscale>  2 0.45646799E+03</rscale>
<asrwt>0</asrwt>
<pdfrwt beam="1">  1       21 0.73383907E-01 0.45646799E+03</pdfrwt>
<pdfrwt beam="2">  1       21 0.15351189E-01 0.45646799E+03</pdfrwt>
<totfact> 0.57796318E+04</totfact>
</mgrwt>
</event>
<event>
 7    0  0.4748297E-002  0.4567530E+03  0.7546771E-02  0.1025727E+00
         21   -1    0    0  502  501  0.00000000000E+00  0.00000000000E+00  0.99543359266E+03  0.99543359266E+03  0.00000000000E+00 0. -1.
         21   -1    0    0  501  502 -0.00000000000E+00 -0.00000000000E+00 -0.52395094370E+02  0.52395094370E+02  0.00000000000E+00 0. -1.
      99926    2    1    2    0    0  0.35527136788E-14 -0.35527136788E-14  0.94303849829E+03  0.10478286870E+04  0.45675304937E+03 0.  0.
      99925    2    3    3    0    0  0.31053035163E+02  0.19730304319E+02  0.34306435491E+03  0.43384981383E+03  0.26301888422E+03 0.  0.
         25    1    4    4    0    0  0.41297480331E+02 -0.20868163278E+02  0.16226309745E+03  0.21004233624E+03  0.12509000000E+03 0.  0.
         25    1    3    3    0    0 -0.31053035163E+02 -0.19730304319E+02  0.59997414339E+03  0.61397887320E+03  0.12509000000E+03 0.  0.
         25    1    4    4    0    0 -0.10244445167E+02  0.40598467598E+02  0.18080125746E+03  0.22380747759E+03  0.12509000000E+03 0.  0.
<mgrwt>
<rscale>  2 0.45675305E+03</rscale>
<asrwt>0</asrwt>
<pdfrwt beam="1">  1       21 0.14638728E+00 0.45675305E+03</pdfrwt>
<pdfrwt beam="2">  1       21 0.77051616E-02 0.45675305E+03</pdfrwt>
<totfact> 0.36850339E+04</totfact>
</mgrwt>
</event>
<event>
 7    0  0.4748297E-002  0.4589937E+03  0.7546771E-02  0.1025073E+00
         21   -1    0    0  502  501  0.00000000000E+00  0.00000000000E+00  0.38468151580E+03  0.38468151580E+03  0.00000000000E+00 0. -1.
         21   -1    0    0  501  502 -0.00000000000E+00 -0.00000000000E+00 -0.13691537174E+03  0.13691537174E+03  0.00000000000E+00 0. -1.
      99926    2    1    2    0    0  0.14210854715E-13  0.00000000000E+00  0.24776614406E+03  0.52159688753E+03  0.45899373736E+03 0.  0.
      99925    2    3    3    0    0 -0.10862914917E+03  0.30480829166E+02  0.19186279862E+03  0.34410867629E+03  0.26243108545E+03 0.  0.
         25    1    4    4    0    0 -0.66410215461E+02  0.30198379615E+02  0.14248391486E+03  0.20315371752E+03  0.12509000000E+03 0.  0.
         25    1    4    4    0    0 -0.42218933711E+02  0.28244955109E+00  0.49378883761E+02  0.14095495877E+03  0.12509000000E+03 0.  0.
         25    1    3    3    0    0  0.10862914917E+03 -0.30480829166E+02  0.55903345440E+02  0.17748821124E+03  0.12509000000E+03 0.  0.
<mgrwt>
<rscale>  2 0.45899374E+03</rscale>
<asrwt>0</asrwt>
<pdfrwt beam="1">  1       21 0.56570811E-01 0.45899374E+03</pdfrwt>
<pdfrwt beam="2">  1       21 0.20134614E-01 0.45899374E+03</pdfrwt>
<totfact> 0.61797136E+04</totfact>
</mgrwt>
</event>
<event>
 7    0  0.4748297E-002  0.4459457E+03  0.7546771E-02  0.1028938E+00
         21   -1    0    0  502  501  0.00000000000E+00  0.00000000000E+00  0.35669841844E+03  0.35669841844E+03  0.00000000000E+00 0. -1.
         21   -1    0    0  501  502 -0.00000000000E+00 -0.00000000000E+00 -0.13938076659E+03  0.13938076659E+03  0.00000000000E+00 0. -1.
      99926    2    1    2    0    0  0.00000000000E+00  0.00000000000E+00  0.21731765186E+03  0.49607918503E+03  0.44594573213E+03 0.  0.
      99925    2    3    3    0    0  0.28239605430E+02  0.72042387595E+02  0.21595545827E+03  0.34898416609E+03  0.26299354992E+03 0.  0.
         25    1    3    3    0    0 -0.28239605430E+02 -0.72042387595E+02  0.13621935851E+01  0.14709501894E+03  0.12509000000E+03 0.  0.
         25    1    4    4    0    0  0.54101799633E+02  0.45169260574E+02  0.11050972456E+03  0.18118270929E+03  0.12509000000E+03 0.  0.
         25    1    4    4    0    0 -0.25862194203E+02  0.26873127021E+02  0.10544573371E+03  0.16780145679E+03  0.12509000000E+03 0.  0.
<mgrwt>
<rscale>  2 0.44594573E+03</rscale>
<asrwt>0</asrwt>
<pdfrwt beam="1">  1       21 0.52455650E-01 0.44594573E+03</pdfrwt>
<pdfrwt beam="2">  1       21 0.20497172E-01 0.44594573E+03</pdfrwt>
<totfact> 0.70477750E+04</totfact>
</mgrwt>
</event>
<event>
 7    0  0.4748297E-002  0.4314212E+03  0.7546771E-02  0.1033412E+00
         21   -1    0    0  502  501  0.00000000000E+00  0.00000000000E+00  0.25525749139E+04  0.25525749139E+04  0.00000000000E+00 0. -1.
         21   -1    0    0  501  502 -0.00000000000E+00 -0.00000000000E+00 -0.18229065510E+02  0.18229065510E+02  0.00000000000E+00 0. -1.
      99926    2    1    2    0    0  0.00000000000E+00 -0.26645352591E-14  0.25343458484E+04  0.25708039794E+04  0.43142116465E+03 0.  0.
      99925    2    3    3    0    0  0.80754044082E+02 -0.55205284529E+01  0.18562378968E+04  0.18765204682E+04  0.26297955449E+03 0.  0.
         25    1    4    4    0    0  0.38831744760E+02  0.35721894089E+02  0.10061947314E+04  0.10153124168E+04  0.12509000000E+03 0.  0.
         25    1    3    3    0    0 -0.80754044082E+02  0.55205284529E+01  0.67810795158E+03  0.69428351123E+03  0.12509000000E+03 0.  0.
         25    1    4    4    0    0  0.41922299322E+02 -0.41242422542E+02  0.85004316549E+03  0.86120805145E+03  0.12509000000E+03 0.  0.
<mgrwt>
<rscale>  2 0.43142116E+03</rscale>
<asrwt>0</asrwt>
<pdfrwt beam="1">  1       21 0.37537842E+00 0.43142116E+03</pdfrwt>
<pdfrwt beam="2">  1       21 0.26807467E-02 0.43142116E+03</pdfrwt>
<totfact> 0.77626372E+03</totfact>
</mgrwt>
</event>
<event>
 7    0  0.4748297E-002  0.4428672E+03  0.7546771E-02  0.1029871E+00
         21   -1    0    0  502  501  0.00000000000E+00  0.00000000000E+00  0.23872650565E+03  0.23872650565E+03  0.00000000000E+00 0.  1.
         21   -1    0    0  501  502 -0.00000000000E+00 -0.00000000000E+00 -0.20539333465E+03  0.20539333465E+03  0.00000000000E+00 0.  1.
      99926    2    1    2    0    0 -0.14210854715E-13 -0.17763568394E-14  0.33333171007E+02  0.44411984030E+03  0.44286717225E+03 0.  0.
      99925    2    3    3    0    0  0.95721734257E+02  0.13637254302E+02 -0.93173674198E+01  0.28036636204E+03  0.26300163215E+03 0.  0.
         25    1    4    4    0    0  0.81251169869E+02  0.30707376968E+02 -0.15915398661E+02  0.15311924641E+03  0.12509000000E+03 0.  0.
         25    1    4    4    0    0  0.14470564388E+02 -0.17070122667E+02  0.65980312412E+01  0.12724711564E+03  0.12509000000E+03 0.  0.
         25    1    3    3    0    0 -0.95721734257E+02 -0.13637254302E+02  0.42650538427E+02  0.16375347826E+03  0.12509000000E+03 0.  0.
<mgrwt>
<rscale>  2 0.44286717E+03</rscale>
<asrwt>0</asrwt>
<pdfrwt beam="1">  1       21 0.35106839E-01 0.44286717E+03</pdfrwt>
<pdfrwt beam="2">  1       21 0.30204902E-01 0.44286717E+03</pdfrwt>
<totfact> 0.76491173E+04</totfact>
</mgrwt>
</event>
<event>
 7    0  0.4748297E-002  0.4609177E+03  0.7546771E-02  0.1024515E+00
         21   -1    0    0  502  501  0.00000000000E+00  0.00000000000E+00  0.10632301829E+04  0.10632301829E+04  0.00000000000E+00 0. -1.
         21   -1    0    0  501  502 -0.00000000000E+00 -0.00000000000E+00 -0.49952756075E+02  0.49952756075E+02  0.00000000000E+00 0. -1.
      99926    2    1    2    0    0  0.00000000000E+00  0.00000000000E+00  0.10132774268E+04  0.11131829390E+04  0.46091768453E+03 0.  0.
      99925    2    3    3    0    0  0.74658733926E+02  0.91067239213E+02  0.67241700245E+03  0.73147558299E+03  0.26276364801E+03 0.  0.
         25    1    4    4    0    0 -0.69754479904E+00  0.58049447605E+02  0.30523378399E+03  0.33494088423E+03  0.12509000000E+03 0.  0.
         25    1    3    3    0    0 -0.74658733926E+02 -0.91067239213E+02  0.34086042439E+03  0.38170735600E+03  0.12509000000E+03 0.  0.
         25    1    4    4    0    0  0.75356278725E+02  0.33017791607E+02  0.36718321845E+03  0.39653469876E+03  0.12509000000E+03 0.  0.
<mgrwt>
<rscale>  2 0.46091768E+03</rscale>
<asrwt>0</asrwt>
<pdfrwt beam="1">  1       21 0.15635737E+00 0.46091768E+03</pdfrwt>
<pdfrwt beam="2">  1       21 0.73459942E-02 0.46091768E+03</pdfrwt>
<totfact> 0.33464697E+04</totfact>
</mgrwt>
</event>
<event>
 7    0  0.4748297E-002  0.4565822E+03  0.7546771E-02  0.1025777E+00
         21   -1    0    0  502  501  0.00000000000E+00  0.00000000000E+00  0.11422195781E+04  0.11422195781E+04  0.00000000000E+00 0.  1.
         21   -1    0    0  501  502 -0.00000000000E+00 -0.00000000000E+00 -0.45627668771E+02  0.45627668771E+02  0.00000000000E+00 0.  1.
      99926    2    1    2    0    0  0.00000000000E+00  0.11102230246E-14  0.10965919093E+04  0.11878472468E+04  0.45658215721E+03 0.  0.
      99925    2    3    3    0    0  0.45467254209E+02  0.64016535624E+00  0.41575939792E+03  0.49412677167E+03  0.26313059212E+03 0.  0.
         25    1    3    3    0    0 -0.45467254209E+02 -0.64016535624E+00  0.68083251138E+03  0.69372047517E+03  0.12509000000E+03 0.  0.
         25    1    4    4    0    0  0.38623647863E+00 -0.33953451134E+02  0.20500493847E+03  0.24254384948E+03  0.12509000000E+03 0.  0.
         25    1    4    4    0    0  0.45081017731E+02  0.34593616491E+02  0.21075445945E+03  0.25158292219E+03  0.12509000000E+03 0.  0.
<mgrwt>
<rscale>  2 0.45658216E+03</rscale>
<asrwt>0</asrwt>
<pdfrwt beam="1">  1       21 0.16797345E+00 0.45658216E+03</pdfrwt>
<pdfrwt beam="2">  1       21 0.67099520E-02 0.45658216E+03</pdfrwt>
<totfact> 0.32145445E+04</totfact>
</mgrwt>
</event>
<event>
 7    0  0.4748297E-002  0.4398148E+03  0.7546771E-02  0.1030804E+00
         21   -1    0    0  502  501  0.00000000000E+00  0.00000000000E+00  0.84737181101E+03  0.84737181101E+03  0.00000000000E+00 0. -1.
         21   -1    0    0  501  502 -0.00000000000E+00 -0.00000000000E+00 -0.57069721862E+02  0.57069721862E+02  0.00000000000E+00 0. -1.
      99926    2    1    2    0    0  0.00000000000E+00  0.35527136788E-14  0.79030208914E+03  0.90444153287E+03  0.43981484089E+03 0.  0.
      99925    2    3    3    0    0 -0.97216539200E+02  0.13891749095E+02  0.49826989023E+03  0.57191431670E+03  0.26300012539E+03 0.  0.
         25    1    4    4    0    0 -0.49832885335E+02  0.33848520277E+02  0.19037247554E+03  0.23562305984E+03  0.12509000000E+03 0.  0.
         25    1    4    4    0    0 -0.47383653865E+02 -0.19956771182E+02  0.30789741469E+03  0.33629125686E+03  0.12509000000E+03 0.  0.
         25    1    3    3    0    0  0.97216539200E+02 -0.13891749095E+02  0.29203219892E+03  0.33252721617E+03  0.12509000000E+03 0.  0.
<mgrwt>
<rscale>  2 0.43981484E+03</rscale>
<asrwt>0</asrwt>
<pdfrwt beam="1">  1       21 0.12461349E+00 0.43981484E+03</pdfrwt>
<pdfrwt beam="2">  1       21 0.83926067E-02 0.43981484E+03</pdfrwt>
<totfact> 0.48560393E+04</totfact>
</mgrwt>
</event>
<event>
 7    0  0.4748297E-002  0.4557990E+03  0.7546771E-02  0.1026007E+00
         21   -1    0    0  502  501  0.00000000000E+00  0.00000000000E+00  0.28984872158E+03  0.28984872158E+03  0.00000000000E+00 0. -1.
         21   -1    0    0  501  502 -0.00000000000E+00 -0.00000000000E+00 -0.17919068794E+03  0.17919068794E+03  0.00000000000E+00 0. -1.
      99926    2    1    2    0    0  0.00000000000E+00  0.00000000000E+00  0.11065803365E+03  0.46903940952E+03  0.45579904264E+03 0.  0.
      99925    2    3    3    0    0 -0.26128138421E+02 -0.90604105025E+02  0.36175880324E+01  0.27931079133E+03  0.26288713879E+03 0.  0.
         25    1    4    4    0    0 -0.46227165699E+02 -0.45876674693E+02 -0.21401354311E+02  0.14264342325E+03  0.12509000000E+03 0.  0.
         25    1    3    3    0    0  0.26128138421E+02  0.90604105025E+02  0.10704044562E+03  0.18972861820E+03  0.12509000000E+03 0.  0.
         25    1    4    4    0    0  0.20099027277E+02 -0.44727430332E+02  0.25018942343E+02  0.13666736808E+03  0.12509000000E+03 0.  0.
<mgrwt>
<rscale>  2 0.45579904E+03</rscale>
<asrwt>0</asrwt>
<pdfrwt beam="1">  1       21 0.42624812E-01 0.45579904E+03</pdfrwt>
<pdfrwt beam="2">  1       21 0.26351572E-01 0.45579904E+03</pdfrwt>
<totfact> 0.67081112E+04</totfact>
</mgrwt>
</event>
<event>
 7    0  0.4748297E-002  0.4451343E+03  0.7546771E-02  0.1029183E+00
         21   -1    0    0  502  501  0.00000000000E+00  0.00000000000E+00  0.55091187277E+03  0.55091187277E+03  0.00000000000E+00 0.  1.
         21   -1    0    0  501  502 -0.00000000000E+00 -0.00000000000E+00 -0.89916608867E+02  0.89916608867E+02  0.00000000000E+00 0.  1.
      99926    2    1    2    0    0  0.00000000000E+00  0.00000000000E+00  0.46099526390E+03  0.64082848163E+03  0.44513426012E+03 0.  0.
      99925    2    3    3    0    0 -0.87594106229E+01 -0.90814494335E+02  0.22175935391E+03  0.35586299533E+03  0.26293965228E+03 0.  0.
         25    1    4    4    0    0  0.13623012733E+02 -0.79741321152E+02  0.99258964468E+02  0.17900870063E+03  0.12509000000E+03 0.  0.
         25    1    3    3    0    0  0.87594106229E+01  0.90814494335E+02  0.23923590999E+03  0.28496548630E+03  0.12509000000E+03 0.  0.
         25    1    4    4    0    0 -0.22382423355E+02 -0.11073173182E+02  0.12250038945E+03  0.17685429470E+03  0.12509000000E+03 0.  0.
<mgrwt>
<rscale>  2 0.44513426E+03</rscale>
<asrwt>0</asrwt>
<pdfrwt beam="1">  1       21 0.81016450E-01 0.44513426E+03</pdfrwt>
<pdfrwt beam="2">  1       21 0.13223031E-01 0.44513426E+03</pdfrwt>
<totfact> 0.60832086E+04</totfact>
</mgrwt>
</event>
<event>
 7    0  0.4748297E-002  0.4691224E+03  0.7546771E-02  0.1022168E+00
         21   -1    0    0  502  501  0.00000000000E+00  0.00000000000E+00  0.12010241234E+03  0.12010241234E+03  0.00000000000E+00 0. -1.
         21   -1    0    0  501  502 -0.00000000000E+00 -0.00000000000E+00 -0.45810037160E+03  0.45810037160E+03  0.00000000000E+00 0. -1.
      99926    2    1    2    0    0  0.00000000000E+00  0.00000000000E+00 -0.33799795926E+03  0.57820278394E+03  0.46912241355E+03 0.  0.
      99925    2    3    3    0    0 -0.81507800417E+02  0.45244464033E+02 -0.31446465268E+03  0.42043108916E+03  0.26302794508E+03 0.  0.
         25    1    3    3    0    0  0.81507800417E+02 -0.45244464033E+02 -0.23533306575E+02  0.15777169478E+03  0.12509000000E+03 0.  0.
         25    1    4    4    0    0 -0.58798440812E+02 -0.10040474512E+02 -0.18130760634E+03  0.22820609980E+03  0.12509000000E+03 0.  0.
         25    1    4    4    0    0 -0.22709359605E+02  0.55284938546E+02 -0.13315704635E+03  0.19222498936E+03  0.12509000000E+03 0.  0.
<mgrwt>
<rscale>  2 0.46912241E+03</rscale>
<asrwt>0</asrwt>
<pdfrwt beam="1">  1       21 0.17662120E-01 0.46912241E+03</pdfrwt>
<pdfrwt beam="2">  1       21 0.67367700E-01 0.46912241E+03</pdfrwt>
<totfact> 0.53779188E+04</totfact>
</mgrwt>
</event>
<event>
 7    0  0.4748297E-002  0.4543357E+03  0.7546771E-02  0.1026437E+00
         21   -1    0    0  502  501  0.00000000000E+00  0.00000000000E+00  0.12585346448E+03  0.12585346448E+03  0.00000000000E+00 0. -1.
         21   -1    0    0  501  502 -0.00000000000E+00 -0.00000000000E+00 -0.41004228117E+03  0.41004228117E+03  0.00000000000E+00 0. -1.
      99926    2    1    2    0    0  0.00000000000E+00  0.00000000000E+00 -0.28418881669E+03  0.53589574565E+03  0.45433574224E+03 0.  0.
      99925    2    3    3    0    0 -0.77056765363E+02 -0.54598369789E+02 -0.10677130028E+03  0.29916127351E+03  0.26301830722E+03 0.  0.
         25    1    3    3    0    0  0.77056765363E+02  0.54598369789E+02 -0.17741751641E+03  0.23673447214E+03  0.12509000000E+03 0.  0.
         25    1    4    4    0    0 -0.15022022422E+02  0.81842808597E+01 -0.52469692424E+02  0.13672315215E+03  0.12509000000E+03 0.  0.
         25    1    4    4    0    0 -0.62034742940E+02 -0.62782650648E+02 -0.54301607852E+02  0.16243812136E+03  0.12509000000E+03 0.  0.
<mgrwt>
<rscale>  2 0.45433574E+03</rscale>
<asrwt>0</asrwt>
<pdfrwt beam="1">  1       21 0.18507863E-01 0.45433574E+03</pdfrwt>
<pdfrwt beam="2">  1       21 0.60300335E-01 0.45433574E+03</pdfrwt>
<totfact> 0.63139562E+04</totfact>
</mgrwt>
</event>
<event>
 7    0  0.4748297E-002  0.4559222E+03  0.7546771E-02  0.1025971E+00
         21   -1    0    0  502  501  0.00000000000E+00  0.00000000000E+00  0.15371511029E+03  0.15371511029E+03  0.00000000000E+00 0. -1.
         21   -1    0    0  501  502 -0.00000000000E+00 -0.00000000000E+00 -0.33806868496E+03  0.33806868496E+03  0.00000000000E+00 0. -1.
      99926    2    1    2    0    0  0.14210854715E-13 -0.14210854715E-13 -0.18435357467E+03  0.49178379525E+03  0.45592220913E+03 0.  0.
      99925    2    3    3    0    0  0.75014106716E+02 -0.65986564540E+02 -0.17536119513E+03  0.33144130588E+03  0.26290767882E+03 0.  0.
         25    1    4    4    0    0  0.33955839727E+02 -0.41932163505E+02 -0.13466482240E+03  0.19155528675E+03  0.12509000000E+03 0.  0.
         25    1    4    4    0    0  0.41058266989E+02 -0.24054401035E+02 -0.40696372727E+02  0.13988601914E+03  0.12509000000E+03 0.  0.
         25    1    3    3    0    0 -0.75014106716E+02  0.65986564540E+02 -0.89923795435E+01  0.16034248937E+03  0.12509000000E+03 0.  0.
<mgrwt>
<rscale>  2 0.45592221E+03</rscale>
<asrwt>0</asrwt>
<pdfrwt beam="1">  1       21 0.22605163E-01 0.45592221E+03</pdfrwt>
<pdfrwt beam="2">  1       21 0.49715983E-01 0.45592221E+03</pdfrwt>
<totfact> 0.65371904E+04</totfact>
</mgrwt>
</event>
<event>
 7    0  0.4748297E-002  0.4447551E+03  0.7546771E-02  0.1029298E+00
         21   -1    0    0  502  501  0.00000000000E+00  0.00000000000E+00  0.42829850392E+03  0.42829850392E+03  0.00000000000E+00 0.  1.
         21   -1    0    0  501  502 -0.00000000000E+00 -0.00000000000E+00 -0.11546102237E+03  0.11546102237E+03  0.00000000000E+00 0.  1.
      99926    2    1    2    0    0 -0.71054273576E-14  0.00000000000E+00  0.31283748155E+03  0.54375952629E+03  0.44475513777E+03 0.  0.
      99925    2    3    3    0    0 -0.43872372878E+02  0.72475669678E+02  0.27072438804E+03  0.38692034578E+03  0.26313143466E+03 0.  0.
         25    1    3    3    0    0  0.43872372878E+02 -0.72475669678E+02  0.42113093516E+02  0.15683918051E+03  0.12509000000E+03 0.  0.
         25    1    4    4    0    0 -0.39034746174E+02  0.74663001806E+02  0.15842652046E+03  0.21873441826E+03  0.12509000000E+03 0.  0.
         25    1    4    4    0    0 -0.48376267045E+01 -0.21873321282E+01  0.11229786758E+03  0.16818592752E+03  0.12509000000E+03 0.  0.
<mgrwt>
<rscale>  2 0.44475514E+03</rscale>
<asrwt>0</asrwt>
<pdfrwt beam="1">  1       21 0.62985073E-01 0.44475514E+03</pdfrwt>
<pdfrwt beam="2">  1       21 0.16979562E-01 0.44475514E+03</pdfrwt>
<totfact> 0.67596261E+04</totfact>
</mgrwt>
</event>
<event>
 7    0  0.4748297E-002  0.4591076E+03  0.7546771E-02  0.1025040E+00
         21   -1    0    0  502  501  0.00000000000E+00  0.00000000000E+00  0.10158304325E+03  0.10158304325E+03  0.00000000000E+00 0. -1.
         21   -1    0    0  501  502 -0.00000000000E+00 -0.00000000000E+00 -0.51873771722E+03  0.51873771722E+03  0.00000000000E+00 0. -1.
      99926    2    1    2    0    0  0.14210854715E-13 -0.14210854715E-13 -0.41715467396E+03  0.62032076047E+03  0.45910763865E+03 0.  0.
      99925    2    3    3    0    0  0.73407955304E+02 -0.87134722273E+02 -0.22578383806E+03  0.36487704326E+03  0.26301278951E+03 0.  0.
         25    1    4    4    0    0  0.74335990128E+02 -0.50818223348E+02 -0.99522528931E+02  0.18346818012E+03  0.12509000000E+03 0.  0.
         25    1    3    3    0    0 -0.73407955304E+02  0.87134722273E+02 -0.19137083590E+03  0.25544371721E+03  0.12509000000E+03 0.  0.
         25    1    4    4    0    0 -0.92803482325E+00 -0.36316498924E+02 -0.12626130913E+03  0.18140886314E+03  0.12509000000E+03 0.  0.
<mgrwt>
<rscale>  2 0.45910764E+03</rscale>
<asrwt>0</asrwt>
<pdfrwt beam="1">  1       21 0.14938683E-01 0.45910764E+03</pdfrwt>
<pdfrwt beam="2">  1       21 0.76284957E-01 0.45910764E+03</pdfrwt>
<totfact> 0.55618440E+04</totfact>
</mgrwt>
</event>
<event>
 7    0  0.4748297E-002  0.4491246E+03  0.7546771E-02  0.1027983E+00
         21   -1    0    0  502  501  0.00000000000E+00  0.00000000000E+00  0.50086956168E+03  0.50086956168E+03  0.00000000000E+00 0. -1.
         21   -1    0    0  501  502 -0.00000000000E+00 -0.00000000000E+00 -0.10068134037E+03  0.10068134037E+03  0.00000000000E+00 0. -1.
      99926    2    1    2    0    0  0.00000000000E+00  0.00000000000E+00  0.40018822130E+03  0.60155090205E+03  0.44912456545E+03 0.  0.
      99925    2    3    3    0    0  0.77693819127E+02 -0.47376670658E+02  0.17648618411E+03  0.32957482223E+03  0.26304241447E+03 0.  0.
         25    1    4    4    0    0  0.20137914828E+02 -0.20975064198E+02  0.12774402401E+03  0.18113953931E+03  0.12509000000E+03 0.  0.
         25    1    4    4    0    0  0.57555904299E+02 -0.26401606460E+02  0.48742160106E+02  0.14843528292E+03  0.12509000000E+03 0.  0.
         25    1    3    3    0    0 -0.77693819127E+02  0.47376670658E+02  0.22370203719E+03  0.27197607982E+03  0.12509000000E+03 0.  0.
<mgrwt>
<rscale>  2 0.44912457E+03</rscale>
<asrwt>0</asrwt>
<pdfrwt beam="1">  1       21 0.73657288E-01 0.44912457E+03</pdfrwt>
<pdfrwt beam="2">  1       21 0.14806080E-01 0.44912457E+03</pdfrwt>
<totfact> 0.61383062E+04</totfact>
</mgrwt>
</event>
<event>
 7    0  0.4748297E-002  0.4568027E+03  0.7546771E-02  0.1025713E+00
         21   -1    0    0  502  501  0.00000000000E+00  0.00000000000E+00  0.92986286492E+03  0.92986286492E+03  0.00000000000E+00 0.  1.
         21   -1    0    0  501  502 -0.00000000000E+00 -0.00000000000E+00 -0.56102013027E+02  0.56102013027E+02  0.00000000000E+00 0.  1.
      99926    2    1    2    0    0  0.35527136788E-14  0.00000000000E+00  0.87376085190E+03  0.98596487795E+03  0.45680270823E+03 0.  0.
      99925    2    3    3    0    0 -0.21506677587E+02 -0.10144990568E+03  0.65560903849E+03  0.71394954321E+03  0.26295649518E+03 0.  0.
         25    1    4    4    0    0  0.24831844498E+02 -0.28878319042E+02  0.30988052761E+03  0.33633915517E+03  0.12509000000E+03 0.  0.
         25    1    4    4    0    0 -0.46338522085E+02 -0.72571586634E+02  0.34572851088E+03  0.37761038803E+03  0.12509000000E+03 0.  0.
         25    1    3    3    0    0  0.21506677587E+02  0.10144990568E+03  0.21815181341E+03  0.27201533475E+03  0.12509000000E+03 0.  0.
<mgrwt>
<rscale>  2 0.45680271E+03</rscale>
<asrwt>0</asrwt>
<pdfrwt beam="1">  1       21 0.13674453E+00 0.45680271E+03</pdfrwt>
<pdfrwt beam="2">  1       21 0.82502966E-02 0.45680271E+03</pdfrwt>
<totfact> 0.39162656E+04</totfact>
</mgrwt>
</event>
<event>
 7    0  0.4748297E-002  0.4548729E+03  0.7546771E-02  0.1026279E+00
         21   -1    0    0  502  501  0.00000000000E+00  0.00000000000E+00  0.54684377758E+03  0.54684377758E+03  0.00000000000E+00 0.  1.
         21   -1    0    0  501  502 -0.00000000000E+00 -0.00000000000E+00 -0.94592536839E+02  0.94592536839E+02  0.00000000000E+00 0.  1.
      99926    2    1    2    0    0  0.00000000000E+00  0.00000000000E+00  0.45225124075E+03  0.64143631442E+03  0.45487290610E+03 0.  0.
      99925    2    3    3    0    0 -0.38416549127E+02 -0.45815361175E+02  0.41996051362E+03  0.49908085185E+03  0.26294483284E+03 0.  0.
         25    1    4    4    0    0 -0.29674329696E+02 -0.30385397138E+02  0.28547450126E+03  0.31455847974E+03  0.12509000000E+03 0.  0.
         25    1    3    3    0    0  0.38416549127E+02  0.45815361175E+02  0.32290727126E+02  0.14235546257E+03  0.12509000000E+03 0.  0.
         25    1    4    4    0    0 -0.87422194310E+01 -0.15429964037E+02  0.13448601236E+03  0.18452237211E+03  0.12509000000E+03 0.  0.
<mgrwt>
<rscale>  2 0.45487291E+03</rscale>
<asrwt>0</asrwt>
<pdfrwt beam="1">  1       21 0.80418201E-01 0.45487291E+03</pdfrwt>
<pdfrwt beam="2">  1       21 0.13910668E-01 0.45487291E+03</pdfrwt>
<totfact> 0.56253954E+04</totfact>
</mgrwt>
</event>
<event>
 7    0  0.4748297E-002  0.4518951E+03  0.7546771E-02  0.1027158E+00
         21   -1    0    0  502  501  0.00000000000E+00  0.00000000000E+00  0.64414486506E+03  0.64414486506E+03  0.00000000000E+00 0. -1.
         21   -1    0    0  501  502 -0.00000000000E+00 -0.00000000000E+00 -0.79255905947E+02  0.79255905947E+02  0.00000000000E+00 0. -1.
      99926    2    1    2    0    0  0.66613381478E-15  0.00000000000E+00  0.56488895912E+03  0.72340077101E+03  0.45189505349E+03 0.  0.
      99925    2    3    3    0    0  0.14042167329E+01 -0.38003367593E+02  0.52209460547E+03  0.58583226961E+03  0.26300274388E+03 0.  0.
         25    1    4    4    0    0 -0.13530242524E+02 -0.49442712005E+01  0.33486995835E+03  0.35776096822E+03  0.12509000000E+03 0.  0.
         25    1    3    3    0    0 -0.14042167329E+01  0.38003367593E+02  0.42794353647E+02  0.13756850140E+03  0.12509000000E+03 0.  0.
         25    1    4    4    0    0  0.14934459257E+02 -0.33059096392E+02  0.18722464712E+03  0.22807130139E+03  0.12509000000E+03 0.  0.
<mgrwt>
<rscale>  2 0.45189505E+03</rscale>
<asrwt>0</asrwt>
<pdfrwt beam="1">  1       21 0.94727183E-01 0.45189505E+03</pdfrwt>
<pdfrwt beam="2">  1       21 0.11655281E-01 0.45189505E+03</pdfrwt>
<totfact> 0.52931629E+04</totfact>
</mgrwt>
</event>
<event>
 7    0  0.4748297E-002  0.4357783E+03  0.7546771E-02  0.1032050E+00
         21   -1    0    0  502  501  0.00000000000E+00  0.00000000000E+00  0.45534653849E+03  0.45534653849E+03  0.00000000000E+00 0. -1.
         21   -1    0    0  501  502 -0.00000000000E+00 -0.00000000000E+00 -0.10426276015E+03  0.10426276015E+03  0.00000000000E+00 0. -1.
      99926    2    1    2    0    0  0.00000000000E+00  0.00000000000E+00  0.35108377834E+03  0.55960929864E+03  0.43577832405E+03 0.  0.
      99925    2    3    3    0    0 -0.79149469548E+02  0.47805348741E+02  0.20218806597E+03  0.34427831815E+03  0.26286414062E+03 0.  0.
         25    1    3    3    0    0  0.79149469548E+02 -0.47805348741E+02  0.14889571237E+03  0.21533098049E+03  0.12509000000E+03 0.  0.
         25    1    4    4    0    0 -0.25682847598E+02  0.59251270460E+02  0.11961036491E+03  0.18472809534E+03  0.12509000000E+03 0.  0.
         25    1    4    4    0    0 -0.53466621951E+02 -0.11445921719E+02  0.82577701061E+02  0.15955022281E+03  0.12509000000E+03 0.  0.
<mgrwt>
<rscale>  2 0.43577832E+03</rscale>
<asrwt>0</asrwt>
<pdfrwt beam="1">  1       21 0.66962726E-01 0.43577832E+03</pdfrwt>
<pdfrwt beam="2">  1       21 0.15332759E-01 0.43577832E+03</pdfrwt>
<totfact> 0.71502632E+04</totfact>
</mgrwt>
</event>
<event>
 7    0  0.4748297E-002  0.4530491E+03  0.7546771E-02  0.1026817E+00
         21   -1    0    0  502  501  0.00000000000E+00  0.00000000000E+00  0.97084503762E+02  0.97084503762E+02  0.00000000000E+00 0.  1.
         21   -1    0    0  501  502 -0.00000000000E+00 -0.00000000000E+00 -0.52854331064E+03  0.52854331064E+03  0.00000000000E+00 0.  1.
      99926    2    1    2    0    0 -0.35527136788E-14  0.00000000000E+00 -0.43145880688E+03  0.62562781441E+03  0.45304907033E+03 0.  0.
      99925    2    3    3    0    0 -0.17516826287E+02 -0.18977656269E+02 -0.12140615545E+03  0.29029641802E+03  0.26242249350E+03 0.  0.
         25    1    4    4    0    0 -0.37523591355E+02 -0.36524562850E+02 -0.68025987644E+02  0.15171389750E+03  0.12509000000E+03 0.  0.
         25    1    3    3    0    0  0.17516826287E+02  0.18977656269E+02 -0.31005265143E+03  0.33533139639E+03  0.12509000000E+03 0.  0.
         25    1    4    4    0    0  0.20006765068E+02  0.17546906581E+02 -0.53380167802E+02  0.13858252052E+03  0.12509000000E+03 0.  0.
<mgrwt>
<rscale>  2 0.45304907E+03</rscale>
<asrwt>0</asrwt>
<pdfrwt beam="1">  1       21 0.14277133E-01 0.45304907E+03</pdfrwt>
<pdfrwt beam="2">  1       21 0.77726956E-01 0.45304907E+03</pdfrwt>
<totfact> 0.58016355E+04</totfact>
</mgrwt>
</event>
<event>
 7    0  0.4748297E-002  0.4542338E+03  0.7546771E-02  0.1026467E+00
         21   -1    0    0  502  501  0.00000000000E+00  0.00000000000E+00  0.82645299300E+02  0.82645299300E+02  0.00000000000E+00 0. -1.
         21   -1    0    0  501  502 -0.00000000000E+00 -0.00000000000E+00 -0.62413823839E+03  0.62413823839E+03  0.00000000000E+00 0. -1.
      99926    2    1    2    0    0  0.14432899320E-14  0.00000000000E+00 -0.54149293909E+03  0.70678353769E+03  0.45423382312E+03 0.  0.
      99925    2    3    3    0    0  0.74318751779E+00  0.28063765566E+01 -0.51593761836E+03  0.57907680101E+03  0.26292563083E+03 0.  0.
         25    1    3    3    0    0 -0.74318751779E+00 -0.28063765566E+01 -0.25555320730E+02  0.12770673668E+03  0.12509000000E+03 0.  0.
         25    1    4    4    0    0  0.33663740214E+02 -0.28830257817E+01 -0.30771214722E+03  0.33387996779E+03  0.12509000000E+03 0.  0.
         25    1    4    4    0    0 -0.32920552696E+02  0.56894023383E+01 -0.20822547114E+03  0.24519683322E+03  0.12509000000E+03 0.  0.
<mgrwt>
<rscale>  2 0.45423382E+03</rscale>
<asrwt>0</asrwt>
<pdfrwt beam="1">  1       21 0.12153720E-01 0.45423382E+03</pdfrwt>
<pdfrwt beam="2">  1       21 0.91785036E-01 0.45423382E+03</pdfrwt>
<totfact> 0.52854116E+04</totfact>
</mgrwt>
</event>
<event>
 7    0  0.4748297E-002  0.4556164E+03  0.7546771E-02  0.1026060E+00
         21   -1    0    0  502  501  0.00000000000E+00  0.00000000000E+00  0.35468460372E+02  0.35468460372E+02  0.00000000000E+00 0.  1.
         21   -1    0    0  501  502 -0.00000000000E+00 -0.00000000000E+00 -0.14631752911E+04  0.14631752911E+04  0.00000000000E+00 0.  1.
      99926    2    1    2    0    0  0.35527136788E-14  0.00000000000E+00 -0.14277068307E+04  0.14986437514E+04  0.45561639492E+03 0.  0.
      99925    2    3    3    0    0 -0.31603717364E+02 -0.84501233591E+02 -0.67040891047E+03  0.72580036400E+03  0.26305666256E+03 0.  0.
         25    1    4    4    0    0  0.48908891695E+01 -0.72163779270E+02 -0.30093363304E+03  0.33382643909E+03  0.12509000000E+03 0.  0.
         25    1    4    4    0    0 -0.36494606534E+02 -0.12337454320E+02 -0.36947527743E+03  0.39197392492E+03  0.12509000000E+03 0.  0.
         25    1    3    3    0    0  0.31603717364E+02  0.84501233591E+02 -0.75729792023E+03  0.77284338744E+03  0.12509000000E+03 0.  0.
<mgrwt>
<rscale>  2 0.45561639E+03</rscale>
<asrwt>0</asrwt>
<pdfrwt beam="1">  1       21 0.52159521E-02 0.45561639E+03</pdfrwt>
<pdfrwt beam="2">  1       21 0.21517275E+00 0.45561639E+03</pdfrwt>
<totfact> 0.23698725E+04</totfact>
</mgrwt>
</event>
<event>
 7    0  0.4748297E-002  0.4693436E+03  0.7546771E-02  0.1022106E+00
         21   -1    0    0  502  501  0.00000000000E+00  0.00000000000E+00  0.30943919543E+03  0.30943919543E+03  0.00000000000E+00 0.  1.
         21   -1    0    0  501  502 -0.00000000000E+00 -0.00000000000E+00 -0.17796986599E+03  0.17796986599E+03  0.00000000000E+00 0.  1.
      99926    2    1    2    0    0  0.35527136788E-14 -0.35527136788E-14  0.13146932944E+03  0.48740906143E+03  0.46934359331E+03 0.  0.
      99925    2    3    3    0    0 -0.17224449286E+02 -0.12344042107E+01 -0.47841882570E+02  0.26809598781E+03  0.26322691265E+03 0.  0.
         25    1    4    4    0    0 -0.24632126929E+02 -0.35992693867E+02 -0.37313554219E+02  0.13763002985E+03  0.12509000000E+03 0.  0.
         25    1    4    4    0    0  0.74076776431E+01  0.34758289656E+02 -0.10528328350E+02  0.13046595796E+03  0.12509000000E+03 0.  0.
         25    1    3    3    0    0  0.17224449286E+02  0.12344042107E+01  0.17931121201E+03  0.21931307362E+03  0.12509000000E+03 0.  0.
<mgrwt>
<rscale>  2 0.46934359E+03</rscale>
<asrwt>0</asrwt>
<pdfrwt beam="1">  1       21 0.45505764E-01 0.46934359E+03</pdfrwt>
<pdfrwt beam="2">  1       21 0.26172039E-01 0.46934359E+03</pdfrwt>
<totfact> 0.59139568E+04</totfact>
</mgrwt>
</event>
<event>
 7    0  0.4748297E-002  0.4549303E+03  0.7546771E-02  0.1026262E+00
         21   -1    0    0  502  501  0.00000000000E+00  0.00000000000E+00  0.87857952697E+02  0.87857952697E+02  0.00000000000E+00 0.  1.
         21   -1    0    0  501  502 -0.00000000000E+00 -0.00000000000E+00 -0.58890961322E+03  0.58890961322E+03  0.00000000000E+00 0.  1.
      99926    2    1    2    0    0  0.00000000000E+00  0.00000000000E+00 -0.50105166052E+03  0.67676756592E+03  0.45493029330E+03 0.  0.
      99925    2    3    3    0    0  0.96551414479E+02 -0.37153437588E+02 -0.38539022785E+03  0.47744965736E+03  0.26216405938E+03 0.  0.
         25    1    4    4    0    0  0.45215926547E+02 -0.55540753670E+02 -0.22026568750E+03  0.26323703486E+03  0.12509000000E+03 0.  0.
         25    1    3    3    0    0 -0.96551414479E+02  0.37153437588E+02 -0.11566143267E+03  0.19931790856E+03  0.12509000000E+03 0.  0.
         25    1    4    4    0    0  0.51335487932E+02  0.18387316082E+02 -0.16512454035E+03  0.21421262251E+03  0.12509000000E+03 0.  0.
<mgrwt>
<rscale>  2 0.45493029E+03</rscale>
<asrwt>0</asrwt>
<pdfrwt beam="1">  1       21 0.12920287E-01 0.45493029E+03</pdfrwt>
<pdfrwt beam="2">  1       21 0.86604355E-01 0.45493029E+03</pdfrwt>
<totfact> 0.54212886E+04</totfact>
</mgrwt>
</event>
<event>
 7    0  0.4748297E-002  0.4061038E+03  0.7546771E-02  0.1041686E+00
         21   -1    0    0  502  501  0.00000000000E+00  0.00000000000E+00  0.43564038414E+03  0.43564038414E+03  0.00000000000E+00 0.  1.
         21   -1    0    0  501  502 -0.00000000000E+00 -0.00000000000E+00 -0.94642431136E+02  0.94642431136E+02  0.00000000000E+00 0.  1.
      99926    2    1    2    0    0 -0.17763568394E-14  0.00000000000E+00  0.34099795301E+03  0.53028281528E+03  0.40610375549E+03 0.  0.
      99925    2    3    3    0    0 -0.10732763975E+02  0.45385856069E+02  0.26654498508E+03  0.37742398928E+03  0.26311132712E+03 0.  0.
         25    1    4    4    0    0 -0.42298197382E+01  0.62124233086E+02  0.12275287483E+03  0.18599217212E+03  0.12509000000E+03 0.  0.
         25    1    3    3    0    0  0.10732763975E+02 -0.45385856069E+02  0.74452967923E+02  0.15285882600E+03  0.12509000000E+03 0.  0.
         25    1    4    4    0    0 -0.65029442371E+01 -0.16738377017E+02  0.14379211026E+03  0.19143181716E+03  0.12509000000E+03 0.  0.
<mgrwt>
<rscale>  2 0.40610376E+03</rscale>
<asrwt>0</asrwt>
<pdfrwt beam="1">  1       21 0.64064761E-01 0.40610376E+03</pdfrwt>
<pdfrwt beam="2">  1       21 0.13918005E-01 0.40610376E+03</pdfrwt>
<totfact> 0.94937290E+04</totfact>
</mgrwt>
</event>
<event>
 7    0  0.4748297E-002  0.4542478E+03  0.7546771E-02  0.1026463E+00
         21   -1    0    0  502  501  0.00000000000E+00  0.00000000000E+00  0.80319499583E+02  0.80319499583E+02  0.00000000000E+00 0.  1.
         21   -1    0    0  501  502 -0.00000000000E+00 -0.00000000000E+00 -0.64225090723E+03  0.64225090723E+03  0.00000000000E+00 0.  1.
      99926    2    1    2    0    0 -0.14210854715E-13 -0.14210854715E-13 -0.56193140765E+03  0.72257040682E+03  0.45424782432E+03 0.  0.
      99925    2    3    3    0    0 -0.72742186086E+02 -0.79601305986E+02 -0.30712429331E+03  0.41892263856E+03  0.26371016667E+03 0.  0.
         25    1    4    4    0    0  0.66075896395E+01 -0.36817380971E+02 -0.13400228872E+03  0.18709169213E+03  0.12509000000E+03 0.  0.
         25    1    3    3    0    0  0.72742186086E+02  0.79601305986E+02 -0.25480711434E+03  0.30364776826E+03  0.12509000000E+03 0.  0.
         25    1    4    4    0    0 -0.79349775725E+02 -0.42783925015E+02 -0.17312200459E+03  0.23183094642E+03  0.12509000000E+03 0.  0.
<mgrwt>
<rscale>  2 0.45424782E+03</rscale>
<asrwt>0</asrwt>
<pdfrwt beam="1">  1       21 0.11811692E-01 0.45424782E+03</pdfrwt>
<pdfrwt beam="2">  1       21 0.94448658E-01 0.45424782E+03</pdfrwt>
<totfact> 0.52001602E+04</totfact>
</mgrwt>
</event>
<event>
 7    0  0.4748297E-002  0.4754934E+03  0.7546771E-02  0.1020381E+00
         21   -1    0    0  502  501  0.00000000000E+00  0.00000000000E+00  0.40728033015E+02  0.40728033015E+02  0.00000000000E+00 0.  1.
         21   -1    0    0  501  502 -0.00000000000E+00 -0.00000000000E+00 -0.13878277987E+04  0.13878277987E+04  0.00000000000E+00 0.  1.
      99926    2    1    2    0    0  0.00000000000E+00  0.00000000000E+00 -0.13470997657E+04  0.14285558318E+04  0.47549341281E+03 0.  0.
      99925    2    3    3    0    0  0.32372290896E+02 -0.10663812343E+03 -0.10424321657E+04  0.10808641448E+04  0.26302628158E+03 0.  0.
         25    1    4    4    0    0  0.18211781864E+02 -0.23462110762E+02 -0.59310155401E+03  0.60687651224E+03  0.12509000000E+03 0.  0.
         25    1    3    3    0    0 -0.32372290896E+02  0.10663812343E+03 -0.30466760002E+03  0.34769168697E+03  0.12509000000E+03 0.  0.
         25    1    4    4    0    0  0.14160509032E+02 -0.83176012665E+02 -0.44933061169E+03  0.47398763254E+03  0.12509000000E+03 0.  0.
<mgrwt>
<rscale>  2 0.47549341E+03</rscale>
<asrwt>0</asrwt>
<pdfrwt beam="1">  1       21 0.59894164E-02 0.47549341E+03</pdfrwt>
<pdfrwt beam="2">  1       21 0.20409233E+00 0.47549341E+03</pdfrwt>
<totfact> 0.21883278E+04</totfact>
</mgrwt>
</event>
<event>
 7    0  0.4748297E-002  0.4559173E+03  0.7546771E-02  0.1025972E+00
         21   -1    0    0  502  501  0.00000000000E+00  0.00000000000E+00  0.68981700050E+02  0.68981700050E+02  0.00000000000E+00 0.  1.
         21   -1    0    0  501  502 -0.00000000000E+00 -0.00000000000E+00 -0.75331779410E+03  0.75331779410E+03  0.00000000000E+00 0.  1.
      99926    2    1    2    0    0  0.14210854715E-13  0.00000000000E+00 -0.68433609405E+03  0.82229949415E+03  0.45591728248E+03 0.  0.
      99925    2    3    3    0    0 -0.95713407746E+02  0.48892100406E+02 -0.50123749082E+03  0.57587688863E+03  0.26238078199E+03 0.  0.
         25    1    4    4    0    0 -0.85736928956E+02  0.36853580353E+02 -0.30553793291E+03  0.34308882803E+03  0.12509000000E+03 0.  0.
         25    1    3    3    0    0  0.95713407746E+02 -0.48892100406E+02 -0.18309860323E+03  0.24642260552E+03  0.12509000000E+03 0.  0.
         25    1    4    4    0    0 -0.99764787897E+01  0.12038520053E+02 -0.19569955790E+03  0.23278806060E+03  0.12509000000E+03 0.  0.
<mgrwt>
<rscale>  2 0.45591728E+03</rscale>
<asrwt>0</asrwt>
<pdfrwt beam="1">  1       21 0.10144368E-01 0.45591728E+03</pdfrwt>
<pdfrwt beam="2">  1       21 0.11078203E+00 0.45591728E+03</pdfrwt>
<totfact> 0.46370404E+04</totfact>
</mgrwt>
</event>
<event>
 7    0  0.4748297E-002  0.4536102E+03  0.7546771E-02  0.1026651E+00
         21   -1    0    0  502  501  0.00000000000E+00  0.00000000000E+00  0.35968958562E+02  0.35968958562E+02  0.00000000000E+00 0.  1.
         21   -1    0    0  501  502 -0.00000000000E+00 -0.00000000000E+00 -0.14301371169E+04  0.14301371169E+04  0.00000000000E+00 0.  1.
      99926    2    1    2    0    0 -0.71054273576E-14  0.00000000000E+00 -0.13941681583E+04  0.14661060755E+04  0.45361015287E+03 0.  0.
      99925    2    3    3    0    0 -0.61970248235E+02  0.54501372609E+02 -0.11225183173E+04  0.11558612439E+04  0.26297743472E+03 0.  0.
         25    1    4    4    0    0 -0.70669439052E+02  0.41002840656E+02 -0.62398980044E+03  0.64162775946E+03  0.12509000000E+03 0.  0.
         25    1    3    3    0    0  0.61970248235E+02 -0.54501372609E+02 -0.27164984107E+03  0.31024483160E+03  0.12509000000E+03 0.  0.
         25    1    4    4    0    0  0.86991908172E+01  0.13498531952E+02 -0.49852851683E+03  0.51423348440E+03  0.12509000000E+03 0.  0.
<mgrwt>
<rscale>  2 0.45361015E+03</rscale>
<asrwt>0</asrwt>
<pdfrwt beam="1">  1       21 0.52895527E-02 0.45361015E+03</pdfrwt>
<pdfrwt beam="2">  1       21 0.21031428E+00 0.45361015E+03</pdfrwt>
<totfact> 0.24889779E+04</totfact>
</mgrwt>
</event>
<event>
 7    0  0.4748297E-002  0.4439969E+03  0.7546771E-02  0.1029528E+00
         21   -1    0    0  502  501  0.00000000000E+00  0.00000000000E+00  0.20188564208E+03  0.20188564208E+03  0.00000000000E+00 0. -1.
         21   -1    0    0  501  502 -0.00000000000E+00 -0.00000000000E+00 -0.24411494663E+03  0.24411494663E+03  0.00000000000E+00 0. -1.
      99926    2    1    2    0    0 -0.88817841970E-15  0.00000000000E+00 -0.42229304544E+02  0.44600058871E+03  0.44399685918E+03 0.  0.
      99925    2    3    3    0    0 -0.76093332018E+01  0.59384416940E+02 -0.11045161909E+03  0.29144896876E+03  0.26298009488E+03 0.  0.
         25    1    4    4    0    0  0.26903442744E+02  0.84225095939E+01 -0.34950987767E+02  0.13290528035E+03  0.12509000000E+03 0.  0.
         25    1    3    3    0    0  0.76093332018E+01 -0.59384416940E+02  0.68222314544E+02  0.15455161995E+03  0.12509000000E+03 0.  0.
         25    1    4    4    0    0 -0.34512775946E+02  0.50961907346E+02 -0.75500631320E+02  0.15854368841E+03  0.12509000000E+03 0.  0.
<mgrwt>
<rscale>  2 0.44399686E+03</rscale>
<asrwt>0</asrwt>
<pdfrwt beam="1">  1       21 0.29689065E-01 0.44399686E+03</pdfrwt>
<pdfrwt beam="2">  1       21 0.35899257E-01 0.44399686E+03</pdfrwt>
<totfact> 0.75635244E+04</totfact>
</mgrwt>
</event>
<event>
 7    0  0.4748297E-002  0.4461357E+03  0.7546771E-02  0.1028881E+00
         21   -1    0    0  502  501  0.00000000000E+00  0.00000000000E+00  0.15361833933E+03  0.15361833933E+03  0.00000000000E+00 0. -1.
         21   -1    0    0  501  502 -0.00000000000E+00 -0.00000000000E+00 -0.32391485141E+03  0.32391485141E+03  0.00000000000E+00 0. -1.
      99926    2    1    2    0    0  0.00000000000E+00  0.00000000000E+00 -0.17029651209E+03  0.47753319074E+03  0.44613568141E+03 0.  0.
      99925    2    3    3    0    0 -0.83497056808E+02  0.60787819745E+02 -0.89156968766E+02  0.29615499162E+03  0.26285337445E+03 0.  0.
         25    1    4    4    0    0 -0.79272041518E+02  0.42305437827E+02 -0.65867339154E+02  0.16751065967E+03  0.12509000000E+03 0.  0.
         25    1    4    4    0    0 -0.42250152905E+01  0.18482381918E+02 -0.23289629612E+02  0.12864433195E+03  0.12509000000E+03 0.  0.
         25    1    3    3    0    0  0.83497056808E+02 -0.60787819745E+02 -0.81139543322E+02  0.18137819912E+03  0.12509000000E+03 0.  0.
<mgrwt>
<rscale>  2 0.44613568E+03</rscale>
<asrwt>0</asrwt>
<pdfrwt beam="1">  1       21 0.22590933E-01 0.44613568E+03</pdfrwt>
<pdfrwt beam="2">  1       21 0.47634536E-01 0.44613568E+03</pdfrwt>
<totfact> 0.71800890E+04</totfact>
</mgrwt>
</event>
<event>
 7    0  0.4748297E-002  0.4522865E+03  0.7546771E-02  0.1027042E+00
         21   -1    0    0  502  501  0.00000000000E+00  0.00000000000E+00  0.76866517577E+03  0.76866517577E+03  0.00000000000E+00 0.  1.
         21   -1    0    0  501  502 -0.00000000000E+00 -0.00000000000E+00 -0.66531908005E+02  0.66531908005E+02  0.00000000000E+00 0.  1.
      99926    2    1    2    0    0  0.00000000000E+00  0.00000000000E+00  0.70213326777E+03  0.83519708378E+03  0.45228646127E+03 0.  0.
      99925    2    3    3    0    0 -0.73916414236E+02 -0.63819788228E+02  0.34702445389E+03  0.44624158574E+03  0.26299996118E+03 0.  0.
         25    1    3    3    0    0  0.73916414236E+02  0.63819788228E+02  0.35510881388E+03  0.38895549804E+03  0.12509000000E+03 0.  0.
         25    1    4    4    0    0 -0.58482821172E+01 -0.53497756142E+02  0.19312998388E+03  0.23631104733E+03  0.12509000000E+03 0.  0.
         25    1    4    4    0    0 -0.68068132119E+02 -0.10322032086E+02  0.15389447001E+03  0.20993053841E+03  0.12509000000E+03 0.  0.
<mgrwt>
<rscale>  2 0.45228646E+03</rscale>
<asrwt>0</asrwt>
<pdfrwt beam="1">  1       21 0.11303899E+00 0.45228646E+03</pdfrwt>
<pdfrwt beam="2">  1       21 0.97841046E-02 0.45228646E+03</pdfrwt>
<totfact> 0.47103842E+04</totfact>
</mgrwt>
</event>
<event>
 7    0  0.4748297E-002  0.4514850E+03  0.7546771E-02  0.1027280E+00
         21   -1    0    0  502  501  0.00000000000E+00  0.00000000000E+00  0.28763110043E+03  0.28763110043E+03  0.00000000000E+00 0.  1.
         21   -1    0    0  501  502 -0.00000000000E+00 -0.00000000000E+00 -0.17717025637E+03  0.17717025637E+03  0.00000000000E+00 0.  1.
      99926    2    1    2    0    0  0.35527136788E-14  0.00000000000E+00  0.11046084406E+03  0.46480135680E+03  0.45148499777E+03 0.  0.
      99925    2    3    3    0    0  0.16226550490E+02  0.10377284996E+03  0.37099426628E+02  0.28574407268E+03  0.26313723090E+03 0.  0.
         25    1    4    4    0    0 -0.27000343616E+02  0.57673603176E+02  0.38642344030E+02  0.14558846764E+03  0.12509000000E+03 0.  0.
         25    1    4    4    0    0  0.43226894105E+02  0.46099246785E+02 -0.15429174025E+01  0.14015560503E+03  0.12509000000E+03 0.  0.
         25    1    3    3    0    0 -0.16226550490E+02 -0.10377284996E+03  0.73361417428E+02  0.17905728412E+03  0.12509000000E+03 0.  0.
<mgrwt>
<rscale>  2 0.45148500E+03</rscale>
<asrwt>0</asrwt>
<pdfrwt beam="1">  1       21 0.42298691E-01 0.45148500E+03</pdfrwt>
<pdfrwt beam="2">  1       21 0.26054449E-01 0.45148500E+03</pdfrwt>
<totfact> 0.69749014E+04</totfact>
</mgrwt>
</event>
<event>
 7    0  0.4748297E-002  0.4474622E+03  0.7546771E-02  0.1028482E+00
         21   -1    0    0  502  501  0.00000000000E+00  0.00000000000E+00  0.30092071924E+02  0.30092071924E+02  0.00000000000E+00 0.  1.
         21   -1    0    0  501  502 -0.00000000000E+00 -0.00000000000E+00 -0.16634147686E+04  0.16634147686E+04  0.00000000000E+00 0.  1.
      99926    2    1    2    0    0  0.00000000000E+00  0.00000000000E+00 -0.16333226966E+04  0.16935068405E+04  0.44746216312E+03 0.  0.
      99925    2    3    3    0    0 -0.52227438414E+02  0.24438590152E+02 -0.69871143170E+03  0.74880017985E+03  0.26301919043E+03 0.  0.
         25    1    3    3    0    0  0.52227438414E+02 -0.24438590152E+02 -0.93461126494E+03  0.94470666064E+03  0.12509000000E+03 0.  0.
         25    1    4    4    0    0 -0.16272470185E+00  0.44647885949E+01 -0.24890880295E+03  0.27860915473E+03  0.12509000000E+03 0.  0.
         25    1    4    4    0    0 -0.52064713712E+02  0.19973801557E+02 -0.44980262876E+03  0.47019102512E+03  0.12509000000E+03 0.  0.
<mgrwt>
<rscale>  2 0.44746216E+03</rscale>
<asrwt>0</asrwt>
<pdfrwt beam="1">  1       21 0.44253052E-02 0.44746216E+03</pdfrwt>
<pdfrwt beam="2">  1       21 0.24461979E+00 0.44746216E+03</pdfrwt>
<totfact> 0.20575112E+04</totfact>
</mgrwt>
</event>
<event>
 7    0  0.4748297E-002  0.4465512E+03  0.7546771E-02  0.1028756E+00
         21   -1    0    0  502  501  0.00000000000E+00  0.00000000000E+00  0.11359928472E+03  0.11359928472E+03  0.00000000000E+00 0. -1.
         21   -1    0    0  501  502 -0.00000000000E+00 -0.00000000000E+00 -0.43884074586E+03  0.43884074586E+03  0.00000000000E+00 0. -1.
      99926    2    1    2    0    0  0.00000000000E+00  0.00000000000E+00 -0.32524146114E+03  0.55244003058E+03  0.44655120573E+03 0.  0.
      99925    2    3    3    0    0 -0.87341804904E+02  0.10499785937E+02 -0.27707037033E+03  0.39210663269E+03  0.26313643779E+03 0.  0.
         25    1    4    4    0    0 -0.54530681045E+02 -0.32224275722E+02 -0.12354802808E+03  0.18687863030E+03  0.12509000000E+03 0.  0.
         25    1    3    3    0    0  0.87341804904E+02 -0.10499785937E+02 -0.48171090813E+02  0.16033339789E+03  0.12509000000E+03 0.  0.
         25    1    4    4    0    0 -0.32811123860E+02  0.42724061659E+02 -0.15352234225E+03  0.20522800239E+03  0.12509000000E+03 0.  0.
<mgrwt>
<rscale>  2 0.44655121E+03</rscale>
<asrwt>0</asrwt>
<pdfrwt beam="1">  1       21 0.16705777E-01 0.44655121E+03</pdfrwt>
<pdfrwt beam="2">  1       21 0.64535403E-01 0.44655121E+03</pdfrwt>
<totfact> 0.66008206E+04</totfact>
</mgrwt>
</event>
<event>
 7    0  0.4748297E-002  0.4557799E+03  0.7546771E-02  0.1026012E+00
         21   -1    0    0  502  501  0.00000000000E+00  0.00000000000E+00  0.31247982113E+03  0.31247982113E+03  0.00000000000E+00 0.  1.
         21   -1    0    0  501  502 -0.00000000000E+00 -0.00000000000E+00 -0.16619900102E+03  0.16619900102E+03  0.00000000000E+00 0.  1.
      99926    2    1    2    0    0 -0.14210854715E-13  0.00000000000E+00  0.14628082012E+03  0.47867882215E+03  0.45577992106E+03 0.  0.
      99925    2    3    3    0    0 -0.92105766675E+02 -0.58021119204E+02  0.57439875106E+02  0.29055613841E+03  0.26319879898E+03 0.  0.
         25    1    4    4    0    0 -0.72701527537E+02 -0.52894883062E+02  0.70393990234E+01  0.15420908533E+03  0.12509000000E+03 0.  0.
         25    1    3    3    0    0  0.92105766675E+02  0.58021119204E+02  0.88840945010E+02  0.18812268374E+03  0.12509000000E+03 0.  0.
         25    1    4    4    0    0 -0.19404239138E+02 -0.51262361411E+01  0.50400476083E+02  0.13634705308E+03  0.12509000000E+03 0.  0.
<mgrwt>
<rscale>  2 0.45577992E+03</rscale>
<asrwt>0</asrwt>
<pdfrwt beam="1">  1       21 0.45952915E-01 0.45577992E+03</pdfrwt>
<pdfrwt beam="2">  1       21 0.24441030E-01 0.45577992E+03</pdfrwt>
<totfact> 0.66384507E+04</totfact>
</mgrwt>
</event>
<event>
 7    0  0.4748297E-002  0.4473721E+03  0.7546771E-02  0.1028509E+00
         21   -1    0    0  502  501  0.00000000000E+00  0.00000000000E+00  0.36650738403E+02  0.36650738403E+02  0.00000000000E+00 0. -1.
         21   -1    0    0  501  502 -0.00000000000E+00 -0.00000000000E+00 -0.13651961588E+04  0.13651961588E+04  0.00000000000E+00 0. -1.
      99926    2    1    2    0    0 -0.35527136788E-14  0.00000000000E+00 -0.13285454204E+04  0.14018468972E+04  0.44737209249E+03 0.  0.
      99925    2    3    3    0    0 -0.16491472132E+02 -0.32289485898E+02 -0.53021249815E+03  0.59296029056E+03  0.26298675526E+03 0.  0.
         25    1    4    4    0    0 -0.20183598658E+02 -0.25369454227E+01 -0.18224988500E+03  0.22198275255E+03  0.12509000000E+03 0.  0.
         25    1    4    4    0    0  0.36921265260E+01 -0.29752540476E+02 -0.34796261314E+03  0.37097753801E+03  0.12509000000E+03 0.  0.
         25    1    3    3    0    0  0.16491472132E+02  0.32289485898E+02 -0.79833292227E+03  0.80888660666E+03  0.12509000000E+03 0.  0.
<mgrwt>
<rscale>  2 0.44737209E+03</rscale>
<asrwt>0</asrwt>
<pdfrwt beam="1">  1       21 0.53898141E-02 0.44737209E+03</pdfrwt>
<pdfrwt beam="2">  1       21 0.20076415E+00 0.44737209E+03</pdfrwt>
<totfact> 0.27900418E+04</totfact>
</mgrwt>
</event>
<event>
 7    0  0.4748297E-002  0.4588356E+03  0.7546771E-02  0.1025119E+00
         21   -1    0    0  502  501  0.00000000000E+00  0.00000000000E+00  0.19725741005E+03  0.19725741005E+03  0.00000000000E+00 0.  1.
         21   -1    0    0  501  502 -0.00000000000E+00 -0.00000000000E+00 -0.26682151211E+03  0.26682151211E+03  0.00000000000E+00 0.  1.
      99926    2    1    2    0    0  0.71054273576E-14  0.35527136788E-14 -0.69564102053E+02  0.46407892216E+03  0.45883557153E+03 0.  0.
      99925    2    3    3    0    0  0.55684543416E+02  0.18390565160E+02 -0.14574996593E+03  0.30631081633E+03  0.26295300411E+03 0.  0.
         25    1    4    4    0    0 -0.12161288200E+02  0.12605082322E+02 -0.79386850875E+02  0.14918634396E+03  0.12509000000E+03 0.  0.
         25    1    3    3    0    0 -0.55684543416E+02 -0.18390565160E+02  0.76185863877E+02  0.15776810583E+03  0.12509000000E+03 0.  0.
         25    1    4    4    0    0  0.67845831615E+02  0.57854828376E+01 -0.66363115055E+02  0.15712447237E+03  0.12509000000E+03 0.  0.
<mgrwt>
<rscale>  2 0.45883557E+03</rscale>
<asrwt>0</asrwt>
<pdfrwt beam="1">  1       21 0.29008443E-01 0.45883557E+03</pdfrwt>
<pdfrwt beam="2">  1       21 0.39238458E-01 0.45883557E+03</pdfrwt>
<totfact> 0.65847066E+04</totfact>
</mgrwt>
</event>
<event>
 7    0  0.4748297E-002  0.4539524E+03  0.7546771E-02  0.1026550E+00
         21   -1    0    0  502  501  0.00000000000E+00  0.00000000000E+00  0.58999941256E+03  0.58999941256E+03  0.00000000000E+00 0.  1.
         21   -1    0    0  501  502 -0.00000000000E+00 -0.00000000000E+00 -0.87319079715E+02  0.87319079715E+02  0.00000000000E+00 0.  1.
      99926    2    1    2    0    0 -0.35527136788E-14  0.00000000000E+00  0.50268033284E+03  0.67731849227E+03  0.45395244569E+03 0.  0.
      99925    2    3    3    0    0  0.29316532843E+02  0.10788794915E+03  0.30277519925E+03  0.41634178985E+03  0.26299885176E+03 0.  0.
         25    1    4    4    0    0  0.51208110013E+02  0.36132775404E+02  0.14904698737E+03  0.20442690755E+03  0.12509000000E+03 0.  0.
         25    1    3    3    0    0 -0.29316532843E+02 -0.10788794915E+03  0.19990513359E+03  0.26097670242E+03  0.12509000000E+03 0.  0.
         25    1    4    4    0    0 -0.21891577171E+02  0.71755173744E+02  0.15372821189E+03  0.21191488230E+03  0.12509000000E+03 0.  0.
<mgrwt>
<rscale>  2 0.45395245E+03</rscale>
<asrwt>0</asrwt>
<pdfrwt beam="1">  1       21 0.86764617E-01 0.45395245E+03</pdfrwt>
<pdfrwt beam="2">  1       21 0.12841041E-01 0.45395245E+03</pdfrwt>
<totfact> 0.54601387E+04</totfact>
</mgrwt>
</event>
<event>
 7    0  0.4748297E-002  0.4485176E+03  0.7546771E-02  0.1028165E+00
         21   -1    0    0  502  501  0.00000000000E+00  0.00000000000E+00  0.56908789958E+02  0.56908789958E+02  0.00000000000E+00 0. -1.
         21   -1    0    0  501  502 -0.00000000000E+00 -0.00000000000E+00 -0.88373022764E+03  0.88373022764E+03  0.00000000000E+00 0. -1.
      99926    2    1    2    0    0  0.00000000000E+00  0.00000000000E+00 -0.82682143768E+03  0.94063901760E+03  0.44851763802E+03 0.  0.
      99925    2    3    3    0    0  0.27095792231E+02 -0.11727987994E+02 -0.30803957580E+03  0.40617306361E+03  0.26309019305E+03 0.  0.
         25    1    3    3    0    0 -0.27095792231E+02  0.11727987994E+02 -0.51878186188E+03  0.53446595399E+03  0.12509000000E+03 0.  0.
         25    1    4    4    0    0  0.22557398653E+02 -0.44221668766E+02 -0.14090627086E+03  0.19484988450E+03  0.12509000000E+03 0.  0.
         25    1    4    4    0    0  0.45383935772E+01  0.32493680772E+02 -0.16713330494E+03  0.21132317911E+03  0.12509000000E+03 0.  0.
<mgrwt>
<rscale>  2 0.44851764E+03</rscale>
<asrwt>0</asrwt>
<pdfrwt beam="1">  1       21 0.83689403E-02 0.44851764E+03</pdfrwt>
<pdfrwt beam="2">  1       21 0.12996032E+00 0.44851764E+03</pdfrwt>
<totfact> 0.43695662E+04</totfact>
</mgrwt>
</event>
<event>
 7    0  0.4748297E-002  0.4592398E+03  0.7546771E-02  0.1025002E+00
         21   -1    0    0  502  501  0.00000000000E+00  0.00000000000E+00  0.54296556149E+03  0.54296556149E+03  0.00000000000E+00 0. -1.
         21   -1    0    0  501  502 -0.00000000000E+00 -0.00000000000E+00 -0.97106149361E+02  0.97106149361E+02  0.00000000000E+00 0. -1.
      99926    2    1    2    0    0  0.00000000000E+00  0.71054273576E-14  0.44585941213E+03  0.64007171085E+03  0.45923978448E+03 0.  0.
      99925    2    3    3    0    0 -0.10606810746E+03  0.47464551129E+02  0.25907981481E+03  0.38701548566E+03  0.26297396955E+03 0.  0.
         25    1    4    4    0    0 -0.13328866170E+02  0.37011605096E+02  0.12720679155E+03  0.18269262027E+03  0.12509000000E+03 0.  0.
         25    1    4    4    0    0 -0.92739241291E+02  0.10452946033E+02  0.13187302326E+03  0.20432286539E+03  0.12509000000E+03 0.  0.
         25    1    3    3    0    0  0.10606810746E+03 -0.47464551129E+02  0.18677959732E+03  0.25305622519E+03  0.12509000000E+03 0.  0.
<mgrwt>
<rscale>  2 0.45923978E+03</rscale>
<asrwt>0</asrwt>
<pdfrwt beam="1">  1       21 0.79847875E-01 0.45923978E+03</pdfrwt>
<pdfrwt beam="2">  1       21 0.14280316E-01 0.45923978E+03</pdfrwt>
<totfact> 0.54432826E+04</totfact>
</mgrwt>
</event>
<event>
 7    0  0.4748297E-002  0.4549065E+03  0.7546771E-02  0.1026269E+00
         21   -1    0    0  502  501  0.00000000000E+00  0.00000000000E+00  0.37324188816E+03  0.37324188816E+03  0.00000000000E+00 0. -1.
         21   -1    0    0  501  502 -0.00000000000E+00 -0.00000000000E+00 -0.13860978789E+03  0.13860978789E+03  0.00000000000E+00 0. -1.
      99926    2    1    2    0    0  0.00000000000E+00  0.00000000000E+00  0.23463210027E+03  0.51185167605E+03  0.45490649127E+03 0.  0.
      99925    2    3    3    0    0  0.11002058504E+03  0.15202960836E+02  0.12404256568E+03  0.31131935344E+03  0.26305421984E+03 0.  0.
         25    1    4    4    0    0  0.44913948703E+02 -0.21887661832E+02  0.88703627698E+02  0.16128290113E+03  0.12509000000E+03 0.  0.
         25    1    4    4    0    0  0.65106636335E+02  0.37090622669E+02  0.35338937983E+02  0.15003645231E+03  0.12509000000E+03 0.  0.
         25    1    3    3    0    0 -0.11002058504E+03 -0.15202960836E+02  0.11058953459E+03  0.20053232261E+03  0.12509000000E+03 0.  0.
<mgrwt>
<rscale>  2 0.45490649E+03</rscale>
<asrwt>0</asrwt>
<pdfrwt beam="1">  1       21 0.54888513E-01 0.45490649E+03</pdfrwt>
<pdfrwt beam="2">  1       21 0.20383792E-01 0.45490649E+03</pdfrwt>
<totfact> 0.64493655E+04</totfact>
</mgrwt>
</event>
<event>
 7    0  0.4748297E-002  0.4549289E+03  0.7546771E-02  0.1026262E+00
         21   -1    0    0  502  501  0.00000000000E+00  0.00000000000E+00  0.14327500823E+03  0.14327500823E+03  0.00000000000E+00 0.  1.
         21   -1    0    0  501  502 -0.00000000000E+00 -0.00000000000E+00 -0.36112417030E+03  0.36112417030E+03  0.00000000000E+00 0.  1.
      99926    2    1    2    0    0  0.00000000000E+00  0.14210854715E-13 -0.21784916207E+03  0.50439917852E+03  0.45492886683E+03 0.  0.
      99925    2    3    3    0    0 -0.39513862921E+02 -0.90903424921E+02 -0.76695551843E+02  0.29133433439E+03  0.26299944619E+03 0.  0.
         25    1    4    4    0    0 -0.17473172032E+02 -0.42178134667E+01 -0.46244562836E+02  0.13457031390E+03  0.12509000000E+03 0.  0.
         25    1    4    4    0    0 -0.22040690889E+02 -0.86685611454E+02 -0.30450989006E+02  0.15676402049E+03  0.12509000000E+03 0.  0.
         25    1    3    3    0    0  0.39513862921E+02  0.90903424921E+02 -0.14115361023E+03  0.21306484413E+03  0.12509000000E+03 0.  0.
<mgrwt>
<rscale>  2 0.45492887E+03</rscale>
<asrwt>0</asrwt>
<pdfrwt beam="1">  1       21 0.21069854E-01 0.45492887E+03</pdfrwt>
<pdfrwt beam="2">  1       21 0.53106495E-01 0.45492887E+03</pdfrwt>
<totfact> 0.64999391E+04</totfact>
</mgrwt>
</event>
<event>
 7    0  0.4748297E-002  0.4418039E+03  0.7546771E-02  0.1030195E+00
         21   -1    0    0  502  501  0.00000000000E+00  0.00000000000E+00  0.17335071875E+03  0.17335071875E+03  0.00000000000E+00 0.  1.
         21   -1    0    0  501  502 -0.00000000000E+00 -0.00000000000E+00 -0.28149683849E+03  0.28149683849E+03  0.00000000000E+00 0.  1.
      99926    2    1    2    0    0  0.00000000000E+00  0.00000000000E+00 -0.10814611974E+03  0.45484755725E+03  0.44180393515E+03 0.  0.
      99925    2    3    3    0    0 -0.25653377025E+02  0.69661799600E+02 -0.11475518527E+01  0.27427329633E+03  0.26403344888E+03 0.  0.
         25    1    3    3    0    0  0.25653377025E+02 -0.69661799600E+02 -0.10699856789E+03  0.18057426092E+03  0.12509000000E+03 0.  0.
         25    1    4    4    0    0 -0.36424346724E+02  0.43743496392E+01 -0.18634510999E+02  0.13168379198E+03  0.12509000000E+03 0.  0.
         25    1    4    4    0    0  0.10770969699E+02  0.65287449961E+02  0.17486959146E+02  0.14258950435E+03  0.12509000000E+03 0.  0.
<mgrwt>
<rscale>  2 0.44180394E+03</rscale>
<asrwt>0</asrwt>
<pdfrwt beam="1">  1       21 0.25492753E-01 0.44180394E+03</pdfrwt>
<pdfrwt beam="2">  1       21 0.41396593E-01 0.44180394E+03</pdfrwt>
<totfact> 0.76253989E+04</totfact>
</mgrwt>
</event>
<event>
 7    0  0.4748297E-002  0.4595143E+03  0.7546771E-02  0.1024922E+00
         21   -1    0    0  502  501  0.00000000000E+00  0.00000000000E+00  0.46539292661E+03  0.46539292661E+03  0.00000000000E+00 0.  1.
         21   -1    0    0  501  502 -0.00000000000E+00 -0.00000000000E+00 -0.11342750187E+03  0.11342750187E+03  0.00000000000E+00 0.  1.
      99926    2    1    2    0    0  0.00000000000E+00  0.00000000000E+00  0.35196542474E+03  0.57882042847E+03  0.45951433950E+03 0.  0.
      99925    2    3    3    0    0  0.56649611178E+02  0.10210641471E+03  0.20676262817E+03  0.35439614591E+03  0.26307973213E+03 0.  0.
         25    1    4    4    0    0  0.52097124418E+02  0.26864084707E+02  0.72494954437E+02  0.15600902518E+03  0.12509000000E+03 0.  0.
         25    1    3    3    0    0 -0.56649611178E+02 -0.10210641471E+03  0.14520279657E+03  0.22442428256E+03  0.12509000000E+03 0.  0.
         25    1    4    4    0    0  0.45524867594E+01  0.75242330004E+02  0.13426767373E+03  0.19838712073E+03  0.12509000000E+03 0.  0.
<mgrwt>
<rscale>  2 0.45951434E+03</rscale>
<asrwt>0</asrwt>
<pdfrwt beam="1">  1       21 0.68440136E-01 0.45951434E+03</pdfrwt>
<pdfrwt beam="2">  1       21 0.16680515E-01 0.45951434E+03</pdfrwt>
<totfact> 0.57906667E+04</totfact>
</mgrwt>
</event>
<event>
 7    0  0.4748297E-002  0.3970141E+03  0.7546771E-02  0.1044819E+00
         21   -1    0    0  502  501  0.00000000000E+00  0.00000000000E+00  0.56631510369E+02  0.56631510369E+02  0.00000000000E+00 0.  1.
         21   -1    0    0  501  502 -0.00000000000E+00 -0.00000000000E+00 -0.69581474844E+03  0.69581474844E+03  0.00000000000E+00 0.  1.
      99926    2    1    2    0    0 -0.35527136788E-14  0.00000000000E+00 -0.63918323807E+03  0.75244625881E+03  0.39701405588E+03 0.  0.
      99925    2    3    3    0    0  0.27136197076E+02  0.25350666136E+02 -0.44837608365E+03  0.52128850371E+03  0.26328988253E+03 0.  0.
         25    1    4    4    0    0  0.46697966541E+02  0.25221124310E+02 -0.27344174470E+03  0.30534357867E+03  0.12509000000E+03 0.  0.
         25    1    3    3    0    0 -0.27136197076E+02 -0.25350666136E+02 -0.19080715442E+03  0.23115775510E+03  0.12509000000E+03 0.  0.
         25    1    4    4    0    0 -0.19561769465E+02  0.12954182574E+00 -0.17493433895E+03  0.21594492504E+03  0.12509000000E+03 0.  0.
<mgrwt>
<rscale>  2 0.39701406E+03</rscale>
<asrwt>0</asrwt>
<pdfrwt beam="1">  1       21 0.83281636E-02 0.39701406E+03</pdfrwt>
<pdfrwt beam="2">  1       21 0.10232569E+00 0.39701406E+03</pdfrwt>
<totfact> 0.81331563E+04</totfact>
</mgrwt>
</event>
<event>
 7    0  0.4748297E-002  0.4545399E+03  0.7546771E-02  0.1026377E+00
         21   -1    0    0  502  501  0.00000000000E+00  0.00000000000E+00  0.16613952230E+03  0.16613952230E+03  0.00000000000E+00 0.  1.
         21   -1    0    0  501  502 -0.00000000000E+00 -0.00000000000E+00 -0.31089310812E+03  0.31089310812E+03  0.00000000000E+00 0.  1.
      99926    2    1    2    0    0  0.00000000000E+00  0.14210854715E-13 -0.14475358582E+03  0.47703263043E+03  0.45453991011E+03 0.  0.
      99925    2    3    3    0    0 -0.34466777821E+02  0.83519198074E+02 -0.16181773780E+03  0.32178409226E+03  0.26305247869E+03 0.  0.
         25    1    4    4    0    0  0.88208286903E+01  0.38333313992E+02 -0.42228957053E+02  0.13776081770E+03  0.12509000000E+03 0.  0.
         25    1    3    3    0    0  0.34466777821E+02 -0.83519198074E+02  0.17064151982E+02  0.15524853817E+03  0.12509000000E+03 0.  0.
         25    1    4    4    0    0 -0.43287606511E+02  0.45185884082E+02 -0.11958878075E+03  0.18402327456E+03  0.12509000000E+03 0.  0.
<mgrwt>
<rscale>  2 0.45453991E+03</rscale>
<asrwt>0</asrwt>
<pdfrwt beam="1">  1       21 0.24432283E-01 0.45453991E+03</pdfrwt>
<pdfrwt beam="2">  1       21 0.45719574E-01 0.45453991E+03</pdfrwt>
<totfact> 0.67161651E+04</totfact>
</mgrwt>
</event>
<event>
 7    0  0.4748297E-002  0.4765282E+03  0.7546771E-02  0.1020094E+00
         21   -1    0    0  502  501  0.00000000000E+00  0.00000000000E+00  0.32623268110E+03  0.32623268110E+03  0.00000000000E+00 0.  1.
         21   -1    0    0  501  502 -0.00000000000E+00 -0.00000000000E+00 -0.17401620337E+03  0.17401620337E+03  0.00000000000E+00 0.  1.
      99926    2    1    2    0    0  0.14210854715E-13  0.00000000000E+00  0.15221647773E+03  0.50024888446E+03  0.47652816319E+03 0.  0.
      99925    2    3    3    0    0 -0.91948337539E+02  0.97745359728E+01 -0.46990442931E+01  0.27929633869E+03  0.26350393823E+03 0.  0.
         25    1    4    4    0    0 -0.89130649520E+02 -0.14285861822E+01 -0.46790989214E+01  0.15367405640E+03  0.12509000000E+03 0.  0.
         25    1    4    4    0    0 -0.28176880181E+01  0.11203122155E+02 -0.19945371659E-01  0.12562228230E+03  0.12509000000E+03 0.  0.
         25    1    3    3    0    0  0.91948337539E+02 -0.97745359728E+01  0.15691552202E+03  0.22095254577E+03  0.12509000000E+03 0.  0.
<mgrwt>
<rscale>  2 0.47652816E+03</rscale>
<asrwt>0</asrwt>
<pdfrwt beam="1">  1       21 0.47975394E-01 0.47652816E+03</pdfrwt>
<pdfrwt beam="2">  1       21 0.25590618E-01 0.47652816E+03</pdfrwt>
<totfact> 0.55199290E+04</totfact>
</mgrwt>
</event>
<event>
 7    0  0.4748297E-002  0.4542727E+03  0.7546771E-02  0.1026455E+00
         21   -1    0    0  502  501  0.00000000000E+00  0.00000000000E+00  0.87262922898E+02  0.87262922898E+02  0.00000000000E+00 0. -1.
         21   -1    0    0  501  502 -0.00000000000E+00 -0.00000000000E+00 -0.59121244292E+03  0.59121244292E+03  0.00000000000E+00 0. -1.
      99926    2    1    2    0    0  0.00000000000E+00  0.00000000000E+00 -0.50394952002E+03  0.67847536581E+03  0.45427271907E+03 0.  0.
      99925    2    3    3    0    0  0.52467625244E+02 -0.95286458208E+02 -0.27519714220E+03  0.39597311932E+03  0.26311382201E+03 0.  0.
         25    1    4    4    0    0 -0.28605899419E+01 -0.27776515784E+02 -0.15898339292E+03  0.20421298961E+03  0.12509000000E+03 0.  0.
         25    1    3    3    0    0 -0.52467625244E+02  0.95286458208E+02 -0.22875237782E+03  0.28250224650E+03  0.12509000000E+03 0.  0.
         25    1    4    4    0    0  0.55328215186E+02 -0.67509942424E+02 -0.11621374928E+03  0.19176012970E+03  0.12509000000E+03 0.  0.
<mgrwt>
<rscale>  2 0.45427272E+03</rscale>
<asrwt>0</asrwt>
<pdfrwt beam="1">  1       21 0.12832782E-01 0.45427272E+03</pdfrwt>
<pdfrwt beam="2">  1       21 0.86943008E-01 0.45427272E+03</pdfrwt>
<totfact> 0.54398625E+04</totfact>
</mgrwt>
</event>
<event>
 7    0  0.4748297E-002  0.4560004E+03  0.7546771E-02  0.1025948E+00
         21   -1    0    0  502  501  0.00000000000E+00  0.00000000000E+00  0.89204780853E+02  0.89204780853E+02  0.00000000000E+00 0. -1.
         21   -1    0    0  501  502 -0.00000000000E+00 -0.00000000000E+00 -0.58275007967E+03  0.58275007967E+03  0.00000000000E+00 0. -1.
      99926    2    1    2    0    0  0.00000000000E+00  0.00000000000E+00 -0.49354529882E+03  0.67195486052E+03  0.45600040855E+03 0.  0.
      99925    2    3    3    0    0  0.64762023981E+02  0.12653737495E+02 -0.17407809848E+03  0.32258251329E+03  0.26344270095E+03 0.  0.
         25    1    4    4    0    0  0.53012503109E+02 -0.49135462908E+01 -0.49222386199E+02  0.14458499170E+03  0.12509000000E+03 0.  0.
         25    1    3    3    0    0 -0.64762023981E+02 -0.12653737495E+02 -0.31946720033E+03  0.34937234723E+03  0.12509000000E+03 0.  0.
         25    1    4    4    0    0  0.11749520873E+02  0.17567283786E+02 -0.12485571228E+03  0.17799752158E+03  0.12509000000E+03 0.  0.
<mgrwt>
<rscale>  2 0.45600041E+03</rscale>
<asrwt>0</asrwt>
<pdfrwt beam="1">  1       21 0.13118351E-01 0.45600041E+03</pdfrwt>
<pdfrwt beam="2">  1       21 0.85698539E-01 0.45600041E+03</pdfrwt>
<totfact> 0.54025139E+04</totfact>
</mgrwt>
</event>
<event>
 7    0  0.4748297E-002  0.4705781E+03  0.7546771E-02  0.1021757E+00
         21   -1    0    0  502  501  0.00000000000E+00  0.00000000000E+00  0.55933285253E+02  0.55933285253E+02  0.00000000000E+00 0.  1.
         21   -1    0    0  501  502 -0.00000000000E+00 -0.00000000000E+00 -0.98976748093E+03  0.98976748093E+03  0.00000000000E+00 0.  1.
      99926    2    1    2    0    0  0.00000000000E+00  0.00000000000E+00 -0.93383419568E+03  0.10457007662E+04  0.47057814163E+03 0.  0.
      99925    2    3    3    0    0  0.11875672457E+03  0.34323764106E+02 -0.64585043993E+03  0.70826420609E+03  0.26312376262E+03 0.  0.
         25    1    4    4    0    0  0.73315640524E+02  0.53778525475E+02 -0.30852619920E+03  0.34511336781E+03  0.12509000000E+03 0.  0.
         25    1    4    4    0    0  0.45441084047E+02 -0.19454761369E+02 -0.33732424073E+03  0.36315083828E+03  0.12509000000E+03 0.  0.
         25    1    3    3    0    0 -0.11875672457E+03 -0.34323764106E+02 -0.28798375575E+03  0.33743656009E+03  0.12509000000E+03 0.  0.
<mgrwt>
<rscale>  2 0.47057814E+03</rscale>
<asrwt>0</asrwt>
<pdfrwt beam="1">  1       21 0.82254834E-02 0.47057814E+03</pdfrwt>
<pdfrwt beam="2">  1       21 0.14555404E+00 0.47057814E+03</pdfrwt>
<totfact> 0.33209683E+04</totfact>
</mgrwt>
</event>
<event>
 7    0  0.4748297E-002  0.4381541E+03  0.7546771E-02  0.1031315E+00
         21   -1    0    0  502  501  0.00000000000E+00  0.00000000000E+00  0.28007290048E+02  0.28007290048E+02  0.00000000000E+00 0.  1.
         21   -1    0    0  501  502 -0.00000000000E+00 -0.00000000000E+00 -0.17136518124E+04  0.17136518124E+04  0.00000000000E+00 0.  1.
      99926    2    1    2    0    0  0.14210854715E-13  0.00000000000E+00 -0.16856445224E+04  0.17416591025E+04  0.43815405215E+03 0.  0.
      99925    2    3    3    0    0  0.86969710492E+02 -0.25192907799E+02 -0.94476670398E+03  0.98485935152E+03  0.26299316377E+03 0.  0.
         25    1    4    4    0    0  0.83936464584E+02 -0.12523194545E+01 -0.49867095166E+03  0.52092909740E+03  0.12509000000E+03 0.  0.
         25    1    3    3    0    0 -0.86969710492E+02  0.25192907799E+02 -0.74087781842E+03  0.75679975097E+03  0.12509000000E+03 0.  0.
         25    1    4    4    0    0  0.30332459077E+01 -0.23940588344E+02 -0.44609575232E+03  0.46393025412E+03  0.12509000000E+03 0.  0.
<mgrwt>
<rscale>  2 0.43815405E+03</rscale>
<asrwt>0</asrwt>
<pdfrwt beam="1">  1       21 0.41187177E-02 0.43815405E+03</pdfrwt>
<pdfrwt beam="2">  1       21 0.25200771E+00 0.43815405E+03</pdfrwt>
<totfact> 0.21025895E+04</totfact>
</mgrwt>
</event>
<event>
 7    0  0.4748297E-002  0.4560445E+03  0.7546771E-02  0.1025935E+00
         21   -1    0    0  502  501  0.00000000000E+00  0.00000000000E+00  0.19940930201E+03  0.19940930201E+03  0.00000000000E+00 0. -1.
         21   -1    0    0  501  502 -0.00000000000E+00 -0.00000000000E+00 -0.26074081612E+03  0.26074081612E+03  0.00000000000E+00 0. -1.
      99926    2    1    2    0    0  0.00000000000E+00  0.44408920985E-15 -0.61331514115E+02  0.46015011813E+03  0.45604448971E+03 0.  0.
      99925    2    3    3    0    0 -0.45380267233E+02  0.31649423555E+01 -0.14407329920E+03  0.30342393457E+03  0.26313415402E+03 0.  0.
         25    1    4    4    0    0 -0.52236777282E+02  0.27405341517E+02 -0.88870722436E+02  0.16439357363E+03  0.12509000000E+03 0.  0.
         25    1    3    3    0    0  0.45380267233E+02 -0.31649423555E+01  0.82741785086E+02  0.15672618356E+03  0.12509000000E+03 0.  0.
         25    1    4    4    0    0  0.68565100488E+01 -0.24240399161E+02 -0.55202576765E+02  0.13903036094E+03  0.12509000000E+03 0.  0.
<mgrwt>
<rscale>  2 0.45604449E+03</rscale>
<asrwt>0</asrwt>
<pdfrwt beam="1">  1       21 0.29324897E-01 0.45604449E+03</pdfrwt>
<pdfrwt beam="2">  1       21 0.38344238E-01 0.45604449E+03</pdfrwt>
<totfact> 0.67604749E+04</totfact>
</mgrwt>
</event>
<event>
 7    0  0.4748297E-002  0.4458853E+03  0.7546771E-02  0.1028956E+00
         21   -1    0    0  502  501  0.00000000000E+00  0.00000000000E+00  0.37772205683E+03  0.37772205683E+03  0.00000000000E+00 0.  1.
         21   -1    0    0  501  502 -0.00000000000E+00 -0.00000000000E+00 -0.13158728805E+03  0.13158728805E+03  0.00000000000E+00 0.  1.
      99926    2    1    2    0    0  0.00000000000E+00  0.00000000000E+00  0.24613476877E+03  0.50930934488E+03  0.44588528164E+03 0.  0.
      99925    2    3    3    0    0 -0.10200041279E+03  0.20725222456E+02  0.16591466216E+03  0.32788059120E+03  0.26295320479E+03 0.  0.
         25    1    3    3    0    0  0.10200041279E+03 -0.20725222456E+02  0.80220106617E+02  0.18142875368E+03  0.12509000000E+03 0.  0.
         25    1    4    4    0    0 -0.80741667183E+02  0.14409050892E+02  0.55440770404E+02  0.15952437021E+03  0.12509000000E+03 0.  0.
         25    1    4    4    0    0 -0.21258745611E+02  0.63161715636E+01  0.11047389175E+03  0.16835622099E+03  0.12509000000E+03 0.  0.
<mgrwt>
<rscale>  2 0.44588528E+03</rscale>
<asrwt>0</asrwt>
<pdfrwt beam="1">  1       21 0.55547361E-01 0.44588528E+03</pdfrwt>
<pdfrwt beam="2">  1       21 0.19351072E-01 0.44588528E+03</pdfrwt>
<totfact> 0.69514833E+04</totfact>
</mgrwt>
</event>
<event>
 7    0  0.4748297E-002  0.4645140E+03  0.7546771E-02  0.1023480E+00
         21   -1    0    0  502  501  0.00000000000E+00  0.00000000000E+00  0.19274170204E+03  0.19274170204E+03  0.00000000000E+00 0.  1.
         21   -1    0    0  501  502 -0.00000000000E+00 -0.00000000000E+00 -0.27987357661E+03  0.27987357661E+03  0.00000000000E+00 0.  1.
      99926    2    1    2    0    0  0.00000000000E+00  0.00000000000E+00 -0.87131874570E+02  0.47261527866E+03  0.46451398047E+03 0.  0.
      99925    2    3    3    0    0  0.47327395652E+02 -0.11271616748E+03 -0.57472776665E+02  0.29521182047E+03  0.26249206101E+03 0.  0.
         25    1    3    3    0    0 -0.47327395652E+02  0.11271616748E+03 -0.29659097905E+02  0.17740345819E+03  0.12509000000E+03 0.  0.
         25    1    4    4    0    0 -0.13543274096E+02 -0.60308909163E+02 -0.13464030278E+02  0.14017622127E+03  0.12509000000E+03 0.  0.
         25    1    4    4    0    0  0.60870669748E+02 -0.52407258317E+02 -0.44008746387E+02  0.15503559920E+03  0.12509000000E+03 0.  0.
<mgrwt>
<rscale>  2 0.46451398E+03</rscale>
<asrwt>0</asrwt>
<pdfrwt beam="1">  1       21 0.28344368E-01 0.46451398E+03</pdfrwt>
<pdfrwt beam="2">  1       21 0.41157878E-01 0.46451398E+03</pdfrwt>
<totfact> 0.62394540E+04</totfact>
</mgrwt>
</event>
<event>
 7    0  0.4748297E-002  0.4538475E+03  0.7546771E-02  0.1026581E+00
         21   -1    0    0  502  501  0.00000000000E+00  0.00000000000E+00  0.69943350831E+02  0.69943350831E+02  0.00000000000E+00 0.  1.
         21   -1    0    0  501  502 -0.00000000000E+00 -0.00000000000E+00 -0.73622992171E+03  0.73622992171E+03  0.00000000000E+00 0.  1.
      99926    2    1    2    0    0  0.00000000000E+00 -0.14210854715E-13 -0.66628657088E+03  0.80617327254E+03  0.45384749732E+03 0.  0.
      99925    2    3    3    0    0 -0.71649619003E+02  0.68712630638E+02 -0.51170044999E+03  0.58391335626E+03  0.26317743747E+03 0.  0.
         25    1    4    4    0    0 -0.44796501294E+02 -0.15667119309E+01 -0.28227928909E+03  0.31199084324E+03  0.12509000000E+03 0.  0.
         25    1    4    4    0    0 -0.26853117709E+02  0.70279342569E+02 -0.22942116090E+03  0.27192251303E+03  0.12509000000E+03 0.  0.
         25    1    3    3    0    0  0.71649619003E+02 -0.68712630638E+02 -0.15458612089E+03  0.22225991628E+03  0.12509000000E+03 0.  0.
<mgrwt>
<rscale>  2 0.45384750E+03</rscale>
<asrwt>0</asrwt>
<pdfrwt beam="1">  1       21 0.10285787E-01 0.45384750E+03</pdfrwt>
<pdfrwt beam="2">  1       21 0.10826911E+00 0.45384750E+03</pdfrwt>
<totfact> 0.47899407E+04</totfact>
</mgrwt>
</event>
<event>
 7    0  0.4748297E-002  0.4545367E+03  0.7546771E-02  0.1026378E+00
         21   -1    0    0  502  501  0.00000000000E+00  0.00000000000E+00  0.40981670146E+03  0.40981670146E+03  0.00000000000E+00 0. -1.
         21   -1    0    0  501  502 -0.00000000000E+00 -0.00000000000E+00 -0.12603413198E+03  0.12603413198E+03  0.00000000000E+00 0. -1.
      99926    2    1    2    0    0  0.00000000000E+00  0.17763568394E-14  0.28378256948E+03  0.53585083344E+03  0.45453665304E+03 0.  0.
      99925    2    3    3    0    0  0.65619353156E+02  0.12144994797E+02  0.28578860938E+03  0.39405896942E+03  0.26297137053E+03 0.  0.
         25    1    4    4    0    0  0.55246297943E+02 -0.27602877124E+02  0.14070755418E+03  0.19814185869E+03  0.12509000000E+03 0.  0.
         25    1    3    3    0    0 -0.65619353156E+02 -0.12144994797E+02 -0.20060399037E+01  0.14179186402E+03  0.12509000000E+03 0.  0.
         25    1    4    4    0    0  0.10373055213E+02  0.39747871921E+02  0.14508105520E+03  0.19591711072E+03  0.12509000000E+03 0.  0.
<mgrwt>
<rscale>  2 0.45453665E+03</rscale>
<asrwt>0</asrwt>
<pdfrwt beam="1">  1       21 0.60267162E-01 0.45453665E+03</pdfrwt>
<pdfrwt beam="2">  1       21 0.18534431E-01 0.45453665E+03</pdfrwt>
<totfact> 0.63042170E+04</totfact>
</mgrwt>
</event>
<event>
 7    0  0.4748297E-002  0.4506127E+03  0.7546771E-02  0.1027539E+00
         21   -1    0    0  502  501  0.00000000000E+00  0.00000000000E+00  0.34623527353E+03  0.34623527353E+03  0.00000000000E+00 0.  1.
         21   -1    0    0  501  502 -0.00000000000E+00 -0.00000000000E+00 -0.14661406188E+03  0.14661406188E+03  0.00000000000E+00 0.  1.
      99926    2    1    2    0    0  0.00000000000E+00  0.00000000000E+00  0.19962121165E+03  0.49284933541E+03  0.45061273758E+03 0.  0.
      99925    2    3    3    0    0  0.10310826618E+03  0.30500284794E+02  0.14585515246E+03  0.31935616797E+03  0.26296968379E+03 0.  0.
         25    1    4    4    0    0  0.56388334023E+02  0.55612960290E+02  0.70400136504E+02  0.16393941834E+03  0.12509000000E+03 0.  0.
         25    1    3    3    0    0 -0.10310826618E+03 -0.30500284794E+02  0.53766059195E+02  0.17349316744E+03  0.12509000000E+03 0.  0.
         25    1    4    4    0    0  0.46719932162E+02 -0.25112675496E+02  0.75455015956E+02  0.15541674963E+03  0.12509000000E+03 0.  0.
<mgrwt>
<rscale>  2 0.45061274E+03</rscale>
<asrwt>0</asrwt>
<pdfrwt beam="1">  1       21 0.50916952E-01 0.45061274E+03</pdfrwt>
<pdfrwt beam="2">  1       21 0.21560891E-01 0.45061274E+03</pdfrwt>
<totfact> 0.68117679E+04</totfact>
</mgrwt>
</event>
<event>
 7    0  0.4748297E-002  0.4603419E+03  0.7546771E-02  0.1024682E+00
         21   -1    0    0  502  501  0.00000000000E+00  0.00000000000E+00  0.31122612371E+03  0.31122612371E+03  0.00000000000E+00 0.  1.
         21   -1    0    0  501  502 -0.00000000000E+00 -0.00000000000E+00 -0.17022565482E+03  0.17022565482E+03  0.00000000000E+00 0.  1.
      99926    2    1    2    0    0  0.00000000000E+00  0.00000000000E+00  0.14100046889E+03  0.48145177853E+03  0.46034191948E+03 0.  0.
      99925    2    3    3    0    0 -0.11765446225E+03  0.87848926142E+01  0.88771284982E+02  0.30174328520E+03  0.26315189967E+03 0.  0.
         25    1    3    3    0    0  0.11765446225E+03 -0.87848926142E+01  0.52229183903E+02  0.17970849333E+03  0.12509000000E+03 0.  0.
         25    1    4    4    0    0 -0.60335614883E+02  0.36695854186E+02  0.18793818790E+02  0.14487128032E+03  0.12509000000E+03 0.  0.
         25    1    4    4    0    0 -0.57318847366E+02 -0.27910961572E+02  0.69977466193E+02  0.15687200488E+03  0.12509000000E+03 0.  0.
<mgrwt>
<rscale>  2 0.46034192E+03</rscale>
<asrwt>0</asrwt>
<pdfrwt beam="1">  1       21 0.45768548E-01 0.46034192E+03</pdfrwt>
<pdfrwt beam="2">  1       21 0.25033184E-01 0.46034192E+03</pdfrwt>
<totfact> 0.63844409E+04</totfact>
</mgrwt>
</event>
<event>
 7    0  0.4748297E-002  0.4563702E+03  0.7546771E-02  0.1025839E+00
         21   -1    0    0  502  501  0.00000000000E+00  0.00000000000E+00  0.18805740740E+03  0.18805740740E+03  0.00000000000E+00 0.  1.
         21   -1    0    0  501  502 -0.00000000000E+00 -0.00000000000E+00 -0.27687526411E+03  0.27687526411E+03  0.00000000000E+00 0.  1.
      99926    2    1    2    0    0  0.14210854715E-13 -0.14210854715E-13 -0.88817856715E+02  0.46493267151E+03  0.45637021963E+03 0.  0.
      99925    2    3    3    0    0 -0.84924865821E+02  0.76062444467E+02 -0.66726267894E+02  0.29424794843E+03  0.26292913882E+03 0.  0.
         25    1    4    4    0    0 -0.42406662040E+02  0.31090287181E+02  0.80200407138E+01  0.13592924665E+03  0.12509000000E+03 0.  0.
         25    1    4    4    0    0 -0.42518203780E+02  0.44972157286E+02 -0.74746308608E+02  0.15831870178E+03  0.12509000000E+03 0.  0.
         25    1    3    3    0    0  0.84924865821E+02 -0.76062444467E+02 -0.22091588821E+02  0.17068472307E+03  0.12509000000E+03 0.  0.
<mgrwt>
<rscale>  2 0.45637022E+03</rscale>
<asrwt>0</asrwt>
<pdfrwt beam="1">  1       21 0.27655501E-01 0.45637022E+03</pdfrwt>
<pdfrwt beam="2">  1       21 0.40716950E-01 0.45637022E+03</pdfrwt>
<totfact> 0.67081551E+04</totfact>
</mgrwt>
</event>
<event>
 7    0  0.4748297E-002  0.4526779E+03  0.7546771E-02  0.1026926E+00
         21   -1    0    0  502  501  0.00000000000E+00  0.00000000000E+00  0.49261222443E+02  0.49261222443E+02  0.00000000000E+00 0. -1.
         21   -1    0    0  501  502 -0.00000000000E+00 -0.00000000000E+00 -0.10399523990E+04  0.10399523990E+04  0.00000000000E+00 0. -1.
      99926    2    1    2    0    0  0.35527136788E-14  0.00000000000E+00 -0.99069117651E+03  0.10892136214E+04  0.45267792725E+03 0.  0.
      99925    2    3    3    0    0 -0.13751217371E+02 -0.86796607831E+02 -0.46154418619E+03  0.53842619182E+03  0.26297714944E+03 0.  0.
         25    1    4    4    0    0 -0.35659856710E+02 -0.21024685866E+02 -0.18548826465E+03  0.22752377287E+03  0.12509000000E+03 0.  0.
         25    1    4    4    0    0  0.21908639339E+02 -0.65771921966E+02 -0.27605592153E+03  0.31090241895E+03  0.12509000000E+03 0.  0.
         25    1    3    3    0    0  0.13751217371E+02  0.86796607831E+02 -0.52914699033E+03  0.55078742958E+03  0.12509000000E+03 0.  0.
<mgrwt>
<rscale>  2 0.45267793E+03</rscale>
<asrwt>0</asrwt>
<pdfrwt beam="1">  1       21 0.72442983E-02 0.45267793E+03</pdfrwt>
<pdfrwt beam="2">  1       21 0.15293416E+00 0.45267793E+03</pdfrwt>
<totfact> 0.36527820E+04</totfact>
</mgrwt>
</event>
<event>
 7    0  0.4748297E-002  0.4466439E+03  0.7546771E-02  0.1028728E+00
         21   -1    0    0  502  501  0.00000000000E+00  0.00000000000E+00  0.19690148663E+03  0.19690148663E+03  0.00000000000E+00 0. -1.
         21   -1    0    0  501  502 -0.00000000000E+00 -0.00000000000E+00 -0.25328749652E+03  0.25328749652E+03  0.00000000000E+00 0. -1.
      99926    2    1    2    0    0  0.00000000000E+00  0.00000000000E+00 -0.56386009888E+02  0.45018898315E+03  0.44664386086E+03 0.  0.
      99925    2    3    3    0    0  0.48646486499E+02  0.66247799120E+02  0.30341776775E+02  0.27720208013E+03  0.26299262019E+03 0.  0.
         25    1    4    4    0    0  0.33031729373E+02  0.40968321235E+02  0.54746463110E+02  0.14633585280E+03  0.12509000000E+03 0.  0.
         25    1    3    3    0    0 -0.48646486499E+02 -0.66247799120E+02 -0.86727786663E+02  0.17298690302E+03  0.12509000000E+03 0.  0.
         25    1    4    4    0    0  0.15614757127E+02  0.25279477885E+02 -0.24404686335E+02  0.13086622734E+03  0.12509000000E+03 0.  0.
<mgrwt>
<rscale>  2 0.44664386E+03</rscale>
<asrwt>0</asrwt>
<pdfrwt beam="1">  1       21 0.28956101E-01 0.44664386E+03</pdfrwt>
<pdfrwt beam="2">  1       21 0.37248161E-01 0.44664386E+03</pdfrwt>
<totfact> 0.73691169E+04</totfact>
</mgrwt>
</event>
<event>
 7    0  0.4748297E-002  0.4519004E+03  0.7546771E-02  0.1027157E+00
         21   -1    0    0  502  501  0.00000000000E+00  0.00000000000E+00  0.80006720417E+03  0.80006720417E+03  0.00000000000E+00 0. -1.
         21   -1    0    0  501  502 -0.00000000000E+00 -0.00000000000E+00 -0.63811515312E+02  0.63811515312E+02  0.00000000000E+00 0. -1.
      99926    2    1    2    0    0 -0.14210854715E-13  0.00000000000E+00  0.73625568886E+03  0.86387871948E+03  0.45190043439E+03 0.  0.
      99925    2    3    3    0    0 -0.79774107509E+02  0.72762963924E+02  0.42211684162E+03  0.50892931380E+03  0.26299821543E+03 0.  0.
         25    1    4    4    0    0 -0.19851388279E+01  0.22084178671E+02  0.21564395974E+03  0.25028279445E+03  0.12509000000E+03 0.  0.
         25    1    4    4    0    0 -0.77788968681E+02  0.50678785253E+02  0.20647288188E+03  0.25864651935E+03  0.12509000000E+03 0.  0.
         25    1    3    3    0    0  0.79774107509E+02 -0.72762963924E+02  0.31413884724E+03  0.35494940568E+03  0.12509000000E+03 0.  0.
<mgrwt>
<rscale>  2 0.45190043E+03</rscale>
<asrwt>0</asrwt>
<pdfrwt beam="1">  1       21 0.11765694E+00 0.45190043E+03</pdfrwt>
<pdfrwt beam="2">  1       21 0.93840469E-02 0.45190043E+03</pdfrwt>
<totfact> 0.45931149E+04</totfact>
</mgrwt>
</event>
<event>
 7    0  0.4748297E-002  0.4603156E+03  0.7546771E-02  0.1024690E+00
         21   -1    0    0  502  501  0.00000000000E+00  0.00000000000E+00  0.30720689518E+03  0.30720689518E+03  0.00000000000E+00 0.  1.
         21   -1    0    0  501  502 -0.00000000000E+00 -0.00000000000E+00 -0.17243301526E+03  0.17243301526E+03  0.00000000000E+00 0.  1.
      99926    2    1    2    0    0  0.14210854715E-13  0.00000000000E+00  0.13477387992E+03  0.47963991044E+03  0.46031559281E+03 0.  0.
      99925    2    3    3    0    0 -0.98003412717E+02 -0.10688508605E+02  0.15211756480E+03  0.31942997122E+03  0.26301490428E+03 0.  0.
         25    1    4    4    0    0 -0.48163364226E+02 -0.33255365984E+02  0.10997203121E+03  0.17654173662E+03  0.12509000000E+03 0.  0.
         25    1    3    3    0    0  0.98003412717E+02  0.10688508605E+02 -0.17343684883E+02  0.16020993922E+03  0.12509000000E+03 0.  0.
         25    1    4    4    0    0 -0.49840048491E+02  0.22566857379E+02  0.42145533585E+02  0.14288823460E+03  0.12509000000E+03 0.  0.
<mgrwt>
<rscale>  2 0.46031559E+03</rscale>
<asrwt>0</asrwt>
<pdfrwt beam="1">  1       21 0.45177484E-01 0.46031559E+03</pdfrwt>
<pdfrwt beam="2">  1       21 0.25357796E-01 0.46031559E+03</pdfrwt>
<totfact> 0.63984145E+04</totfact>
</mgrwt>
</event>
<event>
 7    0  0.4748297E-002  0.4593180E+03  0.7546771E-02  0.1024979E+00
         21   -1    0    0  502  501  0.00000000000E+00  0.00000000000E+00  0.19303810453E+04  0.19303810453E+04  0.00000000000E+00 0. -1.
         21   -1    0    0  501  502 -0.00000000000E+00 -0.00000000000E+00 -0.27322712502E+02  0.27322712502E+02  0.00000000000E+00 0. -1.
      99926    2    1    2    0    0  0.00000000000E+00  0.35527136788E-14  0.19030583328E+04  0.19577037578E+04  0.45931795663E+03 0.  0.
      99925    2    3    3    0    0  0.35852901116E+02  0.17658926292E+02  0.72496590679E+03  0.77231498591E+03  0.26324437936E+03 0.  0.
         25    1    4    4    0    0  0.54583169737E+02  0.99813528932E+01  0.43093354161E+03  0.45213955281E+03  0.12509000000E+03 0.  0.
         25    1    3    3    0    0 -0.35852901116E+02 -0.17658926292E+02  0.11780924260E+04  0.11853887719E+04  0.12509000000E+03 0.  0.
         25    1    4    4    0    0 -0.18730268622E+02  0.76775733992E+01  0.29403236517E+03  0.32017543311E+03  0.12509000000E+03 0.  0.
<mgrwt>
<rscale>  2 0.45931796E+03</rscale>
<asrwt>0</asrwt>
<pdfrwt beam="1">  1       21 0.28387947E+00 0.45931796E+03</pdfrwt>
<pdfrwt beam="2">  1       21 0.40180473E-02 0.45931796E+03</pdfrwt>
<totfact> 0.13939922E+04</totfact>
</mgrwt>
</event>
<event>
 7    0  0.4748297E-002  0.4573690E+03  0.7546771E-02  0.1025547E+00
         21   -1    0    0  502  501  0.00000000000E+00  0.00000000000E+00  0.19865349319E+03  0.19865349319E+03  0.00000000000E+00 0.  1.
         21   -1    0    0  501  502 -0.00000000000E+00 -0.00000000000E+00 -0.26325533635E+03  0.26325533635E+03  0.00000000000E+00 0.  1.
      99926    2    1    2    0    0  0.00000000000E+00  0.00000000000E+00 -0.64601843159E+02  0.46190882953E+03  0.45736896338E+03 0.  0.
      99925    2    3    3    0    0 -0.74175520937E+02  0.87913487784E+02 -0.28114427379E+02  0.28809965587E+03  0.26264082212E+03 0.  0.
         25    1    4    4    0    0 -0.50639152667E+02  0.79806026523E+02 -0.33976587403E+02  0.16042207530E+03  0.12509000000E+03 0.  0.
         25    1    3    3    0    0  0.74175520937E+02 -0.87913487784E+02 -0.36487415780E+02  0.17380917367E+03  0.12509000000E+03 0.  0.
         25    1    4    4    0    0 -0.23536368270E+02  0.81074612609E+01  0.58621600240E+01  0.12767758057E+03  0.12509000000E+03 0.  0.
<mgrwt>
<rscale>  2 0.45736896E+03</rscale>
<asrwt>0</asrwt>
<pdfrwt beam="1">  1       21 0.29213749E-01 0.45736896E+03</pdfrwt>
<pdfrwt beam="2">  1       21 0.38714020E-01 0.45736896E+03</pdfrwt>
<totfact> 0.66771308E+04</totfact>
</mgrwt>
</event>
<event>
 7    0  0.4748297E-002  0.4549877E+03  0.7546771E-02  0.1026245E+00
         21   -1    0    0  502  501  0.00000000000E+00  0.00000000000E+00  0.15907783811E+03  0.15907783811E+03  0.00000000000E+00 0.  1.
         21   -1    0    0  501  502 -0.00000000000E+00 -0.00000000000E+00 -0.32533418576E+03  0.32533418576E+03  0.00000000000E+00 0.  1.
      99926    2    1    2    0    0  0.19984014443E-14  0.00000000000E+00 -0.16625634765E+03  0.48441202387E+03  0.45498773141E+03 0.  0.
      99925    2    3    3    0    0 -0.14099657507E+01 -0.11298686034E+03 -0.10258120002E+03  0.30421754244E+03  0.26316799181E+03 0.  0.
         25    1    3    3    0    0  0.14099657507E+01  0.11298686034E+03 -0.63675147625E+02  0.18019448143E+03  0.12509000000E+03 0.  0.
         25    1    4    4    0    0 -0.37099116759E+02 -0.73526639907E+02 -0.43151664816E+02  0.15585918490E+03  0.12509000000E+03 0.  0.
         25    1    4    4    0    0  0.35689151008E+02 -0.39460220436E+02 -0.59429535208E+02  0.14835835754E+03  0.12509000000E+03 0.  0.
<mgrwt>
<rscale>  2 0.45498773E+03</rscale>
<asrwt>0</asrwt>
<pdfrwt beam="1">  1       21 0.23393800E-01 0.45498773E+03</pdfrwt>
<pdfrwt beam="2">  1       21 0.47843262E-01 0.45498773E+03</pdfrwt>
<totfact> 0.66386782E+04</totfact>
</mgrwt>
</event>
<event>
 7    0  0.4748297E-002  0.4500974E+03  0.7546771E-02  0.1027693E+00
         21   -1    0    0  502  501  0.00000000000E+00  0.00000000000E+00  0.54064586907E+03  0.54064586907E+03  0.00000000000E+00 0.  1.
         21   -1    0    0  501  502 -0.00000000000E+00 -0.00000000000E+00 -0.93678543453E+02  0.93678543453E+02  0.00000000000E+00 0.  1.
      99926    2    1    2    0    0 -0.17763568394E-14  0.00000000000E+00  0.44696732562E+03  0.63432441252E+03  0.45009740074E+03 0.  0.
      99925    2    3    3    0    0  0.14978337089E+02  0.53380950804E+02  0.41377579010E+03  0.49353001412E+03  0.26322536709E+03 0.  0.
         25    1    3    3    0    0 -0.14978337089E+02 -0.53380950804E+02  0.33191535521E+02  0.14079439840E+03  0.12509000000E+03 0.  0.
         25    1    4    4    0    0 -0.18459031635E+01  0.12368805642E+01  0.25547123139E+03  0.28446088553E+03  0.12509000000E+03 0.  0.
         25    1    4    4    0    0  0.16824240253E+02  0.52144070240E+02  0.15830455871E+03  0.20906912859E+03  0.12509000000E+03 0.  0.
<mgrwt>
<rscale>  2 0.45009740E+03</rscale>
<asrwt>0</asrwt>
<pdfrwt beam="1">  1       21 0.79506744E-01 0.45009740E+03</pdfrwt>
<pdfrwt beam="2">  1       21 0.13776257E-01 0.45009740E+03</pdfrwt>
<totfact> 0.58858375E+04</totfact>
</mgrwt>
</event>
<event>
 7    0  0.4748297E-002  0.4443660E+03  0.7546771E-02  0.1029416E+00
         21   -1    0    0  502  501  0.00000000000E+00  0.00000000000E+00  0.97457110591E+02  0.97457110591E+02  0.00000000000E+00 0. -1.
         21   -1    0    0  501  502 -0.00000000000E+00 -0.00000000000E+00 -0.50653334996E+03  0.50653334996E+03  0.00000000000E+00 0. -1.
      99926    2    1    2    0    0 -0.71054273576E-14  0.00000000000E+00 -0.40907623937E+03  0.60399046055E+03  0.44436596047E+03 0.  0.
      99925    2    3    3    0    0  0.41679466791E+02 -0.86003386669E+02 -0.20783435348E+03  0.34849180066E+03  0.26290237004E+03 0.  0.
         25    1    4    4    0    0  0.48859053858E+02 -0.58974153806E+02 -0.14301609696E+03  0.20485670614E+03  0.12509000000E+03 0.  0.
         25    1    3    3    0    0 -0.41679466791E+02  0.86003386669E+02 -0.20124188589E+03  0.25549865989E+03  0.12509000000E+03 0.  0.
         25    1    4    4    0    0 -0.71795870672E+01 -0.27029232863E+02 -0.64818256524E+02  0.14363509452E+03  0.12509000000E+03 0.  0.
<mgrwt>
<rscale>  2 0.44436596E+03</rscale>
<asrwt>0</asrwt>
<pdfrwt beam="1">  1       21 0.14331928E-01 0.44436596E+03</pdfrwt>
<pdfrwt beam="2">  1       21 0.74490201E-01 0.44436596E+03</pdfrwt>
<totfact> 0.63611077E+04</totfact>
</mgrwt>
</event>
<event>
 7    0  0.4748297E-002  0.4292957E+03  0.7546771E-02  0.1034083E+00
         21   -1    0    0  502  501  0.00000000000E+00  0.00000000000E+00  0.18329871711E+04  0.18329871711E+04  0.00000000000E+00 0.  1.
         21   -1    0    0  501  502 -0.00000000000E+00 -0.00000000000E+00 -0.25135852502E+02  0.25135852502E+02  0.00000000000E+00 0.  1.
      99926    2    1    2    0    0  0.71054273576E-14  0.00000000000E+00  0.18078513186E+04  0.18581230236E+04  0.42929567979E+03 0.  0.
      99925    2    3    3    0    0  0.58141238259E+02  0.27599519273E+02  0.14192761467E+04  0.14448672803E+04  0.26297250820E+03 0.  0.
         25    1    3    3    0    0 -0.58141238259E+02 -0.27599519273E+02  0.38857517194E+03  0.41325574333E+03  0.12509000000E+03 0.  0.
         25    1    4    4    0    0  0.48603191751E+02  0.40250264453E+02  0.87730034337E+03  0.88841755645E+03  0.12509000000E+03 0.  0.
         25    1    4    4    0    0  0.95380465082E+01 -0.12650745180E+02  0.54197580329E+03  0.55644972381E+03  0.12509000000E+03 0.  0.
<mgrwt>
<rscale>  2 0.42929568E+03</rscale>
<asrwt>0</asrwt>
<pdfrwt beam="1">  1       21 0.26955685E+00 0.42929568E+03</pdfrwt>
<pdfrwt beam="2">  1       21 0.36964501E-02 0.42929568E+03</pdfrwt>
<totfact> 0.19840223E+04</totfact>
</mgrwt>
</event>
<event>
 7    0  0.4748297E-002  0.4319892E+03  0.7546771E-02  0.1033233E+00
         21   -1    0    0  502  501  0.00000000000E+00  0.00000000000E+00  0.67570497985E+02  0.67570497985E+02  0.00000000000E+00 0. -1.
         21   -1    0    0  501  502 -0.00000000000E+00 -0.00000000000E+00 -0.69044431372E+03  0.69044431372E+03  0.00000000000E+00 0. -1.
      99926    2    1    2    0    0  0.00000000000E+00  0.00000000000E+00 -0.62287381574E+03  0.75801481171E+03  0.43198919482E+03 0.  0.
      99925    2    3    3    0    0  0.23594442113E+02  0.67100557287E+02 -0.30615166150E+03  0.41013607771E+03  0.26348354770E+03 0.  0.
         25    1    4    4    0    0 -0.60648057629E+01  0.55888508689E+02 -0.20273664236E+03  0.24476511501E+03  0.12509000000E+03 0.  0.
         25    1    4    4    0    0  0.29659247876E+02  0.11212048598E+02 -0.10341501915E+03  0.16537096270E+03  0.12509000000E+03 0.  0.
         25    1    3    3    0    0 -0.23594442113E+02 -0.67100557287E+02 -0.31672215423E+03  0.34787873400E+03  0.12509000000E+03 0.  0.
<mgrwt>
<rscale>  2 0.43198919E+03</rscale>
<asrwt>0</asrwt>
<pdfrwt beam="1">  1       21 0.99368377E-02 0.43198919E+03</pdfrwt>
<pdfrwt beam="2">  1       21 0.10153593E+00 0.43198919E+03</pdfrwt>
<totfact> 0.59988359E+04</totfact>
</mgrwt>
</event>
<event>
 7    0  0.4748297E-002  0.4551988E+03  0.7546771E-02  0.1026183E+00
         21   -1    0    0  502  501  0.00000000000E+00  0.00000000000E+00  0.33381529089E+04  0.33381529089E+04  0.00000000000E+00 0. -1.
         21   -1    0    0  501  502 -0.00000000000E+00 -0.00000000000E+00 -0.15518006888E+02  0.15518006888E+02  0.00000000000E+00 0. -1.
      99926    2    1    2    0    0  0.71054273576E-14  0.00000000000E+00  0.33226349020E+04  0.33536709158E+04  0.45519876904E+03 0.  0.
      99925    2    3    3    0    0  0.55972648635E+02 -0.62318490668E+02  0.26530049145E+04  0.26673267165E+04  0.26302130011E+03 0.  0.
         25    1    4    4    0    0 -0.45063065413E+01 -0.26646805558E+02  0.10109894888E+04  0.10190572180E+04  0.12509000000E+03 0.  0.
         25    1    3    3    0    0 -0.55972648635E+02  0.62318490668E+02  0.66962998749E+03  0.68634419930E+03  0.12509000000E+03 0.  0.
         25    1    4    4    0    0  0.60478955177E+02 -0.35671685110E+02  0.16420154257E+04  0.16482694985E+04  0.12509000000E+03 0.  0.
<mgrwt>
<rscale>  2 0.45519877E+03</rscale>
<asrwt>0</asrwt>
<pdfrwt beam="1">  1       21 0.49090434E+00 0.45519877E+03</pdfrwt>
<pdfrwt beam="2">  1       21 0.22820622E-02 0.45519877E+03</pdfrwt>
<totfact> 0.17090985E+03</totfact>
</mgrwt>
</event>
<event>
 7    0  0.4748297E-002  0.4440920E+03  0.7546771E-02  0.1029499E+00
         21   -1    0    0  502  501  0.00000000000E+00  0.00000000000E+00  0.25652139415E+03  0.25652139415E+03  0.00000000000E+00 0.  1.
         21   -1    0    0  501  502 -0.00000000000E+00 -0.00000000000E+00 -0.19220394203E+03  0.19220394203E+03  0.00000000000E+00 0.  1.
      99926    2    1    2    0    0  0.00000000000E+00  0.00000000000E+00  0.64317452119E+02  0.44872533618E+03  0.44409198673E+03 0.  0.
      99925    2    3    3    0    0 -0.15679098076E+02 -0.36669888297E+02 -0.54201709740E+02  0.27185019759E+03  0.26338980573E+03 0.  0.
         25    1    3    3    0    0  0.15679098076E+02  0.36669888297E+02  0.11851916186E+03  0.17687513859E+03  0.12509000000E+03 0.  0.
         25    1    4    4    0    0 -0.40932007159E+02 -0.34140143186E+02 -0.47519564642E+02  0.14403678596E+03  0.12509000000E+03 0.  0.
         25    1    4    4    0    0  0.25252909083E+02 -0.25297451111E+01 -0.66821450978E+01  0.12781341162E+03  0.12509000000E+03 0.  0.
<mgrwt>
<rscale>  2 0.44409199E+03</rscale>
<asrwt>0</asrwt>
<pdfrwt beam="1">  1       21 0.37723734E-01 0.44409199E+03</pdfrwt>
<pdfrwt beam="2">  1       21 0.28265286E-01 0.44409199E+03</pdfrwt>
<totfact> 0.75354879E+04</totfact>
</mgrwt>
</event>
<event>
 7    0  0.4748297E-002  0.4543458E+03  0.7546771E-02  0.1026434E+00
         21   -1    0    0  502  501  0.00000000000E+00  0.00000000000E+00  0.58495152373E+03  0.58495152373E+03  0.00000000000E+00 0.  1.
         21   -1    0    0  501  502 -0.00000000000E+00 -0.00000000000E+00 -0.88225307349E+02  0.88225307349E+02  0.00000000000E+00 0.  1.
      99926    2    1    2    0    0  0.14210854715E-13  0.00000000000E+00  0.49672621638E+03  0.67317683108E+03  0.45434580648E+03 0.  0.
      99925    2    3    3    0    0 -0.97330973888E+02 -0.34982699546E+02  0.37855292981E+03  0.47240446868E+03  0.26299534903E+03 0.  0.
         25    1    4    4    0    0 -0.16255058543E+02  0.10761415185E+02  0.17502660741E+03  0.21601355602E+03  0.12509000000E+03 0.  0.
         25    1    4    4    0    0 -0.81075915345E+02 -0.45744114731E+02  0.20352632240E+03  0.25639091265E+03  0.12509000000E+03 0.  0.
         25    1    3    3    0    0  0.97330973888E+02  0.34982699546E+02  0.11817328657E+03  0.20077236240E+03  0.12509000000E+03 0.  0.
<mgrwt>
<rscale>  2 0.45434581E+03</rscale>
<asrwt>0</asrwt>
<pdfrwt beam="1">  1       21 0.86022281E-01 0.45434581E+03</pdfrwt>
<pdfrwt beam="2">  1       21 0.12974310E-01 0.45434581E+03</pdfrwt>
<totfact> 0.54665228E+04</totfact>
</mgrwt>
</event>
<event>
 7    0  0.4748297E-002  0.4570180E+03  0.7546771E-02  0.1025650E+00
         21   -1    0    0  502  501  0.00000000000E+00  0.00000000000E+00  0.12019607279E+04  0.12019607279E+04  0.00000000000E+00 0.  1.
         21   -1    0    0  501  502 -0.00000000000E+00 -0.00000000000E+00 -0.43442653349E+02  0.43442653349E+02  0.00000000000E+00 0.  1.
      99926    2    1    2    0    0  0.00000000000E+00 -0.14210854715E-13  0.11585180746E+04  0.12454033812E+04  0.45701800070E+03 0.  0.
      99925    2    3    3    0    0  0.82480629067E+02 -0.79874764986E+02  0.74759740842E+03  0.80078406744E+03  0.26300229152E+03 0.  0.
         25    1    4    4    0    0  0.13465769455E+02 -0.49729913657E+02  0.28091285178E+03  0.31179148426E+03  0.12509000000E+03 0.  0.
         25    1    4    4    0    0  0.69014859612E+02 -0.30144851329E+02  0.46668455663E+03  0.48899258318E+03  0.12509000000E+03 0.  0.
         25    1    3    3    0    0 -0.82480629067E+02  0.79874764986E+02  0.41092066613E+03  0.44461931381E+03  0.12509000000E+03 0.  0.
<mgrwt>
<rscale>  2 0.45701800E+03</rscale>
<asrwt>0</asrwt>
<pdfrwt beam="1">  1       21 0.17675891E+00 0.45701800E+03</pdfrwt>
<pdfrwt beam="2">  1       21 0.63886263E-02 0.45701800E+03</pdfrwt>
<totfact> 0.30264185E+04</totfact>
</mgrwt>
</event>
<event>
 7    0  0.4748297E-002  0.4549482E+03  0.7546771E-02  0.1026257E+00
         21   -1    0    0  502  501  0.00000000000E+00  0.00000000000E+00  0.10756117616E+04  0.10756117616E+04  0.00000000000E+00 0. -1.
         21   -1    0    0  501  502 -0.00000000000E+00 -0.00000000000E+00 -0.48107018504E+02  0.48107018504E+02  0.00000000000E+00 0. -1.
      99926    2    1    2    0    0  0.00000000000E+00  0.14210854715E-13  0.10275047431E+04  0.11237187801E+04  0.45494823846E+03 0.  0.
      99925    2    3    3    0    0 -0.69053090875E+02  0.67891737523E+02  0.50287066108E+03  0.57575341123E+03  0.26312634109E+03 0.  0.
         25    1    3    3    0    0  0.69053090875E+02 -0.67891737523E+02  0.52463408205E+03  0.54796536892E+03  0.12509000000E+03 0.  0.
         25    1    4    4    0    0 -0.55960268851E+02  0.69403898482E+02  0.25227445334E+03  0.29536140696E+03  0.12509000000E+03 0.  0.
         25    1    4    4    0    0 -0.13092822024E+02 -0.15121609599E+01  0.25059620774E+03  0.28039200426E+03  0.12509000000E+03 0.  0.
<mgrwt>
<rscale>  2 0.45494824E+03</rscale>
<asrwt>0</asrwt>
<pdfrwt beam="1">  1       21 0.15817818E+00 0.45494824E+03</pdfrwt>
<pdfrwt beam="2">  1       21 0.70745622E-02 0.45494824E+03</pdfrwt>
<totfact> 0.34686045E+04</totfact>
</mgrwt>
</event>
<event>
 7    0  0.4748297E-002  0.4569622E+03  0.7546771E-02  0.1025666E+00
         21   -1    0    0  502  501  0.00000000000E+00  0.00000000000E+00  0.53721868607E+02  0.53721868607E+02  0.00000000000E+00 0.  1.
         21   -1    0    0  501  502 -0.00000000000E+00 -0.00000000000E+00 -0.97173878748E+03  0.97173878748E+03  0.00000000000E+00 0.  1.
      99926    2    1    2    0    0  0.00000000000E+00  0.00000000000E+00 -0.91801691887E+03  0.10254606561E+04  0.45696224554E+03 0.  0.
      99925    2    3    3    0    0  0.47066999014E+02 -0.10493069950E+03 -0.57731612546E+03  0.64473727511E+03  0.26299523019E+03 0.  0.
         25    1    3    3    0    0 -0.47066999014E+02  0.10493069950E+03 -0.34070079341E+03  0.38072338098E+03  0.12509000000E+03 0.  0.
         25    1    4    4    0    0 -0.90688472446E+01 -0.23583996786E+02 -0.25668397210E+03  0.28665766784E+03  0.12509000000E+03 0.  0.
         25    1    4    4    0    0  0.56135846259E+02 -0.81346702709E+02 -0.32063215336E+03  0.35807960727E+03  0.12509000000E+03 0.  0.
<mgrwt>
<rscale>  2 0.45696225E+03</rscale>
<asrwt>0</asrwt>
<pdfrwt beam="1">  1       21 0.79002753E-02 0.45696225E+03</pdfrwt>
<pdfrwt beam="2">  1       21 0.14290275E+00 0.45696225E+03</pdfrwt>
<totfact> 0.37611382E+04</totfact>
</mgrwt>
</event>
<event>
 7    0  0.4748297E-002  0.4701301E+03  0.7546771E-02  0.1021884E+00
         21   -1    0    0  502  501  0.00000000000E+00  0.00000000000E+00  0.46085940642E+03  0.46085940642E+03  0.00000000000E+00 0.  1.
         21   -1    0    0  501  502 -0.00000000000E+00 -0.00000000000E+00 -0.11989680643E+03  0.11989680643E+03  0.00000000000E+00 0.  1.
      99926    2    1    2    0    0  0.00000000000E+00 -0.26645352591E-14  0.34096259999E+03  0.58075621285E+03  0.47013007155E+03 0.  0.
      99925    2    3    3    0    0 -0.12672911523E+03  0.48790472490E+01  0.21025077933E+03  0.35981015177E+03  0.26300927998E+03 0.  0.
         25    1    4    4    0    0 -0.47035558982E+02  0.26614026031E+02  0.13601884274E+03  0.19253385123E+03  0.12509000000E+03 0.  0.
         25    1    3    3    0    0  0.12672911523E+03 -0.48790472490E+01  0.13071182066E+03  0.22094606108E+03  0.12509000000E+03 0.  0.
         25    1    4    4    0    0 -0.79693556246E+02 -0.21734978782E+02  0.74231936590E+02  0.16727630053E+03  0.12509000000E+03 0.  0.
<mgrwt>
<rscale>  2 0.47013007E+03</rscale>
<asrwt>0</asrwt>
<pdfrwt beam="1">  1       21 0.67773441E-01 0.47013007E+03</pdfrwt>
<pdfrwt beam="2">  1       21 0.17631883E-01 0.47013007E+03</pdfrwt>
<totfact> 0.53221002E+04</totfact>
</mgrwt>
</event>
<event>
 7    0  0.4748297E-002  0.4565675E+03  0.7546771E-02  0.1025781E+00
         21   -1    0    0  502  501  0.00000000000E+00  0.00000000000E+00  0.28285641690E+03  0.28285641690E+03  0.00000000000E+00 0. -1.
         21   -1    0    0  501  502 -0.00000000000E+00 -0.00000000000E+00 -0.18424000865E+03  0.18424000865E+03  0.00000000000E+00 0. -1.
      99926    2    1    2    0    0  0.00000000000E+00 -0.62172489379E-14  0.98616408258E+02  0.46709642555E+03  0.45656749204E+03 0.  0.
      99925    2    3    3    0    0  0.93496981705E+01  0.62565694767E+01 -0.54602309508E+02  0.26898018419E+03  0.26313944167E+03 0.  0.
         25    1    3    3    0    0 -0.93496981705E+01 -0.62565694767E+01  0.15321871777E+03  0.19811624136E+03  0.12509000000E+03 0.  0.
         25    1    4    4    0    0 -0.13264488804E+02  0.38258130155E+02 -0.37915865507E+02  0.13683841618E+03  0.12509000000E+03 0.  0.
         25    1    4    4    0    0  0.22614186975E+02 -0.32001560678E+02 -0.16686444000E+02  0.13214176801E+03  0.12509000000E+03 0.  0.
<mgrwt>
<rscale>  2 0.45656749E+03</rscale>
<asrwt>0</asrwt>
<pdfrwt beam="1">  1       21 0.41596532E-01 0.45656749E+03</pdfrwt>
<pdfrwt beam="2">  1       21 0.27094119E-01 0.45656749E+03</pdfrwt>
<totfact> 0.66818164E+04</totfact>
</mgrwt>
</event>
<event>
 7    0  0.4748297E-002  0.4507020E+03  0.7546771E-02  0.1027513E+00
         21   -1    0    0  502  501  0.00000000000E+00  0.00000000000E+00  0.23218570723E+03  0.23218570723E+03  0.00000000000E+00 0. -1.
         21   -1    0    0  501  502 -0.00000000000E+00 -0.00000000000E+00 -0.21871743902E+03  0.21871743902E+03  0.00000000000E+00 0. -1.
      99926    2    1    2    0    0  0.71054273576E-14  0.00000000000E+00  0.13468268209E+02  0.45090314625E+03  0.45070195590E+03 0.  0.
      99925    2    3    3    0    0  0.55803389799E+02  0.85439112671E+02  0.47073730865E+02  0.28600713203E+03  0.26300243943E+03 0.  0.
         25    1    4    4    0    0  0.48744914580E+02  0.26472401254E+02  0.54607377577E+02  0.14733067743E+03  0.12509000000E+03 0.  0.
         25    1    4    4    0    0  0.70584752191E+01  0.58966711417E+02 -0.75336467112E+01  0.13867645460E+03  0.12509000000E+03 0.  0.
         25    1    3    3    0    0 -0.55803389799E+02 -0.85439112671E+02 -0.33605462657E+02  0.16489601423E+03  0.12509000000E+03 0.  0.
<mgrwt>
<rscale>  2 0.45070196E+03</rscale>
<asrwt>0</asrwt>
<pdfrwt beam="1">  1       21 0.34144957E-01 0.45070196E+03</pdfrwt>
<pdfrwt beam="2">  1       21 0.32164329E-01 0.45070196E+03</pdfrwt>
<totfact> 0.71259566E+04</totfact>
</mgrwt>
</event>
<event>
 7    0  0.4748297E-002  0.4516976E+03  0.7546771E-02  0.1027217E+00
         21   -1    0    0  502  501  0.00000000000E+00  0.00000000000E+00  0.12254954012E+03  0.12254954012E+03  0.00000000000E+00 0.  1.
         21   -1    0    0  501  502 -0.00000000000E+00 -0.00000000000E+00 -0.41622096259E+03  0.41622096259E+03  0.00000000000E+00 0.  1.
      99926    2    1    2    0    0  0.00000000000E+00  0.00000000000E+00 -0.29367142247E+03  0.53877050271E+03  0.45169763140E+03 0.  0.
      99925    2    3    3    0    0 -0.76747012801E+01 -0.10779887180E+03 -0.16078842655E+03  0.32667407061E+03  0.26302762687E+03 0.  0.
         25    1    3    3    0    0  0.76747012801E+01  0.10779887180E+03 -0.13288299593E+03  0.21209643210E+03  0.12509000000E+03 0.  0.
         25    1    4    4    0    0 -0.21944824488E+02 -0.93068626344E+02 -0.94393076437E+02  0.18357806381E+03  0.12509000000E+03 0.  0.
         25    1    4    4    0    0  0.14270123208E+02 -0.14730245458E+02 -0.66395350109E+02  0.14309600681E+03  0.12509000000E+03 0.  0.
<mgrwt>
<rscale>  2 0.45169763E+03</rscale>
<asrwt>0</asrwt>
<pdfrwt beam="1">  1       21 0.18021991E-01 0.45169763E+03</pdfrwt>
<pdfrwt beam="2">  1       21 0.61208966E-01 0.45169763E+03</pdfrwt>
<totfact> 0.64278254E+04</totfact>
</mgrwt>
</event>
<event>
 7    0  0.4748297E-002  0.4464155E+03  0.7546771E-02  0.1028796E+00
         21   -1    0    0  502  501  0.00000000000E+00  0.00000000000E+00  0.10048319007E+03  0.10048319007E+03  0.00000000000E+00 0. -1.
         21   -1    0    0  501  502 -0.00000000000E+00 -0.00000000000E+00 -0.49582124085E+03  0.49582124085E+03  0.00000000000E+00 0. -1.
      99926    2    1    2    0    0  0.00000000000E+00  0.00000000000E+00 -0.39533805078E+03  0.59630443093E+03  0.44641550146E+03 0.  0.
      99925    2    3    3    0    0  0.34527532441E+02 -0.98168527131E+02 -0.25662362481E+03  0.38248579215E+03  0.26383799228E+03 0.  0.
         25    1    4    4    0    0  0.46593959849E+02 -0.78034060842E+02 -0.16156564354E+03  0.22363201251E+03  0.12509000000E+03 0.  0.
         25    1    3    3    0    0 -0.34527532441E+02  0.98168527131E+02 -0.13871442597E+03  0.21381863877E+03  0.12509000000E+03 0.  0.
         25    1    4    4    0    0 -0.12066427408E+02 -0.20134466289E+02 -0.95057981274E+02  0.15885377964E+03  0.12509000000E+03 0.  0.
<mgrwt>
<rscale>  2 0.44641550E+03</rscale>
<asrwt>0</asrwt>
<pdfrwt beam="1">  1       21 0.14776940E-01 0.44641550E+03</pdfrwt>
<pdfrwt beam="2">  1       21 0.72914888E-01 0.44641550E+03</pdfrwt>
<totfact> 0.63077383E+04</totfact>
</mgrwt>
</event>
<event>
 7    0  0.4748297E-002  0.4771654E+03  0.7546771E-02  0.1019917E+00
         21   -1    0    0  502  501  0.00000000000E+00  0.00000000000E+00  0.21053266023E+03  0.21053266023E+03  0.00000000000E+00 0.  1.
         21   -1    0    0  501  502 -0.00000000000E+00 -0.00000000000E+00 -0.27036996637E+03  0.27036996637E+03  0.00000000000E+00 0.  1.
      99926    2    1    2    0    0  0.14210854715E-13  0.00000000000E+00 -0.59837306141E+02  0.48090262660E+03  0.47716541478E+03 0.  0.
      99925    2    3    3    0    0  0.85473694511E+02  0.24021185837E+02  0.62593041772E+02  0.28463885508E+03  0.26309431601E+03 0.  0.
         25    1    4    4    0    0  0.43992529885E+02 -0.16081782943E+02  0.61081527551E+02  0.14687555119E+03  0.12509000000E+03 0.  0.
         25    1    3    3    0    0 -0.85473694511E+02 -0.24021185837E+02 -0.12243034791E+03  0.19626377152E+03  0.12509000000E+03 0.  0.
         25    1    4    4    0    0  0.41481164626E+02  0.40102968781E+02  0.15115142213E+01  0.13776330389E+03  0.12509000000E+03 0.  0.
<mgrwt>
<rscale>  2 0.47716541E+03</rscale>
<asrwt>0</asrwt>
<pdfrwt beam="1">  1       21 0.30960685E-01 0.47716541E+03</pdfrwt>
<pdfrwt beam="2">  1       21 0.39760289E-01 0.47716541E+03</pdfrwt>
<totfact> 0.56091656E+04</totfact>
</mgrwt>
</event>
<event>
 7    0  0.4748297E-002  0.4561513E+03  0.7546771E-02  0.1025903E+00
         21   -1    0    0  502  501  0.00000000000E+00  0.00000000000E+00  0.82876608361E+02  0.82876608361E+02  0.00000000000E+00 0.  1.
         21   -1    0    0  501  502 -0.00000000000E+00 -0.00000000000E+00 -0.62766217115E+03  0.62766217115E+03  0.00000000000E+00 0.  1.
      99926    2    1    2    0    0  0.00000000000E+00  0.00000000000E+00 -0.54478556279E+03  0.71053877951E+03  0.45615134305E+03 0.  0.
      99925    2    3    3    0    0  0.22374714197E+02 -0.30448853330E+02 -0.17455162957E+03  0.31792136534E+03  0.26301703870E+03 0.  0.
         25    1    3    3    0    0 -0.22374714197E+02  0.30448853330E+02 -0.37023393321E+03  0.39261741417E+03  0.12509000000E+03 0.  0.
         25    1    4    4    0    0  0.22606771225E+02 -0.43905950734E+02 -0.58140914648E+02  0.14651509366E+03  0.12509000000E+03 0.  0.
         25    1    4    4    0    0 -0.23205702781E+00  0.13457097404E+02 -0.11641071492E+03  0.17140627168E+03  0.12509000000E+03 0.  0.
<mgrwt>
<rscale>  2 0.45615134E+03</rscale>
<asrwt>0</asrwt>
<pdfrwt beam="1">  1       21 0.12187736E-01 0.45615134E+03</pdfrwt>
<pdfrwt beam="2">  1       21 0.92303261E-01 0.45615134E+03</pdfrwt>
<totfact> 0.51863125E+04</totfact>
</mgrwt>
</event>
<event>
 7    0  0.4748297E-002  0.4362597E+03  0.7546771E-02  0.1031901E+00
         21   -1    0    0  502  501  0.00000000000E+00  0.00000000000E+00  0.41592634065E+03  0.41592634065E+03  0.00000000000E+00 0. -1.
         21   -1    0    0  501  502 -0.00000000000E+00 -0.00000000000E+00 -0.11439677254E+03  0.11439677254E+03  0.00000000000E+00 0. -1.
      99926    2    1    2    0    0  0.00000000000E+00  0.35527136788E-14  0.30152956810E+03  0.53032311319E+03  0.43625969782E+03 0.  0.
      99925    2    3    3    0    0  0.90349697371E+02  0.12899165302E+02  0.16343400423E+03  0.32284456215E+03  0.26303703406E+03 0.  0.
         25    1    4    4    0    0  0.29957903752E+02 -0.30203737605E+02  0.90451124659E+02  0.16012075385E+03  0.12509000000E+03 0.  0.
         25    1    4    4    0    0  0.60391793620E+02  0.43102902907E+02  0.72982879575E+02  0.16272380830E+03  0.12509000000E+03 0.  0.
         25    1    3    3    0    0 -0.90349697371E+02 -0.12899165302E+02  0.13809556387E+03  0.20747855104E+03  0.12509000000E+03 0.  0.
<mgrwt>
<rscale>  2 0.43625970E+03</rscale>
<asrwt>0</asrwt>
<pdfrwt beam="1">  1       21 0.61165638E-01 0.43625970E+03</pdfrwt>
<pdfrwt beam="2">  1       21 0.16823055E-01 0.43625970E+03</pdfrwt>
<totfact> 0.73496710E+04</totfact>
</mgrwt>
</event>
<event>
 7    0  0.4748297E-002  0.4689957E+03  0.7546771E-02  0.1022204E+00
         21   -1    0    0  502  501  0.00000000000E+00  0.00000000000E+00  0.23894557175E+03  0.23894557175E+03  0.00000000000E+00 0.  1.
         21   -1    0    0  501  502 -0.00000000000E+00 -0.00000000000E+00 -0.23013291455E+03  0.23013291455E+03  0.00000000000E+00 0.  1.
      99926    2    1    2    0    0 -0.14210854715E-13  0.17763568394E-14  0.88126571967E+01  0.46907848630E+03  0.46899569655E+03 0.  0.
      99925    2    3    3    0    0 -0.12172760047E+03  0.11217712411E+02 -0.24655683309E+02  0.29100242473E+03  0.26292786594E+03 0.  0.
         25    1    3    3    0    0  0.12172760047E+03 -0.11217712411E+02  0.33468340506E+02  0.17807606157E+03  0.12509000000E+03 0.  0.
         25    1    4    4    0    0 -0.74202580062E+02  0.30364087140E+01 -0.51417796585E+02  0.15429368286E+03  0.12509000000E+03 0.  0.
         25    1    4    4    0    0 -0.47525020412E+02  0.81813036971E+01  0.26762113276E+02  0.13670874187E+03  0.12509000000E+03 0.  0.
<mgrwt>
<rscale>  2 0.46899570E+03</rscale>
<asrwt>0</asrwt>
<pdfrwt beam="1">  1       21 0.35139055E-01 0.46899570E+03</pdfrwt>
<pdfrwt beam="2">  1       21 0.33843076E-01 0.46899570E+03</pdfrwt>
<totfact> 0.60484624E+04</totfact>
</mgrwt>
</event>
<event>
 7    0  0.4748297E-002  0.4540544E+03  0.7546771E-02  0.1026520E+00
         21   -1    0    0  502  501  0.00000000000E+00  0.00000000000E+00  0.60166761507E+02  0.60166761507E+02  0.00000000000E+00 0.  1.
         21   -1    0    0  501  502 -0.00000000000E+00 -0.00000000000E+00 -0.85664144818E+03  0.85664144818E+03  0.00000000000E+00 0.  1.
      99926    2    1    2    0    0  0.00000000000E+00  0.00000000000E+00 -0.79647468667E+03  0.91680820969E+03  0.45405436551E+03 0.  0.
      99925    2    3    3    0    0  0.44679317299E+02  0.79858214355E+02 -0.63287017978E+03  0.69144734669E+03  0.26306119630E+03 0.  0.
         25    1    4    4    0    0  0.40000828767E+02  0.57506074969E+02 -0.25221542154E+03  0.29011573884E+03  0.12509000000E+03 0.  0.
         25    1    4    4    0    0  0.46784885327E+01  0.22352139386E+02 -0.38065475824E+03  0.40133160785E+03  0.12509000000E+03 0.  0.
         25    1    3    3    0    0 -0.44679317299E+02 -0.79858214355E+02 -0.16360450689E+03  0.22536086300E+03  0.12509000000E+03 0.  0.
<mgrwt>
<rscale>  2 0.45405437E+03</rscale>
<asrwt>0</asrwt>
<pdfrwt beam="1">  1       21 0.88480523E-02 0.45405437E+03</pdfrwt>
<pdfrwt beam="2">  1       21 0.12597670E+00 0.45405437E+03</pdfrwt>
<totfact> 0.42830941E+04</totfact>
</mgrwt>
</event>
<event>
 7    0  0.4748297E-002  0.4521558E+03  0.7546771E-02  0.1027081E+00
         21   -1    0    0  502  501  0.00000000000E+00  0.00000000000E+00  0.40605398268E+03  0.40605398268E+03  0.00000000000E+00 0.  1.
         21   -1    0    0  501  502 -0.00000000000E+00 -0.00000000000E+00 -0.12587296250E+03  0.12587296250E+03  0.00000000000E+00 0.  1.
      99926    2    1    2    0    0  0.88817841970E-15  0.00000000000E+00  0.28018102018E+03  0.53192694518E+03  0.45215580383E+03 0.  0.
      99925    2    3    3    0    0 -0.50756080691E+01 -0.87514207742E+02  0.25584321337E+03  0.37725201090E+03  0.26301869049E+03 0.  0.
         25    1    4    4    0    0 -0.34540952988E+02 -0.49904025465E+02  0.16334952506E+03  0.21450889172E+03  0.12509000000E+03 0.  0.
         25    1    4    4    0    0  0.29465344919E+02 -0.37610182277E+02  0.92493688310E+02  0.16274311918E+03  0.12509000000E+03 0.  0.
         25    1    3    3    0    0  0.50756080691E+01  0.87514207742E+02  0.24337806816E+02  0.15467493428E+03  0.12509000000E+03 0.  0.
<mgrwt>
<rscale>  2 0.45215580E+03</rscale>
<asrwt>0</asrwt>
<pdfrwt beam="1">  1       21 0.59713821E-01 0.45215580E+03</pdfrwt>
<pdfrwt beam="2">  1       21 0.18510730E-01 0.45215580E+03</pdfrwt>
<totfact> 0.64517091E+04</totfact>
</mgrwt>
</event>
<event>
 7    0  0.4748297E-002  0.4397026E+03  0.7546771E-02  0.1030838E+00
         21   -1    0    0  502  501  0.00000000000E+00  0.00000000000E+00  0.12243166254E+04  0.12243166254E+04  0.00000000000E+00 0. -1.
         21   -1    0    0  501  502 -0.00000000000E+00 -0.00000000000E+00 -0.39478837385E+02  0.39478837385E+02  0.00000000000E+00 0. -1.
      99926    2    1    2    0    0  0.00000000000E+00 -0.71054273576E-14  0.11848377880E+04  0.12637954628E+04  0.43970261297E+03 0.  0.
      99925    2    3    3    0    0  0.77631636972E+02  0.43772930915E+02  0.63774039524E+03  0.69554744843E+03  0.26292717766E+03 0.  0.
         25    1    4    4    0    0  0.15916244092E+02  0.50839169009E+02  0.35626186095E+03  0.38132396935E+03  0.12509000000E+03 0.  0.
         25    1    3    3    0    0 -0.77631636972E+02 -0.43772930915E+02  0.54709739279E+03  0.56824801437E+03  0.12509000000E+03 0.  0.
         25    1    4    4    0    0  0.61715392880E+02 -0.70662380933E+01  0.28147853429E+03  0.31422347908E+03  0.12509000000E+03 0.  0.
<mgrwt>
<rscale>  2 0.43970261E+03</rscale>
<asrwt>0</asrwt>
<pdfrwt beam="1">  1       21 0.18004654E+00 0.43970261E+03</pdfrwt>
<pdfrwt beam="2">  1       21 0.58057122E-02 0.43970261E+03</pdfrwt>
<totfact> 0.34061509E+04</totfact>
</mgrwt>
</event>
<event>
 7    0  0.4748297E-002  0.4563281E+03  0.7546771E-02  0.1025852E+00
         21   -1    0    0  502  501  0.00000000000E+00  0.00000000000E+00  0.77638232995E+03  0.77638232995E+03  0.00000000000E+00 0. -1.
         21   -1    0    0  501  502 -0.00000000000E+00 -0.00000000000E+00 -0.67053090679E+02  0.67053090679E+02  0.00000000000E+00 0. -1.
      99926    2    1    2    0    0  0.00000000000E+00  0.71054273576E-14  0.70932923928E+03  0.84343542063E+03  0.45632810464E+03 0.  0.
      99925    2    3    3    0    0  0.10873037890E+03 -0.34410389851E+02  0.45304810532E+03  0.53629718148E+03  0.26335472448E+03 0.  0.
         25    1    4    4    0    0  0.36126599945E+02  0.14690048571E+02  0.24951354190E+03  0.28182520193E+03  0.12509000000E+03 0.  0.
         25    1    4    4    0    0  0.72603778958E+02 -0.49100438422E+02  0.20353456341E+03  0.25447197955E+03  0.12509000000E+03 0.  0.
         25    1    3    3    0    0 -0.10873037890E+03  0.34410389851E+02  0.25628113396E+03  0.30713823915E+03  0.12509000000E+03 0.  0.
<mgrwt>
<rscale>  2 0.45632810E+03</rscale>
<asrwt>0</asrwt>
<pdfrwt beam="1">  1       21 0.11417387E+00 0.45632810E+03</pdfrwt>
<pdfrwt beam="2">  1       21 0.98607491E-02 0.45632810E+03</pdfrwt>
<totfact> 0.45261050E+04</totfact>
</mgrwt>
</event>
<event>
 7    0  0.4748297E-002  0.4602515E+03  0.7546771E-02  0.1024708E+00
         21   -1    0    0  502  501  0.00000000000E+00  0.00000000000E+00  0.22666098895E+02  0.22666098895E+02  0.00000000000E+00 0.  1.
         21   -1    0    0  501  502 -0.00000000000E+00 -0.00000000000E+00 -0.23364347466E+04  0.23364347466E+04  0.00000000000E+00 0.  1.
      99926    2    1    2    0    0  0.00000000000E+00  0.00000000000E+00 -0.23137686477E+04  0.23591008455E+04  0.46025150094E+03 0.  0.
      99925    2    3    3    0    0 -0.20825350160E+02  0.11420208900E+03 -0.15576088510E+04  0.15839228281E+04  0.26304064410E+03 0.  0.
         25    1    4    4    0    0 -0.30961737936E+02  0.80193201890E+02 -0.67994181889E+03  0.69667636964E+03  0.12509000000E+03 0.  0.
         25    1    3    3    0    0  0.20825350160E+02 -0.11420208900E+03 -0.75615979675E+03  0.77517801740E+03  0.12509000000E+03 0.  0.
         25    1    4    4    0    0  0.10136387776E+02  0.34008887106E+02 -0.87766703209E+03  0.88724645847E+03  0.12509000000E+03 0.  0.
<mgrwt>
<rscale>  2 0.46025150E+03</rscale>
<asrwt>0</asrwt>
<pdfrwt beam="1">  1       21 0.33332515E-02 0.46025150E+03</pdfrwt>
<pdfrwt beam="2">  1       21 0.34359317E+00 0.46025150E+03</pdfrwt>
<totfact> 0.83375480E+03</totfact>
</mgrwt>
</event>
<event>
 7    0  0.4748297E-002  0.4503786E+03  0.7546771E-02  0.1027609E+00
         21   -1    0    0  502  501  0.00000000000E+00  0.00000000000E+00  0.14448882024E+03  0.14448882024E+03  0.00000000000E+00 0. -1.
         21   -1    0    0  501  502 -0.00000000000E+00 -0.00000000000E+00 -0.35096292688E+03  0.35096292688E+03  0.00000000000E+00 0. -1.
      99926    2    1    2    0    0  0.00000000000E+00  0.00000000000E+00 -0.20647410664E+03  0.49545174712E+03  0.45037859297E+03 0.  0.
      99925    2    3    3    0    0 -0.74665526137E+02  0.69466507310E+02 -0.88747223914E+02  0.29568272187E+03  0.26296704324E+03 0.  0.
         25    1    4    4    0    0 -0.32736506943E+02  0.24983202525E+02 -0.84338841596E+02  0.15638538166E+03  0.12509000000E+03 0.  0.
         25    1    4    4    0    0 -0.41929019193E+02  0.44483304785E+02 -0.44083823181E+01  0.13929734021E+03  0.12509000000E+03 0.  0.
         25    1    3    3    0    0  0.74665526137E+02 -0.69466507310E+02 -0.11772688273E+03  0.19976902525E+03  0.12509000000E+03 0.  0.
<mgrwt>
<rscale>  2 0.45037859E+03</rscale>
<asrwt>0</asrwt>
<pdfrwt beam="1">  1       21 0.21248356E-01 0.45037859E+03</pdfrwt>
<pdfrwt beam="2">  1       21 0.51612194E-01 0.45037859E+03</pdfrwt>
<totfact> 0.68053948E+04</totfact>
</mgrwt>
</event>
<event>
 7    0  0.4748297E-002  0.4010716E+03  0.7546771E-02  0.1043409E+00
         21   -1    0    0  502  501  0.00000000000E+00  0.00000000000E+00  0.12908333014E+04  0.12908333014E+04  0.00000000000E+00 0. -1.
         21   -1    0    0  501  502 -0.00000000000E+00 -0.00000000000E+00 -0.31153993171E+02  0.31153993171E+02  0.00000000000E+00 0. -1.
      99926    2    1    2    0    0  0.00000000000E+00  0.00000000000E+00  0.12596793083E+04  0.13219872946E+04  0.40107162382E+03 0.  0.
      99925    2    3    3    0    0 -0.23258735291E+02 -0.40140179482E+02  0.87053444971E+03  0.91060738283E+03  0.26310335374E+03 0.  0.
         25    1    4    4    0    0 -0.21705108818E+01 -0.24774157343E+02  0.30083703292E+03  0.32675510473E+03  0.12509000000E+03 0.  0.
         25    1    4    4    0    0 -0.21088224410E+02 -0.15366022139E+02  0.56969741679E+03  0.58385227810E+03  0.12509000000E+03 0.  0.
         25    1    3    3    0    0  0.23258735291E+02  0.40140179482E+02  0.38914485856E+03  0.41137991179E+03  0.12509000000E+03 0.  0.
<mgrwt>
<rscale>  2 0.40107162E+03</rscale>
<asrwt>0</asrwt>
<pdfrwt beam="1">  1       21 0.18982839E+00 0.40107162E+03</pdfrwt>
<pdfrwt beam="2">  1       21 0.45814704E-02 0.40107162E+03</pdfrwt>
<totfact> 0.44378694E+04</totfact>
</mgrwt>
</event>
<event>
 7    0  0.4748297E-002  0.4568934E+03  0.7546771E-02  0.1025686E+00
         21   -1    0    0  502  501  0.00000000000E+00  0.00000000000E+00  0.53939869721E+02  0.53939869721E+02  0.00000000000E+00 0.  1.
         21   -1    0    0  501  502 -0.00000000000E+00 -0.00000000000E+00 -0.96751987852E+03  0.96751987852E+03  0.00000000000E+00 0.  1.
      99926    2    1    2    0    0  0.14210854715E-13 -0.35527136788E-14 -0.91358000879E+03  0.10214597482E+04  0.45689340639E+03 0.  0.
      99925    2    3    3    0    0  0.96270067043E+02  0.20272965732E+02 -0.70675638252E+03  0.76049530730E+03  0.26300115826E+03 0.  0.
         25    1    4    4    0    0  0.71416709690E+02  0.29432743105E+02 -0.45445365480E+03  0.47764240311E+03  0.12509000000E+03 0.  0.
         25    1    4    4    0    0  0.24853357353E+02 -0.91597773728E+01 -0.25230272772E+03  0.28285290419E+03  0.12509000000E+03 0.  0.
         25    1    3    3    0    0 -0.96270067043E+02 -0.20272965732E+02 -0.20682362628E+03  0.26096444094E+03  0.12509000000E+03 0.  0.
<mgrwt>
<rscale>  2 0.45689341E+03</rscale>
<asrwt>0</asrwt>
<pdfrwt beam="1">  1       21 0.79323350E-02 0.45689341E+03</pdfrwt>
<pdfrwt beam="2">  1       21 0.14228231E+00 0.45689341E+03</pdfrwt>
<totfact> 0.37780733E+04</totfact>
</mgrwt>
</event>
<event>
 7    0  0.4748297E-002  0.4455507E+03  0.7546771E-02  0.1029057E+00
         21   -1    0    0  502  501  0.00000000000E+00  0.00000000000E+00  0.19818188979E+03  0.19818188979E+03  0.00000000000E+00 0.  1.
         21   -1    0    0  501  502 -0.00000000000E+00 -0.00000000000E+00 -0.25042078033E+03  0.25042078033E+03  0.00000000000E+00 0.  1.
      99926    2    1    2    0    0  0.00000000000E+00  0.00000000000E+00 -0.52238890538E+02  0.44860267012E+03  0.44555073107E+03 0.  0.
      99925    2    3    3    0    0  0.41350358353E+02  0.39496890353E+02  0.54090720579E+02  0.27475402681E+03  0.26323774940E+03 0.  0.
         25    1    4    4    0    0  0.26886506744E+02  0.29484761415E+02  0.67657513610E+02  0.14770674544E+03  0.12509000000E+03 0.  0.
         25    1    3    3    0    0 -0.41350358353E+02 -0.39496890353E+02 -0.10632961112E+03  0.17384864332E+03  0.12509000000E+03 0.  0.
         25    1    4    4    0    0  0.14463851609E+02  0.10012128938E+02 -0.13566793032E+02  0.12704728137E+03  0.12509000000E+03 0.  0.
<mgrwt>
<rscale>  2 0.44555073E+03</rscale>
<asrwt>0</asrwt>
<pdfrwt beam="1">  1       21 0.29144396E-01 0.44555073E+03</pdfrwt>
<pdfrwt beam="2">  1       21 0.36826585E-01 0.44555073E+03</pdfrwt>
<totfact> 0.74475222E+04</totfact>
</mgrwt>
</event>
<event>
 7    0  0.4748297E-002  0.4540195E+03  0.7546771E-02  0.1026530E+00
         21   -1    0    0  502  501  0.00000000000E+00  0.00000000000E+00  0.36201153461E+03  0.36201153461E+03  0.00000000000E+00 0.  1.
         21   -1    0    0  501  502 -0.00000000000E+00 -0.00000000000E+00 -0.14235301596E+03  0.14235301596E+03  0.00000000000E+00 0.  1.
      99926    2    1    2    0    0  0.00000000000E+00  0.00000000000E+00  0.21965851865E+03  0.50436455058E+03  0.45401953159E+03 0.  0.
      99925    2    3    3    0    0 -0.81528342270E+01 -0.92226145151E+02  0.20915383913E+03  0.34838382437E+03  0.26278095461E+03 0.  0.
         25    1    3    3    0    0  0.81528342270E+01  0.92226145151E+02  0.10504679517E+02  0.15598072620E+03  0.12509000000E+03 0.  0.
         25    1    4    4    0    0  0.16144439476E+02 -0.37829168660E+02  0.14446975574E+03  0.19547559273E+03  0.12509000000E+03 0.  0.
         25    1    4    4    0    0 -0.24297273703E+02 -0.54396976491E+02  0.64684083389E+02  0.15290823164E+03  0.12509000000E+03 0.  0.
<mgrwt>
<rscale>  2 0.45401953E+03</rscale>
<asrwt>0</asrwt>
<pdfrwt beam="1">  1       21 0.53236990E-01 0.45401953E+03</pdfrwt>
<pdfrwt beam="2">  1       21 0.20934267E-01 0.45401953E+03</pdfrwt>
<totfact> 0.65473163E+04</totfact>
</mgrwt>
</event>
<event>
 7    0  0.4748297E-002  0.4528559E+03  0.7546771E-02  0.1026874E+00
         21   -1    0    0  502  501  0.00000000000E+00  0.00000000000E+00  0.15945052332E+03  0.15945052332E+03  0.00000000000E+00 0.  1.
         21   -1    0    0  501  502 -0.00000000000E+00 -0.00000000000E+00 -0.32153934406E+03  0.32153934406E+03  0.00000000000E+00 0.  1.
      99926    2    1    2    0    0  0.00000000000E+00  0.00000000000E+00 -0.16208882074E+03  0.48098986738E+03  0.45285590061E+03 0.  0.
      99925    2    3    3    0    0  0.86475363121E+02  0.45023110359E+02 -0.45511401515E+02  0.28415777735E+03  0.26300054347E+03 0.  0.
         25    1    3    3    0    0 -0.86475363121E+02 -0.45023110359E+02 -0.11657741922E+03  0.19683209003E+03  0.12509000000E+03 0.  0.
         25    1    4    4    0    0  0.48284085147E+02  0.38785887963E+02 -0.60955118881E+02  0.15231130162E+03  0.12509000000E+03 0.  0.
         25    1    4    4    0    0  0.38191277974E+02  0.62372223960E+01  0.15443717366E+02  0.13184647573E+03  0.12509000000E+03 0.  0.
<mgrwt>
<rscale>  2 0.45285590E+03</rscale>
<asrwt>0</asrwt>
<pdfrwt beam="1">  1       21 0.23448606E-01 0.45285590E+03</pdfrwt>
<pdfrwt beam="2">  1       21 0.47285198E-01 0.45285590E+03</pdfrwt>
<totfact> 0.67774291E+04</totfact>
</mgrwt>
</event>
<event>
 7    0  0.4748297E-002  0.4373690E+03  0.7546771E-02  0.1031557E+00
         21   -1    0    0  502  501  0.00000000000E+00  0.00000000000E+00  0.76816055131E+02  0.76816055131E+02  0.00000000000E+00 0. -1.
         21   -1    0    0  501  502 -0.00000000000E+00 -0.00000000000E+00 -0.62256388121E+03  0.62256388121E+03  0.00000000000E+00 0. -1.
      99926    2    1    2    0    0 -0.35527136788E-14  0.00000000000E+00 -0.54574782608E+03  0.69937993634E+03  0.43736895830E+03 0.  0.
      99925    2    3    3    0    0  0.20084416282E+02 -0.93361562284E+02 -0.35787172823E+03  0.45429892661E+03  0.26305051941E+03 0.  0.
         25    1    4    4    0    0  0.18950973924E+02 -0.84825605703E+02 -0.22393856749E+03  0.27083299818E+03  0.12509000000E+03 0.  0.
         25    1    3    3    0    0 -0.20084416282E+02  0.93361562284E+02 -0.18787609785E+03  0.24508100973E+03  0.12509000000E+03 0.  0.
         25    1    4    4    0    0  0.11334423581E+01 -0.85359565807E+01 -0.13393316075E+03  0.18346592843E+03  0.12509000000E+03 0.  0.
<mgrwt>
<rscale>  2 0.43736896E+03</rscale>
<asrwt>0</asrwt>
<pdfrwt beam="1">  1       21 0.11296479E-01 0.43736896E+03</pdfrwt>
<pdfrwt beam="2">  1       21 0.91553510E-01 0.43736896E+03</pdfrwt>
<totfact> 0.60965482E+04</totfact>
</mgrwt>
</event>
<event>
 7    0  0.4748297E-002  0.4550395E+03  0.7546771E-02  0.1026230E+00
         21   -1    0    0  502  501  0.00000000000E+00  0.00000000000E+00  0.93870346268E+02  0.93870346268E+02  0.00000000000E+00 0. -1.
         21   -1    0    0  501  502 -0.00000000000E+00 -0.00000000000E+00 -0.55145468831E+03  0.55145468831E+03  0.00000000000E+00 0. -1.
      99926    2    1    2    0    0  0.71054273576E-14  0.00000000000E+00 -0.45758434204E+03  0.64532503457E+03  0.45503952594E+03 0.  0.
      99925    2    3    3    0    0  0.40220249957E+02 -0.93924739324E+02 -0.21790081699E+03  0.35630042413E+03  0.26273503958E+03 0.  0.
         25    1    4    4    0    0  0.38868288916E+02 -0.26353093889E+02 -0.68843647050E+02  0.15030697016E+03  0.12509000000E+03 0.  0.
         25    1    3    3    0    0 -0.40220249957E+02  0.93924739324E+02 -0.23968352505E+03  0.28902461045E+03  0.12509000000E+03 0.  0.
         25    1    4    4    0    0  0.13519610411E+01 -0.67571645435E+02 -0.14905716994E+03  0.20599345396E+03  0.12509000000E+03 0.  0.
<mgrwt>
<rscale>  2 0.45503953E+03</rscale>
<asrwt>0</asrwt>
<pdfrwt beam="1">  1       21 0.13804463E-01 0.45503953E+03</pdfrwt>
<pdfrwt beam="2">  1       21 0.81096278E-01 0.45503953E+03</pdfrwt>
<totfact> 0.55954167E+04</totfact>
</mgrwt>
</event>
<event>
 7    0  0.4748297E-002  0.4573963E+03  0.7546771E-02  0.1025539E+00
         21   -1    0    0  502  501  0.00000000000E+00  0.00000000000E+00  0.10788498593E+03  0.10788498593E+03  0.00000000000E+00 0. -1.
         21   -1    0    0  501  502 -0.00000000000E+00 -0.00000000000E+00 -0.48480186359E+03  0.48480186359E+03  0.00000000000E+00 0. -1.
      99926    2    1    2    0    0  0.00000000000E+00  0.71054273576E-14 -0.37691687766E+03  0.59268684953E+03  0.45739629310E+03 0.  0.
      99925    2    3    3    0    0  0.86665130915E+02 -0.54421094529E+02 -0.16673718588E+03  0.32755384256E+03  0.26271225738E+03 0.  0.
         25    1    3    3    0    0 -0.86665130915E+02  0.54421094529E+02 -0.21017969178E+03  0.26513300697E+03  0.12509000000E+03 0.  0.
         25    1    4    4    0    0  0.60205809583E+02 -0.49711088256E+02 -0.12398863842E+03  0.19265674751E+03  0.12509000000E+03 0.  0.
         25    1    4    4    0    0  0.26459321333E+02 -0.47100062727E+01 -0.42748547464E+02  0.13489709506E+03  0.12509000000E+03 0.  0.
<mgrwt>
<rscale>  2 0.45739629E+03</rscale>
<asrwt>0</asrwt>
<pdfrwt beam="1">  1       21 0.15865439E-01 0.45739629E+03</pdfrwt>
<pdfrwt beam="2">  1       21 0.71294393E-01 0.45739629E+03</pdfrwt>
<totfact> 0.58023997E+04</totfact>
</mgrwt>
</event>
<event>
 7    0  0.4748297E-002  0.4543936E+03  0.7546771E-02  0.1026420E+00
         21   -1    0    0  502  501  0.00000000000E+00  0.00000000000E+00  0.13582501364E+04  0.13582501364E+04  0.00000000000E+00 0. -1.
         21   -1    0    0  501  502 -0.00000000000E+00 -0.00000000000E+00 -0.38003596751E+02  0.38003596751E+02  0.00000000000E+00 0. -1.
      99926    2    1    2    0    0  0.00000000000E+00  0.35527136788E-14  0.13202465397E+04  0.13962537332E+04  0.45439361999E+03 0.  0.
      99925    2    3    3    0    0  0.11120748814E+03 -0.17383950002E+02  0.84061225844E+03  0.88795671472E+03  0.26299971681E+03 0.  0.
         25    1    4    4    0    0  0.52415622013E+02  0.24145258504E+02  0.33690876878E+03  0.36398546334E+03  0.12509000000E+03 0.  0.
         25    1    4    4    0    0  0.58791866123E+02 -0.41529208506E+02  0.50370348966E+03  0.52397125138E+03  0.12509000000E+03 0.  0.
         25    1    3    3    0    0 -0.11120748814E+03  0.17383950002E+02  0.47963428121E+03  0.50829701843E+03  0.12509000000E+03 0.  0.
<mgrwt>
<rscale>  2 0.45439362E+03</rscale>
<asrwt>0</asrwt>
<pdfrwt beam="1">  1       21 0.19974264E+00 0.45439362E+03</pdfrwt>
<pdfrwt beam="2">  1       21 0.55887651E-02 0.45439362E+03</pdfrwt>
<totfact> 0.26556932E+04</totfact>
</mgrwt>
</event>
<event>
 7    0  0.4748297E-002  0.4607187E+03  0.7546771E-02  0.1024573E+00
         21   -1    0    0  502  501  0.00000000000E+00  0.00000000000E+00  0.81223389625E+02  0.81223389625E+02  0.00000000000E+00 0. -1.
         21   -1    0    0  501  502 -0.00000000000E+00 -0.00000000000E+00 -0.65332690618E+03  0.65332690618E+03  0.00000000000E+00 0. -1.
      99926    2    1    2    0    0  0.00000000000E+00  0.00000000000E+00 -0.57210351655E+03  0.73455029580E+03  0.46071868142E+03 0.  0.
      99925    2    3    3    0    0 -0.63577632030E+02  0.40647052190E+02 -0.21260659126E+03  0.34650410585E+03  0.26300044596E+03 0.  0.
         25    1    4    4    0    0 -0.65160135471E+01  0.46990710346E+02 -0.12670198693E+03  0.18425929253E+03  0.12509000000E+03 0.  0.
         25    1    3    3    0    0  0.63577632030E+02 -0.40647052190E+02 -0.35949692529E+03  0.38804618995E+03  0.12509000000E+03 0.  0.
         25    1    4    4    0    0 -0.57061618483E+02 -0.63436581565E+01 -0.85904604333E+02  0.16224481332E+03  0.12509000000E+03 0.  0.
<mgrwt>
<rscale>  2 0.46071868E+03</rscale>
<asrwt>0</asrwt>
<pdfrwt beam="1">  1       21 0.11944616E-01 0.46071868E+03</pdfrwt>
<pdfrwt beam="2">  1       21 0.96077484E-01 0.46071868E+03</pdfrwt>
<totfact> 0.48833846E+04</totfact>
</mgrwt>
</event>
<event>
 7    0  0.4748297E-002  0.4545368E+03  0.7546771E-02  0.1026378E+00
         21   -1    0    0  502  501  0.00000000000E+00  0.00000000000E+00  0.43051387483E+03  0.43051387483E+03  0.00000000000E+00 0. -1.
         21   -1    0    0  501  502 -0.00000000000E+00 -0.00000000000E+00 -0.11997506002E+03  0.11997506002E+03  0.00000000000E+00 0. -1.
      99926    2    1    2    0    0  0.00000000000E+00  0.35527136788E-14  0.31053881481E+03  0.55048893485E+03  0.45453681027E+03 0.  0.
      99925    2    3    3    0    0 -0.53596334907E+02  0.30868877422E+02  0.30945229754E+03  0.41093914686E+03  0.26322006622E+03 0.  0.
         25    1    4    4    0    0 -0.67551110858E+02  0.22465411198E+02  0.15500261404E+03  0.21152107634E+03  0.12509000000E+03 0.  0.
         25    1    4    4    0    0  0.13954775950E+02  0.84034662238E+01  0.15444968350E+03  0.19941807052E+03  0.12509000000E+03 0.  0.
         25    1    3    3    0    0  0.53596334907E+02 -0.30868877422E+02  0.10865172732E+01  0.13954978799E+03  0.12509000000E+03 0.  0.
<mgrwt>
<rscale>  2 0.45453681E+03</rscale>
<asrwt>0</asrwt>
<pdfrwt beam="1">  1       21 0.63310864E-01 0.45453681E+03</pdfrwt>
<pdfrwt beam="2">  1       21 0.17643391E-01 0.45453681E+03</pdfrwt>
<totfact> 0.62061336E+04</totfact>
</mgrwt>
</event>
<event>
 7    0  0.4748297E-002  0.4520106E+03  0.7546771E-02  0.1027124E+00
         21   -1    0    0  502  501  0.00000000000E+00  0.00000000000E+00  0.10077917189E+03  0.10077917189E+03  0.00000000000E+00 0.  1.
         21   -1    0    0  501  502 -0.00000000000E+00 -0.00000000000E+00 -0.50683494945E+03  0.50683494945E+03  0.00000000000E+00 0.  1.
      99926    2    1    2    0    0  0.00000000000E+00  0.00000000000E+00 -0.40605577756E+03  0.60761412134E+03  0.45201064806E+03 0.  0.
      99925    2    3    3    0    0  0.26206655472E+02 -0.92842987886E+02 -0.18530431348E+03  0.33616370932E+03  0.26336617413E+03 0.  0.
         25    1    4    4    0    0 -0.23264752321E+02 -0.65380691548E+02 -0.99794190697E+02  0.17441981575E+03  0.12509000000E+03 0.  0.
         25    1    3    3    0    0 -0.26206655472E+02  0.92842987886E+02 -0.22075146408E+03  0.27145041202E+03  0.12509000000E+03 0.  0.
         25    1    4    4    0    0  0.49471407794E+02 -0.27462296338E+02 -0.85510122783E+02  0.16174389357E+03  0.12509000000E+03 0.  0.
<mgrwt>
<rscale>  2 0.45201065E+03</rscale>
<asrwt>0</asrwt>
<pdfrwt beam="1">  1       21 0.14820467E-01 0.45201065E+03</pdfrwt>
<pdfrwt beam="2">  1       21 0.74534550E-01 0.45201065E+03</pdfrwt>
<totfact> 0.59607172E+04</totfact>
</mgrwt>
</event>
<event>
 7    0  0.4748297E-002  0.4617167E+03  0.7546771E-02  0.1024285E+00
         21   -1    0    0  502  501  0.00000000000E+00  0.00000000000E+00  0.53839221252E+02  0.53839221252E+02  0.00000000000E+00 0. -1.
         21   -1    0    0  501  502 -0.00000000000E+00 -0.00000000000E+00 -0.98990236710E+03  0.98990236710E+03  0.00000000000E+00 0. -1.
      99926    2    1    2    0    0  0.00000000000E+00  0.00000000000E+00 -0.93606314585E+03  0.10437415884E+04  0.46171667746E+03 0.  0.
      99925    2    3    3    0    0  0.73744616740E+02  0.56442421557E+02 -0.41459953509E+03  0.49950283478E+03  0.26265241671E+03 0.  0.
         25    1    4    4    0    0  0.59894412189E+02  0.29962291156E+02 -0.27656558728E+03  0.31083936635E+03  0.12509000000E+03 0.  0.
         25    1    3    3    0    0 -0.73744616740E+02 -0.56442421557E+02 -0.52146361075E+03  0.54423875357E+03  0.12509000000E+03 0.  0.
         25    1    4    4    0    0  0.13850204551E+02  0.26480130401E+02 -0.13803394781E+03  0.18866346843E+03  0.12509000000E+03 0.  0.
<mgrwt>
<rscale>  2 0.46171668E+03</rscale>
<asrwt>0</asrwt>
<pdfrwt beam="1">  1       21 0.79175321E-02 0.46171668E+03</pdfrwt>
<pdfrwt beam="2">  1       21 0.14557389E+00 0.46171668E+03</pdfrwt>
<totfact> 0.35604214E+04</totfact>
</mgrwt>
</event>
<event>
 7    0  0.4748297E-002  0.4509374E+03  0.7546771E-02  0.1027443E+00
         21   -1    0    0  502  501  0.00000000000E+00  0.00000000000E+00  0.13722942419E+04  0.13722942419E+04  0.00000000000E+00 0. -1.
         21   -1    0    0  501  502 -0.00000000000E+00 -0.00000000000E+00 -0.37044627128E+02  0.37044627128E+02  0.00000000000E+00 0. -1.
      99926    2    1    2    0    0  0.00000000000E+00  0.00000000000E+00  0.13352496148E+04  0.14093388691E+04  0.45093737260E+03 0.  0.
      99925    2    3    3    0    0  0.10475233051E+03 -0.15436640643E+02  0.92053329970E+03  0.96341458094E+03  0.26377027560E+03 0.  0.
         25    1    4    4    0    0  0.28595451040E+02 -0.41879303290E+02  0.41132556176E+03  0.43290622740E+03  0.12509000000E+03 0.  0.
         25    1    3    3    0    0 -0.10475233051E+03  0.15436640643E+02  0.41471631511E+03  0.44592428813E+03  0.12509000000E+03 0.  0.
         25    1    4    4    0    0  0.76156879470E+02  0.26442662647E+02  0.50920773794E+03  0.53050835354E+03  0.12509000000E+03 0.  0.
<mgrwt>
<rscale>  2 0.45093737E+03</rscale>
<asrwt>0</asrwt>
<pdfrwt beam="1">  1       21 0.20180794E+00 0.45093737E+03</pdfrwt>
<pdfrwt beam="2">  1       21 0.54477402E-02 0.45093737E+03</pdfrwt>
<totfact> 0.26924232E+04</totfact>
</mgrwt>
</event>
<event>
 7    0  0.4748297E-002  0.4684256E+03  0.7546771E-02  0.1022366E+00
         21   -1    0    0  502  501  0.00000000000E+00  0.00000000000E+00  0.49395132699E+02  0.49395132699E+02  0.00000000000E+00 0.  1.
         21   -1    0    0  501  502 -0.00000000000E+00 -0.00000000000E+00 -0.11105472650E+04  0.11105472650E+04  0.00000000000E+00 0.  1.
      99926    2    1    2    0    0  0.14210854715E-13 -0.26645352591E-14 -0.10611521323E+04  0.11599423977E+04  0.46842557369E+03 0.  0.
      99925    2    3    3    0    0  0.12168564850E+03 -0.60421257041E+01 -0.57509552668E+03  0.64347125978E+03  0.26168013494E+03 0.  0.
         25    1    3    3    0    0 -0.12168564850E+03  0.60421257041E+01 -0.48605660557E+03  0.51647113787E+03  0.12509000000E+03 0.  0.
         25    1    4    4    0    0  0.44059626560E+02  0.32304081896E+02 -0.27592976877E+03  0.30784663355E+03  0.12509000000E+03 0.  0.
         25    1    4    4    0    0  0.77626021942E+02 -0.38346207600E+02 -0.29916575792E+03  0.33562462623E+03  0.12509000000E+03 0.  0.
<mgrwt>
<rscale>  2 0.46842557E+03</rscale>
<asrwt>0</asrwt>
<pdfrwt beam="1">  1       21 0.72639900E-02 0.46842557E+03</pdfrwt>
<pdfrwt beam="2">  1       21 0.16331578E+00 0.46842557E+03</pdfrwt>
<totfact> 0.30169835E+04</totfact>
</mgrwt>
</event>
<event>
 7    0  0.4748297E-002  0.4646589E+03  0.7546771E-02  0.1023439E+00
         21   -1    0    0  502  501  0.00000000000E+00  0.00000000000E+00  0.10225267295E+03  0.10225267295E+03  0.00000000000E+00 0. -1.
         21   -1    0    0  501  502 -0.00000000000E+00 -0.00000000000E+00 -0.52787832225E+03  0.52787832225E+03  0.00000000000E+00 0. -1.
      99926    2    1    2    0    0  0.00000000000E+00  0.14210854715E-13 -0.42562564929E+03  0.63013099520E+03  0.46465888324E+03 0.  0.
      99925    2    3    3    0    0 -0.51606261963E+02 -0.10982344364E+03 -0.24813216962E+03  0.38138245053E+03  0.26298023677E+03 0.  0.
         25    1    4    4    0    0 -0.21171684996E+02 -0.95742062174E+02 -0.11953474437E+03  0.19887394481E+03  0.12509000000E+03 0.  0.
         25    1    3    3    0    0  0.51606261963E+02  0.10982344364E+03 -0.17749347967E+03  0.24874854467E+03  0.12509000000E+03 0.  0.
         25    1    4    4    0    0 -0.30434576967E+02 -0.14081381468E+02 -0.12859742525E+03  0.18250850572E+03  0.12509000000E+03 0.  0.
<mgrwt>
<rscale>  2 0.46465888E+03</rscale>
<asrwt>0</asrwt>
<pdfrwt beam="1">  1       21 0.15037158E-01 0.46465888E+03</pdfrwt>
<pdfrwt beam="2">  1       21 0.77629166E-01 0.46465888E+03</pdfrwt>
<totfact> 0.52724066E+04</totfact>
</mgrwt>
</event>
<event>
 7    0  0.4748297E-002  0.4506480E+03  0.7546771E-02  0.1027529E+00
         21   -1    0    0  502  501  0.00000000000E+00  0.00000000000E+00  0.19883876138E+04  0.19883876138E+04  0.00000000000E+00 0. -1.
         21   -1    0    0  501  502 -0.00000000000E+00 -0.00000000000E+00 -0.25533709750E+02  0.25533709750E+02  0.00000000000E+00 0. -1.
      99926    2    1    2    0    0  0.00000000000E+00  0.00000000000E+00  0.19628539041E+04  0.20139213236E+04  0.45064803207E+03 0.  0.
      99925    2    3    3    0    0 -0.90086501920E+02  0.58442720811E+02  0.11563026183E+04  0.11906937645E+04  0.26302997193E+03 0.  0.
         25    1    3    3    0    0  0.90086501920E+02 -0.58442720811E+02  0.80655128577E+03  0.82322755913E+03  0.12509000000E+03 0.  0.
         25    1    4    4    0    0 -0.12560956176E+02  0.34088996297E+02  0.64767826685E+03  0.66064701826E+03  0.12509000000E+03 0.  0.
         25    1    4    4    0    0 -0.77525545744E+02  0.24353724514E+02  0.50862435148E+03  0.53004674620E+03  0.12509000000E+03 0.  0.
<mgrwt>
<rscale>  2 0.45064803E+03</rscale>
<asrwt>0</asrwt>
<pdfrwt beam="1">  1       21 0.29240984E+00 0.45064803E+03</pdfrwt>
<pdfrwt beam="2">  1       21 0.37549587E-02 0.45064803E+03</pdfrwt>
<totfact> 0.13948998E+04</totfact>
</mgrwt>
</event>
<event>
 7    0  0.4748297E-002  0.4490294E+03  0.7546771E-02  0.1028012E+00
         21   -1    0    0  502  501  0.00000000000E+00  0.00000000000E+00  0.13809983871E+04  0.13809983871E+04  0.00000000000E+00 0.  1.
         21   -1    0    0  501  502 -0.00000000000E+00 -0.00000000000E+00 -0.36500296150E+02  0.36500296150E+02  0.00000000000E+00 0.  1.
      99926    2    1    2    0    0  0.00000000000E+00  0.00000000000E+00  0.13444980910E+04  0.14174986833E+04  0.44902939820E+03 0.  0.
      99925    2    3    3    0    0 -0.30624782274E+02 -0.91314357006E+02  0.10013996005E+04  0.10398212133E+04  0.26296540950E+03 0.  0.
         25    1    4    4    0    0  0.20535868506E+02 -0.36460103985E+02  0.40970626665E+03  0.43041583859E+03  0.12509000000E+03 0.  0.
         25    1    4    4    0    0 -0.51160650780E+02 -0.54854253021E+02  0.59169333383E+03  0.60940537466E+03  0.12509000000E+03 0.  0.
         25    1    3    3    0    0  0.30624782274E+02  0.91314357006E+02  0.34309849048E+03  0.37767747001E+03  0.12509000000E+03 0.  0.
<mgrwt>
<rscale>  2 0.44902940E+03</rscale>
<asrwt>0</asrwt>
<pdfrwt beam="1">  1       21 0.20308796E+00 0.44902940E+03</pdfrwt>
<pdfrwt beam="2">  1       21 0.53676915E-02 0.44902940E+03</pdfrwt>
<totfact> 0.27105343E+04</totfact>
</mgrwt>
</event>
<event>
 7    0  0.4748297E-002  0.4688897E+03  0.7546771E-02  0.1022234E+00
         21   -1    0    0  502  501  0.00000000000E+00  0.00000000000E+00  0.27288596279E+03  0.27288596279E+03  0.00000000000E+00 0.  1.
         21   -1    0    0  501  502 -0.00000000000E+00 -0.00000000000E+00 -0.20141888344E+03  0.20141888344E+03  0.00000000000E+00 0.  1.
      99926    2    1    2    0    0  0.00000000000E+00  0.71054273576E-14  0.71467079351E+02  0.47430484624E+03  0.46888969250E+03 0.  0.
      99925    2    3    3    0    0 -0.10412681754E+03 -0.60553691252E+02  0.80922180900E+02  0.30039092874E+03  0.26301552626E+03 0.  0.
         25    1    3    3    0    0  0.10412681754E+03  0.60553691252E+02 -0.94551015492E+01  0.17391391750E+03  0.12509000000E+03 0.  0.
         25    1    4    4    0    0 -0.52561134847E+02 -0.68583041404E+02  0.26455465022E+02  0.15431690184E+03  0.12509000000E+03 0.  0.
         25    1    4    4    0    0 -0.51565682692E+02  0.80293501515E+01  0.54466715878E+02  0.14607402690E+03  0.12509000000E+03 0.  0.
<mgrwt>
<rscale>  2 0.46888969E+03</rscale>
<asrwt>0</asrwt>
<pdfrwt beam="1">  1       21 0.40130289E-01 0.46888969E+03</pdfrwt>
<pdfrwt beam="2">  1       21 0.29620424E-01 0.46888969E+03</pdfrwt>
<totfact> 0.60198519E+04</totfact>
</mgrwt>
</event>
<event>
 7    0  0.4748297E-002  0.4627547E+03  0.7546771E-02  0.1023985E+00
         21   -1    0    0  502  501  0.00000000000E+00  0.00000000000E+00  0.38361621240E+02  0.38361621240E+02  0.00000000000E+00 0. -1.
         21   -1    0    0  501  502 -0.00000000000E+00 -0.00000000000E+00 -0.13955475790E+04  0.13955475790E+04  0.00000000000E+00 0. -1.
      99926    2    1    2    0    0  0.00000000000E+00  0.00000000000E+00 -0.13571859577E+04  0.14339092002E+04  0.46275465485E+03 0.  0.
      99925    2    3    3    0    0 -0.10557507836E+03 -0.51183936995E+02 -0.93269661880E+03  0.97608325125E+03  0.26277297820E+03 0.  0.
         25    1    3    3    0    0  0.10557507836E+03  0.51183936995E+02 -0.42448933893E+03  0.45782594896E+03  0.12509000000E+03 0.  0.
         25    1    4    4    0    0 -0.95394877620E+02 -0.31518439180E+02 -0.54261257478E+03  0.56583523140E+03  0.12509000000E+03 0.  0.
         25    1    4    4    0    0 -0.10180200739E+02 -0.19665497816E+02 -0.39008404402E+03  0.41024801985E+03  0.12509000000E+03 0.  0.
<mgrwt>
<rscale>  2 0.46275465E+03</rscale>
<asrwt>0</asrwt>
<pdfrwt beam="1">  1       21 0.56414145E-02 0.46275465E+03</pdfrwt>
<pdfrwt beam="2">  1       21 0.20522760E+00 0.46275465E+03</pdfrwt>
<totfact> 0.23965394E+04</totfact>
</mgrwt>
</event>
<event>
 7    0  0.4748297E-002  0.4556987E+03  0.7546771E-02  0.1026036E+00
         21   -1    0    0  502  501  0.00000000000E+00  0.00000000000E+00  0.53791292468E+02  0.53791292468E+02  0.00000000000E+00 0.  1.
         21   -1    0    0  501  502 -0.00000000000E+00 -0.00000000000E+00 -0.96512520491E+03  0.96512520491E+03  0.00000000000E+00 0.  1.
      99926    2    1    2    0    0 -0.14210854715E-13  0.00000000000E+00 -0.91133391244E+03  0.10189164974E+04  0.45569872576E+03 0.  0.
      99925    2    3    3    0    0  0.99041852198E+02  0.41837821814E+02 -0.65685997538E+03  0.71566052536E+03  0.26295487917E+03 0.  0.
         25    1    3    3    0    0 -0.99041852198E+02 -0.41837821814E+02 -0.25447393706E+03  0.30325597202E+03  0.12509000000E+03 0.  0.
         25    1    4    4    0    0  0.84510299463E+02  0.26138355938E+02 -0.29904035144E+03  0.33600274441E+03  0.12509000000E+03 0.  0.
         25    1    4    4    0    0  0.14531552735E+02  0.15699465876E+02 -0.35781962394E+03  0.37965778095E+03  0.12509000000E+03 0.  0.
<mgrwt>
<rscale>  2 0.45569873E+03</rscale>
<asrwt>0</asrwt>
<pdfrwt beam="1">  1       21 0.79104850E-02 0.45569873E+03</pdfrwt>
<pdfrwt beam="2">  1       21 0.14193016E+00 0.45569873E+03</pdfrwt>
<totfact> 0.38229994E+04</totfact>
</mgrwt>
</event>
<event>
 7    0  0.4748297E-002  0.4353963E+03  0.7546771E-02  0.1032169E+00
         21   -1    0    0  502  501  0.00000000000E+00  0.00000000000E+00  0.59964820032E+02  0.59964820032E+02  0.00000000000E+00 0.  1.
         21   -1    0    0  501  502 -0.00000000000E+00 -0.00000000000E+00 -0.79033811384E+03  0.79033811384E+03  0.00000000000E+00 0.  1.
      99926    2    1    2    0    0 -0.71054273576E-14  0.00000000000E+00 -0.73037329381E+03  0.85030293388E+03  0.43539629195E+03 0.  0.
      99925    2    3    3    0    0 -0.55211258973E+02 -0.66277256707E+02 -0.39668524312E+03  0.48364753551E+03  0.26289693537E+03 0.  0.
         25    1    4    4    0    0 -0.53813954131E+02 -0.60852222790E+02 -0.18422966435E+03  0.23703799696E+03  0.12509000000E+03 0.  0.
         25    1    4    4    0    0 -0.13973048417E+01 -0.54250339163E+01 -0.21245557877E+03  0.24660953855E+03  0.12509000000E+03 0.  0.
         25    1    3    3    0    0  0.55211258973E+02  0.66277256707E+02 -0.33368805069E+03  0.36665539836E+03  0.12509000000E+03 0.  0.
<mgrwt>
<rscale>  2 0.43539629E+03</rscale>
<asrwt>0</asrwt>
<pdfrwt beam="1">  1       21 0.88183571E-02 0.43539629E+03</pdfrwt>
<pdfrwt beam="2">  1       21 0.11622618E+00 0.43539629E+03</pdfrwt>
<totfact> 0.53137291E+04</totfact>
</mgrwt>
</event>
<event>
 7    0  0.4748297E-002  0.4471808E+03  0.7546771E-02  0.1028566E+00
         21   -1    0    0  502  501  0.00000000000E+00  0.00000000000E+00  0.70552889609E+03  0.70552889609E+03  0.00000000000E+00 0. -1.
         21   -1    0    0  501  502 -0.00000000000E+00 -0.00000000000E+00 -0.70858417178E+02  0.70858417178E+02  0.00000000000E+00 0. -1.
      99926    2    1    2    0    0  0.00000000000E+00  0.00000000000E+00  0.63467047891E+03  0.77638731327E+03  0.44718077262E+03 0.  0.
      99925    2    3    3    0    0 -0.65582231053E+02 -0.82868671557E+02  0.39810327374E+03  0.48867253016E+03  0.26295699157E+03 0.  0.
         25    1    4    4    0    0 -0.30678277377E+02 -0.77007572321E+02  0.25025747506E+03  0.29180067652E+03  0.12509000000E+03 0.  0.
         25    1    3    3    0    0  0.65582231053E+02  0.82868671557E+02  0.23656720517E+03  0.28771478311E+03  0.12509000000E+03 0.  0.
         25    1    4    4    0    0 -0.34903953676E+02 -0.58610992366E+01  0.14784579868E+03  0.19687185364E+03  0.12509000000E+03 0.  0.
<mgrwt>
<rscale>  2 0.44718077E+03</rscale>
<asrwt>0</asrwt>
<pdfrwt beam="1">  1       21 0.10375425E+00 0.44718077E+03</pdfrwt>
<pdfrwt beam="2">  1       21 0.10420356E-01 0.44718077E+03</pdfrwt>
<totfact> 0.52050113E+04</totfact>
</mgrwt>
</event>
<event>
 7    0  0.4748297E-002  0.4584707E+03  0.7546771E-02  0.1025226E+00
         21   -1    0    0  502  501  0.00000000000E+00  0.00000000000E+00  0.61008359020E+02  0.61008359020E+02  0.00000000000E+00 0.  1.
         21   -1    0    0  501  502 -0.00000000000E+00 -0.00000000000E+00 -0.86133862411E+03  0.86133862411E+03  0.00000000000E+00 0.  1.
      99926    2    1    2    0    0  0.35527136788E-14 -0.71054273576E-14 -0.80033026509E+03  0.92234698313E+03  0.45847074505E+03 0.  0.
      99925    2    3    3    0    0 -0.31306068523E+02  0.55652359946E+02 -0.69783854336E+03  0.74848118369E+03  0.26299846888E+03 0.  0.
         25    1    4    4    0    0 -0.47134703331E+01 -0.25963002844E+01 -0.40035491834E+03  0.41947649078E+03  0.12509000000E+03 0.  0.
         25    1    3    3    0    0  0.31306068523E+02 -0.55652359946E+02 -0.10249172173E+03  0.17386579944E+03  0.12509000000E+03 0.  0.
         25    1    4    4    0    0 -0.26592598189E+02  0.58248660231E+02 -0.29748362503E+03  0.32900469291E+03  0.12509000000E+03 0.  0.
<mgrwt>
<rscale>  2 0.45847075E+03</rscale>
<asrwt>0</asrwt>
<pdfrwt beam="1">  1       21 0.89718176E-02 0.45847075E+03</pdfrwt>
<pdfrwt beam="2">  1       21 0.12666744E+00 0.45847075E+03</pdfrwt>
<totfact> 0.41152376E+04</totfact>
</mgrwt>
</event>
<event>
 7    0  0.4748297E-002  0.4571630E+03  0.7546771E-02  0.1025607E+00
         21   -1    0    0  502  501  0.00000000000E+00  0.00000000000E+00  0.10664285684E+04  0.10664285684E+04  0.00000000000E+00 0. -1.
         21   -1    0    0  501  502 -0.00000000000E+00 -0.00000000000E+00 -0.48994844548E+02  0.48994844548E+02  0.00000000000E+00 0. -1.
      99926    2    1    2    0    0  0.00000000000E+00  0.00000000000E+00  0.10174337239E+04  0.11154234130E+04  0.45716299908E+03 0.  0.
      99925    2    3    3    0    0  0.19562739624E+02  0.54392696672E+02  0.39588829488E+03  0.47878576514E+03  0.26299619891E+03 0.  0.
         25    1    3    3    0    0 -0.19562739624E+02 -0.54392696672E+02  0.62154542899E+03  0.63663764783E+03  0.12509000000E+03 0.  0.
         25    1    4    4    0    0 -0.23450841026E+02  0.46302517548E+02  0.22371796625E+03  0.26151692411E+03  0.12509000000E+03 0.  0.
         25    1    4    4    0    0  0.43013580650E+02  0.80901791237E+01  0.17217032863E+03  0.21726884102E+03  0.12509000000E+03 0.  0.
<mgrwt>
<rscale>  2 0.45716300E+03</rscale>
<asrwt>0</asrwt>
<pdfrwt beam="1">  1       21 0.15682772E+00 0.45716300E+03</pdfrwt>
<pdfrwt beam="2">  1       21 0.72051249E-02 0.45716300E+03</pdfrwt>
<totfact> 0.34374596E+04</totfact>
</mgrwt>
</event>
<event>
 7    0  0.6215949E-002  0.4240331E+03  0.7546771E-02  0.1035762E+00
         21   -1    0    0  502  501  0.00000000000E+00  0.00000000000E+00  0.11403028490E+03  0.11403028490E+03  0.00000000000E+00 0. -1.
         21   -1    0    0  501  502 -0.00000000000E+00 -0.00000000000E+00 -0.39420249767E+03  0.39420249767E+03  0.00000000000E+00 0. -1.
      99926    2    1    2    0    0  0.00000000000E+00 -0.71054273576E-14 -0.28017221278E+03  0.50823278257E+03  0.42403312661E+03 0.  0.
      99925    2    3    3    0    0  0.37280316635E+02 -0.52200667921E+02 -0.23980421928E+03  0.36197337351E+03  0.26344625221E+03 0.  0.
         25    1    3    3    0    0 -0.37280316635E+02  0.52200667921E+02 -0.40367993494E+02  0.14625940906E+03  0.12509000000E+03 0.  0.
         25    1    4    4    0    0  0.13494562973E+02  0.13319833976E+02 -0.94071900865E+02  0.15765960751E+03  0.12509000000E+03 0.  0.
         25    1    4    4    0    0  0.23785753662E+02 -0.65520501898E+02 -0.14573231842E+03  0.20431376600E+03  0.12509000000E+03 0.  0.
<mgrwt>
<rscale>  2 0.42403313E+03</rscale>
<asrwt>0</asrwt>
<pdfrwt beam="1">  1       21 0.16769159E-01 0.42403313E+03</pdfrwt>
<pdfrwt beam="2">  1       21 0.57970956E-01 0.42403313E+03</pdfrwt>
<totfact> 0.83352374E+04</totfact>
</mgrwt>
</event>
<event>
 7    0  0.4748297E-002  0.4573076E+03  0.7546771E-02  0.1025565E+00
         21   -1    0    0  502  501  0.00000000000E+00  0.00000000000E+00  0.61153883584E+02  0.61153883584E+02  0.00000000000E+00 0. -1.
         21   -1    0    0  501  502 -0.00000000000E+00 -0.00000000000E+00 -0.85493433521E+03  0.85493433521E+03  0.00000000000E+00 0. -1.
      99926    2    1    2    0    0  0.00000000000E+00  0.00000000000E+00 -0.79378045163E+03  0.91608821880E+03  0.45730757618E+03 0.  0.
      99925    2    3    3    0    0 -0.96655388413E+02 -0.14676984893E+02 -0.62395899059E+03  0.68361345732E+03  0.26161968408E+03 0.  0.
         25    1    4    4    0    0 -0.27254409179E+02 -0.28426823996E+01 -0.37470274835E+03  0.39598048107E+03  0.12509000000E+03 0.  0.
         25    1    3    3    0    0  0.96655388413E+02  0.14676984893E+02 -0.16982146105E+03  0.23247476148E+03  0.12509000000E+03 0.  0.
         25    1    4    4    0    0 -0.69400979234E+02 -0.11834302494E+02 -0.24925624223E+03  0.28763297625E+03  0.12509000000E+03 0.  0.
<mgrwt>
<rscale>  2 0.45730758E+03</rscale>
<asrwt>0</asrwt>
<pdfrwt beam="1">  1       21 0.89932174E-02 0.45730758E+03</pdfrwt>
<pdfrwt beam="2">  1       21 0.12572565E+00 0.45730758E+03</pdfrwt>
<totfact> 0.41785597E+04</totfact>
</mgrwt>
</event>
<event>
 7    0  0.4748297E-002  0.4565387E+03  0.7546771E-02  0.1025790E+00
         21   -1    0    0  502  501  0.00000000000E+00  0.00000000000E+00  0.15941303768E+03  0.15941303768E+03  0.00000000000E+00 0. -1.
         21   -1    0    0  501  502 -0.00000000000E+00 -0.00000000000E+00 -0.32686728032E+03  0.32686728032E+03  0.00000000000E+00 0. -1.
      99926    2    1    2    0    0  0.35527136788E-14  0.14210854715E-13 -0.16745424265E+03  0.48628031800E+03  0.45653874347E+03 0.  0.
      99925    2    3    3    0    0 -0.23602635756E+02 -0.61769454707E+02 -0.58404131406E+01  0.27148020641E+03  0.26323913482E+03 0.  0.
         25    1    4    4    0    0 -0.18991555159E+02  0.54488921383E+01 -0.21807324888E+02  0.12850461903E+03  0.12509000000E+03 0.  0.
         25    1    4    4    0    0 -0.46110805975E+01 -0.67218346845E+02  0.15966911747E+02  0.14297558738E+03  0.12509000000E+03 0.  0.
         25    1    3    3    0    0  0.23602635756E+02  0.61769454707E+02 -0.16161382951E+03  0.21480011158E+03  0.12509000000E+03 0.  0.
<mgrwt>
<rscale>  2 0.45653874E+03</rscale>
<asrwt>0</asrwt>
<pdfrwt beam="1">  1       21 0.23443094E-01 0.45653874E+03</pdfrwt>
<pdfrwt beam="2">  1       21 0.48068717E-01 0.45653874E+03</pdfrwt>
<totfact> 0.65442653E+04</totfact>
</mgrwt>
</event>
<event>
 7    0  0.4748297E-002  0.4427525E+03  0.7546771E-02  0.1029906E+00
         21   -1    0    0  502  501  0.00000000000E+00  0.00000000000E+00  0.23448839726E+03  0.23448839726E+03  0.00000000000E+00 0.  1.
         21   -1    0    0  501  502 -0.00000000000E+00 -0.00000000000E+00 -0.20899733277E+03  0.20899733277E+03  0.00000000000E+00 0.  1.
      99926    2    1    2    0    0  0.00000000000E+00  0.00000000000E+00  0.25491064492E+02  0.44348573003E+03  0.44275252498E+03 0.  0.
      99925    2    3    3    0    0  0.75872411361E+02 -0.54003918812E+02 -0.23584440231E+02  0.27999579359E+03  0.26299880714E+03 0.  0.
         25    1    4    4    0    0  0.16690799289E+02 -0.27513226314E+02 -0.46439930634E+02  0.13725791657E+03  0.12509000000E+03 0.  0.
         25    1    4    4    0    0  0.59181612072E+02 -0.26490692498E+02  0.22855490403E+02  0.14273787703E+03  0.12509000000E+03 0.  0.
         25    1    3    3    0    0 -0.75872411361E+02  0.54003918812E+02  0.49075504723E+02  0.16348993644E+03  0.12509000000E+03 0.  0.
<mgrwt>
<rscale>  2 0.44275252E+03</rscale>
<asrwt>0</asrwt>
<pdfrwt beam="1">  1       21 0.34483588E-01 0.44275252E+03</pdfrwt>
<pdfrwt beam="2">  1       21 0.30734902E-01 0.44275252E+03</pdfrwt>
<totfact> 0.76615310E+04</totfact>
</mgrwt>
</event>
<event>
 7    0  0.4748297E-002  0.4494132E+03  0.7546771E-02  0.1027897E+00
         21   -1    0    0  502  501  0.00000000000E+00  0.00000000000E+00  0.10215294972E+03  0.10215294972E+03  0.00000000000E+00 0. -1.
         21   -1    0    0  501  502 -0.00000000000E+00 -0.00000000000E+00 -0.49428878703E+03  0.49428878703E+03  0.00000000000E+00 0. -1.
      99926    2    1    2    0    0 -0.35527136788E-14  0.71054273576E-14 -0.39213583731E+03  0.59644173675E+03  0.44941320678E+03 0.  0.
      99925    2    3    3    0    0  0.25530104506E+02 -0.59730023975E+02 -0.13387323455E+03  0.30221981016E+03  0.26305001183E+03 0.  0.
         25    1    4    4    0    0  0.33215162216E+02  0.55985502817E+01 -0.60472377318E+02  0.14296505617E+03  0.12509000000E+03 0.  0.
         25    1    3    3    0    0 -0.25530104506E+02  0.59730023975E+02 -0.25826260276E+03  0.29422192659E+03  0.12509000000E+03 0.  0.
         25    1    4    4    0    0 -0.76850577098E+01 -0.65328574256E+02 -0.73400857235E+02  0.15925475399E+03  0.12509000000E+03 0.  0.
<mgrwt>
<rscale>  2 0.44941321E+03</rscale>
<asrwt>0</asrwt>
<pdfrwt beam="1">  1       21 0.15022493E-01 0.44941321E+03</pdfrwt>
<pdfrwt beam="2">  1       21 0.72689525E-01 0.44941321E+03</pdfrwt>
<totfact> 0.61571269E+04</totfact>
</mgrwt>
</event>
<event>
 7    0  0.4748297E-002  0.4599011E+03  0.7546771E-02  0.1024810E+00
         21   -1    0    0  502  501  0.00000000000E+00  0.00000000000E+00  0.51745823766E+03  0.51745823766E+03  0.00000000000E+00 0.  1.
         21   -1    0    0  501  502 -0.00000000000E+00 -0.00000000000E+00 -0.10218653611E+03  0.10218653611E+03  0.00000000000E+00 0.  1.
      99926    2    1    2    0    0  0.14210854715E-13 -0.17763568394E-14  0.41527170155E+03  0.61964477378E+03  0.45990114108E+03 0.  0.
      99925    2    3    3    0    0  0.10635182351E+03  0.13840328987E+02  0.19407207618E+03  0.34382046841E+03  0.26276658591E+03 0.  0.
         25    1    4    4    0    0  0.85380963507E+02 -0.12416797063E+02  0.82745288888E+02  0.17302709820E+03  0.12509000000E+03 0.  0.
         25    1    4    4    0    0  0.20970860003E+02  0.26257126050E+02  0.11132678729E+03  0.17079337021E+03  0.12509000000E+03 0.  0.
         25    1    3    3    0    0 -0.10635182351E+03 -0.13840328987E+02  0.22119962537E+03  0.27582430537E+03  0.12509000000E+03 0.  0.
<mgrwt>
<rscale>  2 0.45990114E+03</rscale>
<asrwt>0</asrwt>
<pdfrwt beam="1">  1       21 0.76096798E-01 0.45990114E+03</pdfrwt>
<pdfrwt beam="2">  1       21 0.15027432E-01 0.45990114E+03</pdfrwt>
<totfact> 0.55312986E+04</totfact>
</mgrwt>
</event>
<event>
 7    0  0.4748297E-002  0.4556210E+03  0.7546771E-02  0.1026059E+00
         21   -1    0    0  502  501  0.00000000000E+00  0.00000000000E+00  0.11823398559E+03  0.11823398559E+03  0.00000000000E+00 0. -1.
         21   -1    0    0  501  502 -0.00000000000E+00 -0.00000000000E+00 -0.43893997460E+03  0.43893997460E+03  0.00000000000E+00 0. -1.
      99926    2    1    2    0    0  0.00000000000E+00  0.00000000000E+00 -0.32070598901E+03  0.55717396020E+03  0.45562099440E+03 0.  0.
      99925    2    3    3    0    0 -0.76072153656E+02  0.83929703480E+02 -0.18869627587E+03  0.34291887822E+03  0.26297510305E+03 0.  0.
         25    1    4    4    0    0 -0.40022205861E+02  0.51342703167E+02 -0.49200435573E+02  0.14935207093E+03  0.12509000000E+03 0.  0.
         25    1    4    4    0    0 -0.36049947795E+02  0.32587000313E+02 -0.13949584030E+03  0.19356680729E+03  0.12509000000E+03 0.  0.
         25    1    3    3    0    0  0.76072153656E+02 -0.83929703480E+02 -0.13200971314E+03  0.21425508197E+03  0.12509000000E+03 0.  0.
<mgrwt>
<rscale>  2 0.45562099E+03</rscale>
<asrwt>0</asrwt>
<pdfrwt beam="1">  1       21 0.17387351E-01 0.45562099E+03</pdfrwt>
<pdfrwt beam="2">  1       21 0.64549996E-01 0.45562099E+03</pdfrwt>
<totfact> 0.61094255E+04</totfact>
</mgrwt>
</event>
<event>
 6    0  0.4748297E-002  0.4578265E+03  0.7546771E-02  0.1025413E+00
         21   -1    0    0  502  501  0.00000000000E+00  0.00000000000E+00  0.89399572363E+02  0.89399572363E+02  0.00000000000E+00 0. -1.
         21   -1    0    0  501  502 -0.00000000000E+00 -0.00000000000E+00 -0.58614681184E+03  0.58614681184E+03  0.00000000000E+00 0. -1.
      99926    2    1    2    0    0  0.00000000000E+00  0.53290705182E-14 -0.49674723948E+03  0.67554638420E+03  0.45782649255E+03 0.  0.
         25    1    3    3    0    0 -0.48187234262E+02 -0.11885186531E+02 -0.32603911705E+03  0.35272125135E+03  0.12509000000E+03 0.  0.
         25    1    3    3    0    0 -0.24539166887E+01  0.48453007446E+02 -0.82175857126E+02  0.15733434219E+03  0.12509000000E+03 0.  0.
         25    1    3    3    0    0  0.50641150950E+02 -0.36567820914E+02 -0.88532265297E+02  0.16549079066E+03  0.12509000000E+03 0.  0.
<mgrwt>
<rscale>  2 0.45782649E+03</rscale>
<asrwt>0</asrwt>
<pdfrwt beam="1">  1       21 0.13146996E-01 0.45782649E+03</pdfrwt>
<pdfrwt beam="2">  1       21 0.86198062E-01 0.45782649E+03</pdfrwt>
<totfact> 0.53059325E+04</totfact>
</mgrwt>
</event>
<event>
 7    0  0.4748297E-002  0.4583438E+03  0.7546771E-02  0.1025263E+00
         21   -1    0    0  502  501  0.00000000000E+00  0.00000000000E+00  0.28778200503E+03  0.28778200503E+03  0.00000000000E+00 0.  1.
         21   -1    0    0  501  502 -0.00000000000E+00 -0.00000000000E+00 -0.18249844692E+03  0.18249844692E+03  0.00000000000E+00 0.  1.
      99926    2    1    2    0    0  0.00000000000E+00  0.00000000000E+00  0.10528355810E+03  0.47028045195E+03  0.45834384023E+03 0.  0.
      99925    2    3    3    0    0  0.54781839498E+02 -0.84217353259E+02  0.12619470296E+03  0.30848305825E+03  0.26295072094E+03 0.  0.
         25    1    4    4    0    0  0.46515056713E+02 -0.21060181902E+02  0.30254073313E+02  0.13845576483E+03  0.12509000000E+03 0.  0.
         25    1    3    3    0    0 -0.54781839498E+02  0.84217353259E+02 -0.20911144853E+02  0.16179739370E+03  0.12509000000E+03 0.  0.
         25    1    4    4    0    0  0.82667827846E+01 -0.63157171357E+02  0.95940629642E+02  0.17002729342E+03  0.12509000000E+03 0.  0.
<mgrwt>
<rscale>  2 0.45834384E+03</rscale>
<asrwt>0</asrwt>
<pdfrwt beam="1">  1       21 0.42320883E-01 0.45834384E+03</pdfrwt>
<pdfrwt beam="2">  1       21 0.26838007E-01 0.45834384E+03</pdfrwt>
<totfact> 0.65656199E+04</totfact>
</mgrwt>
</event>
<event>
 7    0  0.4748297E-002  0.4560206E+03  0.7546771E-02  0.1025942E+00
         21   -1    0    0  502  501  0.00000000000E+00  0.00000000000E+00  0.11018433736E+03  0.11018433736E+03  0.00000000000E+00 0.  1.
         21   -1    0    0  501  502 -0.00000000000E+00 -0.00000000000E+00 -0.47183381744E+03  0.47183381744E+03  0.00000000000E+00 0.  1.
      99926    2    1    2    0    0  0.00000000000E+00  0.00000000000E+00 -0.36164948008E+03  0.58201815480E+03  0.45602059830E+03 0.  0.
      99925    2    3    3    0    0 -0.10608089625E+03  0.10856860853E+02 -0.17574054340E+03  0.33386362872E+03  0.26307633115E+03 0.  0.
         25    1    3    3    0    0  0.10608089625E+03 -0.10856860853E+02 -0.18590893668E+03  0.24815452608E+03  0.12509000000E+03 0.  0.
         25    1    4    4    0    0 -0.20553985520E+02  0.69172638195E-01 -0.48600887795E+02  0.13576459590E+03  0.12509000000E+03 0.  0.
         25    1    4    4    0    0 -0.85526910735E+02  0.10787688215E+02 -0.12713965561E+03  0.19809903282E+03  0.12509000000E+03 0.  0.
<mgrwt>
<rscale>  2 0.45602060E+03</rscale>
<asrwt>0</asrwt>
<pdfrwt beam="1">  1       21 0.16203579E-01 0.45602060E+03</pdfrwt>
<pdfrwt beam="2">  1       21 0.69387326E-01 0.45602060E+03</pdfrwt>
<totfact> 0.59318932E+04</totfact>
</mgrwt>
</event>
<event>
 7    0  0.4748297E-002  0.4562924E+03  0.7546771E-02  0.1025862E+00
         21   -1    0    0  502  501  0.00000000000E+00  0.00000000000E+00  0.34346608560E+02  0.34346608560E+02  0.00000000000E+00 0. -1.
         21   -1    0    0  501  502 -0.00000000000E+00 -0.00000000000E+00 -0.15154533722E+04  0.15154533722E+04  0.00000000000E+00 0. -1.
      99926    2    1    2    0    0  0.35527136788E-14  0.00000000000E+00 -0.14811067636E+04  0.15497999808E+04  0.45629237893E+03 0.  0.
      99925    2    3    3    0    0 -0.25437385680E+02  0.10923163557E+03 -0.85530677929E+03  0.90184030662E+03  0.26303543706E+03 0.  0.
         25    1    3    3    0    0  0.25437385680E+02 -0.10923163557E+03 -0.62579998435E+03  0.64795967414E+03  0.12509000000E+03 0.  0.
         25    1    4    4    0    0  0.79351986486E+01  0.34639093918E+02 -0.49464979582E+03  0.51145748876E+03  0.12509000000E+03 0.  0.
         25    1    4    4    0    0 -0.33372584329E+02  0.74592541650E+02 -0.36065698347E+03  0.39038281786E+03  0.12509000000E+03 0.  0.
<mgrwt>
<rscale>  2 0.45629238E+03</rscale>
<asrwt>0</asrwt>
<pdfrwt beam="1">  1       21 0.50509717E-02 0.45629238E+03</pdfrwt>
<pdfrwt beam="2">  1       21 0.22286080E+00 0.45629238E+03</pdfrwt>
<totfact> 0.22359331E+04</totfact>
</mgrwt>
</event>
<event>
 7    0  0.4748297E-002  0.4520934E+03  0.7546771E-02  0.1027100E+00
         21   -1    0    0  502  501  0.00000000000E+00  0.00000000000E+00  0.51288273092E+03  0.51288273092E+03  0.00000000000E+00 0.  1.
         21   -1    0    0  501  502 -0.00000000000E+00 -0.00000000000E+00 -0.99627273003E+02  0.99627273003E+02  0.00000000000E+00 0.  1.
      99926    2    1    2    0    0 -0.14210854715E-13  0.00000000000E+00  0.41325545791E+03  0.61251000392E+03  0.45209338792E+03 0.  0.
      99925    2    3    3    0    0 -0.58959980954E+02  0.86593270710E+02  0.21390540530E+03  0.35490056026E+03  0.26310494364E+03 0.  0.
         25    1    4    4    0    0  0.82509000579E+01  0.46573738502E+02  0.81139884921E+02  0.15642371781E+03  0.12509000000E+03 0.  0.
         25    1    4    4    0    0 -0.67210881012E+02  0.40019532208E+02  0.13276552038E+03  0.19847684244E+03  0.12509000000E+03 0.  0.
         25    1    3    3    0    0  0.58959980954E+02 -0.86593270710E+02  0.19935005262E+03  0.25760944366E+03  0.12509000000E+03 0.  0.
<mgrwt>
<rscale>  2 0.45209339E+03</rscale>
<asrwt>0</asrwt>
<pdfrwt beam="1">  1       21 0.75423930E-01 0.45209339E+03</pdfrwt>
<pdfrwt beam="2">  1       21 0.14651070E-01 0.45209339E+03</pdfrwt>
<totfact> 0.59263621E+04</totfact>
</mgrwt>
</event>
<event>
 7    0  0.4748297E-002  0.4500646E+03  0.7546771E-02  0.1027703E+00
         21   -1    0    0  502  501  0.00000000000E+00  0.00000000000E+00  0.13294578372E+04  0.13294578372E+04  0.00000000000E+00 0.  1.
         21   -1    0    0  501  502 -0.00000000000E+00 -0.00000000000E+00 -0.38090373281E+02  0.38090373281E+02  0.00000000000E+00 0.  1.
      99926    2    1    2    0    0 -0.71054273576E-14  0.00000000000E+00  0.12913674639E+04  0.13675482105E+04  0.45006464104E+03 0.  0.
      99925    2    3    3    0    0 -0.43796880352E+02 -0.21817301500E+02  0.11105101608E+04  0.11422683100E+04  0.26296371115E+03 0.  0.
         25    1    3    3    0    0  0.43796880352E+02  0.21817301500E+02  0.18085730309E+03  0.22527990047E+03  0.12509000000E+03 0.  0.
         25    1    4    4    0    0 -0.15134952710E+02 -0.47482746421E+02  0.63191361522E+03  0.64610061384E+03  0.12509000000E+03 0.  0.
         25    1    4    4    0    0 -0.28661927642E+02  0.25665444920E+02  0.47859654560E+03  0.49616769616E+03  0.12509000000E+03 0.  0.
<mgrwt>
<rscale>  2 0.45006464E+03</rscale>
<asrwt>0</asrwt>
<pdfrwt beam="1">  1       21 0.19550847E+00 0.45006464E+03</pdfrwt>
<pdfrwt beam="2">  1       21 0.56015264E-02 0.45006464E+03</pdfrwt>
<totfact> 0.28279117E+04</totfact>
</mgrwt>
</event>
<event>
 7    0  0.4748297E-002  0.4549360E+03  0.7546771E-02  0.1026260E+00
         21   -1    0    0  502  501  0.00000000000E+00  0.00000000000E+00  0.13472953646E+03  0.13472953646E+03  0.00000000000E+00 0.  1.
         21   -1    0    0  501  502 -0.00000000000E+00 -0.00000000000E+00 -0.38404113408E+03  0.38404113408E+03  0.00000000000E+00 0.  1.
      99926    2    1    2    0    0  0.00000000000E+00 -0.71054273576E-14 -0.24931159762E+03  0.51877067054E+03  0.45493596902E+03 0.  0.
      99925    2    3    3    0    0  0.80640695601E+02 -0.54765263147E+02 -0.22215353335E+03  0.35787559793E+03  0.26309807180E+03 0.  0.
         25    1    3    3    0    0 -0.80640695601E+02  0.54765263147E+02 -0.27158064269E+02  0.16089507261E+03  0.12509000000E+03 0.  0.
         25    1    4    4    0    0  0.50754323977E+02 -0.65204955269E+02 -0.13847223296E+03  0.20408271606E+03  0.12509000000E+03 0.  0.
         25    1    4    4    0    0  0.29886371624E+02  0.10439692121E+02 -0.83681300387E+02  0.15379288187E+03  0.12509000000E+03 0.  0.
<mgrwt>
<rscale>  2 0.45493597E+03</rscale>
<asrwt>0</asrwt>
<pdfrwt beam="1">  1       21 0.19813167E-01 0.45493597E+03</pdfrwt>
<pdfrwt beam="2">  1       21 0.56476637E-01 0.45493597E+03</pdfrwt>
<totfact> 0.64003615E+04</totfact>
</mgrwt>
</event>
<event>
 7    0  0.4748297E-002  0.4553478E+03  0.7546771E-02  0.1026139E+00
         21   -1    0    0  502  501  0.00000000000E+00  0.00000000000E+00  0.87164318192E+02  0.87164318192E+02  0.00000000000E+00 0.  1.
         21   -1    0    0  501  502 -0.00000000000E+00 -0.00000000000E+00 -0.59468617821E+03  0.59468617821E+03  0.00000000000E+00 0.  1.
      99926    2    1    2    0    0  0.00000000000E+00  0.00000000000E+00 -0.50752186002E+03  0.68185049640E+03  0.45534784621E+03 0.  0.
      99925    2    3    3    0    0  0.35592049254E+02 -0.10712034359E+03 -0.33616484795E+03  0.44153342321E+03  0.26306538509E+03 0.  0.
         25    1    3    3    0    0 -0.35592049254E+02  0.10712034359E+03 -0.17135701207E+03  0.24031707319E+03  0.12509000000E+03 0.  0.
         25    1    4    4    0    0 -0.70424286961E+01 -0.44965857582E+02 -0.11184802786E+03  0.17386492914E+03  0.12509000000E+03 0.  0.
         25    1    4    4    0    0  0.42634477950E+02 -0.62154486012E+02 -0.22431682009E+03  0.26766849407E+03  0.12509000000E+03 0.  0.
<mgrwt>
<rscale>  2 0.45534785E+03</rscale>
<asrwt>0</asrwt>
<pdfrwt beam="1">  1       21 0.12818282E-01 0.45534785E+03</pdfrwt>
<pdfrwt beam="2">  1       21 0.87453847E-01 0.45534785E+03</pdfrwt>
<totfact> 0.53752451E+04</totfact>
</mgrwt>
</event>
<event>
 7    0  0.4748297E-002  0.4509097E+03  0.7546771E-02  0.1027451E+00
         21   -1    0    0  502  501  0.00000000000E+00  0.00000000000E+00  0.52140597574E+02  0.52140597574E+02  0.00000000000E+00 0. -1.
         21   -1    0    0  501  502 -0.00000000000E+00 -0.00000000000E+00 -0.97486184452E+03  0.97486184452E+03  0.00000000000E+00 0. -1.
      99926    2    1    2    0    0  0.35527136788E-14  0.00000000000E+00 -0.92272124694E+03  0.10270024421E+04  0.45090965448E+03 0.  0.
      99925    2    3    3    0    0  0.26771618884E+02  0.10532205776E+03 -0.55696332914E+03  0.62546064107E+03  0.26302739040E+03 0.  0.
         25    1    4    4    0    0  0.52073371320E+02  0.48339591760E+02 -0.25674055745E+03  0.29429844388E+03  0.12509000000E+03 0.  0.
         25    1    3    3    0    0 -0.26771618884E+02 -0.10532205776E+03 -0.36575791780E+03  0.40154180102E+03  0.12509000000E+03 0.  0.
         25    1    4    4    0    0 -0.25301752436E+02  0.56982465997E+02 -0.30022277169E+03  0.33116219719E+03  0.12509000000E+03 0.  0.
<mgrwt>
<rscale>  2 0.45090965E+03</rscale>
<asrwt>0</asrwt>
<pdfrwt beam="1">  1       21 0.76677354E-02 0.45090965E+03</pdfrwt>
<pdfrwt beam="2">  1       21 0.14336203E+00 0.45090965E+03</pdfrwt>
<totfact> 0.39375182E+04</totfact>
</mgrwt>
</event>
<event>
 7    0  0.4748297E-002  0.4431529E+03  0.7546771E-02  0.1029784E+00
         21   -1    0    0  502  501  0.00000000000E+00  0.00000000000E+00  0.58032561774E+02  0.58032561774E+02  0.00000000000E+00 0. -1.
         21   -1    0    0  501  502 -0.00000000000E+00 -0.00000000000E+00 -0.84601005322E+03  0.84601005322E+03  0.00000000000E+00 0. -1.
      99926    2    1    2    0    0  0.71054273576E-14  0.00000000000E+00 -0.78797749144E+03  0.90404261499E+03  0.44315293376E+03 0.  0.
      99925    2    3    3    0    0 -0.56186868741E+02  0.81260150073E+02 -0.55045241398E+03  0.61799044015E+03  0.26297176246E+03 0.  0.
         25    1    4    4    0    0 -0.19557210224E+01  0.52944578801E+02 -0.33453313548E+03  0.36106354026E+03  0.12509000000E+03 0.  0.
         25    1    3    3    0    0  0.56186868741E+02 -0.81260150073E+02 -0.23752507747E+03  0.28605217485E+03  0.12509000000E+03 0.  0.
         25    1    4    4    0    0 -0.54231147719E+02  0.28315571272E+02 -0.21591927850E+03  0.25692689989E+03  0.12509000000E+03 0.  0.
<mgrwt>
<rscale>  2 0.44315293E+03</rscale>
<asrwt>0</asrwt>
<pdfrwt beam="1">  1       21 0.85342011E-02 0.44315293E+03</pdfrwt>
<pdfrwt beam="2">  1       21 0.12441323E+00 0.44315293E+03</pdfrwt>
<totfact> 0.47293800E+04</totfact>
</mgrwt>
</event>
<event>
 7    0  0.4748297E-002  0.4527471E+03  0.7546771E-02  0.1026906E+00
         21   -1    0    0  502  501  0.00000000000E+00  0.00000000000E+00  0.39917875144E+02  0.39917875144E+02  0.00000000000E+00 0. -1.
         21   -1    0    0  501  502 -0.00000000000E+00 -0.00000000000E+00 -0.12837602534E+04  0.12837602534E+04  0.00000000000E+00 0. -1.
      99926    2    1    2    0    0  0.57731597281E-14 -0.14210854715E-13 -0.12438423783E+04  0.13236781286E+04  0.45274708838E+03 0.  0.
      99925    2    3    3    0    0 -0.35800071830E+01 -0.10709942107E+03 -0.86971085509E+03  0.91489333532E+03  0.26296338358E+03 0.  0.
         25    1    4    4    0    0  0.33885394126E+02 -0.70818057492E+02 -0.42029178552E+03  0.44548413022E+03  0.12509000000E+03 0.  0.
         25    1    3    3    0    0  0.35800071830E+01  0.10709942107E+03 -0.37413152318E+03  0.40878479324E+03  0.12509000000E+03 0.  0.
         25    1    4    4    0    0 -0.37465401309E+02 -0.36281363582E+02 -0.44941906957E+03  0.46940920510E+03  0.12509000000E+03 0.  0.
<mgrwt>
<rscale>  2 0.45274709E+03</rscale>
<asrwt>0</asrwt>
<pdfrwt beam="1">  1       21 0.58702757E-02 0.45274709E+03</pdfrwt>
<pdfrwt beam="2">  1       21 0.18878827E+00 0.45274709E+03</pdfrwt>
<totfact> 0.28938376E+04</totfact>
</mgrwt>
</event>
<event>
 7    0  0.4748297E-002  0.4548401E+03  0.7546771E-02  0.1026288E+00
         21   -1    0    0  502  501  0.00000000000E+00  0.00000000000E+00  0.13059150101E+04  0.13059150101E+04  0.00000000000E+00 0. -1.
         21   -1    0    0  501  502 -0.00000000000E+00 -0.00000000000E+00 -0.39604320221E+02  0.39604320221E+02  0.00000000000E+00 0. -1.
      99926    2    1    2    0    0  0.00000000000E+00  0.00000000000E+00  0.12663106899E+04  0.13455193303E+04  0.45484008724E+03 0.  0.
      99925    2    3    3    0    0 -0.10461109920E+03 -0.16815720922E+02  0.91331094528E+03  0.95631170149E+03  0.26299988044E+03 0.  0.
         25    1    4    4    0    0 -0.72694859430E+02 -0.14520180595E+02  0.60148064743E+03  0.61880679987E+03  0.12509000000E+03 0.  0.
         25    1    4    4    0    0 -0.31916239767E+02 -0.22955403267E+01  0.31183029785E+03  0.33750490163E+03  0.12509000000E+03 0.  0.
         25    1    3    3    0    0  0.10461109920E+03  0.16815720922E+02  0.35299974459E+03  0.38920762881E+03  0.12509000000E+03 0.  0.
<mgrwt>
<rscale>  2 0.45484009E+03</rscale>
<asrwt>0</asrwt>
<pdfrwt beam="1">  1       21 0.19204630E+00 0.45484009E+03</pdfrwt>
<pdfrwt beam="2">  1       21 0.58241656E-02 0.45484009E+03</pdfrwt>
<totfact> 0.27855245E+04</totfact>
</mgrwt>
</event>
<event>
 7    0  0.4748297E-002  0.4461869E+03  0.7546771E-02  0.1028865E+00
         21   -1    0    0  502  501  0.00000000000E+00  0.00000000000E+00  0.54548852100E+02  0.54548852100E+02  0.00000000000E+00 0. -1.
         21   -1    0    0  501  502 -0.00000000000E+00 -0.00000000000E+00 -0.91240573276E+03  0.91240573276E+03  0.00000000000E+00 0. -1.
      99926    2    1    2    0    0  0.00000000000E+00  0.71054273576E-14 -0.85785688066E+03  0.96695458487E+03  0.44618689076E+03 0.  0.
      99925    2    3    3    0    0 -0.60427411192E+02 -0.58011677449E+02 -0.68036556072E+03  0.73421545301E+03  0.26297948299E+03 0.  0.
         25    1    4    4    0    0 -0.86632659648E+01 -0.55160477168E+02 -0.40123954597E+03  0.42397925866E+03  0.12509000000E+03 0.  0.
         25    1    3    3    0    0  0.60427411192E+02  0.58011677449E+02 -0.17749131994E+03  0.23273913186E+03  0.12509000000E+03 0.  0.
         25    1    4    4    0    0 -0.51764145227E+02 -0.28512002802E+01 -0.27912601475E+03  0.31023619435E+03  0.12509000000E+03 0.  0.
<mgrwt>
<rscale>  2 0.44618689E+03</rscale>
<asrwt>0</asrwt>
<pdfrwt beam="1">  1       21 0.80218904E-02 0.44618689E+03</pdfrwt>
<pdfrwt beam="2">  1       21 0.13417731E+00 0.44618689E+03</pdfrwt>
<totfact> 0.43374149E+04</totfact>
</mgrwt>
</event>
<event>
 7    0  0.4748297E-002  0.4607996E+03  0.7546771E-02  0.1024550E+00
         21   -1    0    0  502  501  0.00000000000E+00  0.00000000000E+00  0.83413902987E+02  0.83413902987E+02  0.00000000000E+00 0. -1.
         21   -1    0    0  501  502 -0.00000000000E+00 -0.00000000000E+00 -0.63639339866E+03  0.63639339866E+03  0.00000000000E+00 0. -1.
      99926    2    1    2    0    0  0.00000000000E+00  0.00000000000E+00 -0.55297949567E+03  0.71980730165E+03  0.46079955390E+03 0.  0.
      99925    2    3    3    0    0  0.10031835944E+03 -0.39192192779E+02 -0.26941051259E+03  0.39169348377E+03  0.26313867013E+03 0.  0.
         25    1    4    4    0    0  0.46996535274E+02  0.11570269761E+02 -0.92845607040E+02  0.16312682280E+03  0.12509000000E+03 0.  0.
         25    1    4    4    0    0  0.53321824165E+02 -0.50762462539E+02 -0.17656490555E+03  0.22856666097E+03  0.12509000000E+03 0.  0.
         25    1    3    3    0    0 -0.10031835944E+03  0.39192192779E+02 -0.28356898308E+03  0.32811381788E+03  0.12509000000E+03 0.  0.
<mgrwt>
<rscale>  2 0.46079955E+03</rscale>
<asrwt>0</asrwt>
<pdfrwt beam="1">  1       21 0.12266750E-01 0.46079955E+03</pdfrwt>
<pdfrwt beam="2">  1       21 0.93587265E-01 0.46079955E+03</pdfrwt>
<totfact> 0.49541786E+04</totfact>
</mgrwt>
</event>
<event>
 7    0  0.4748297E-002  0.4515547E+03  0.7546771E-02  0.1027259E+00
         21   -1    0    0  502  501  0.00000000000E+00  0.00000000000E+00  0.22719432347E+03  0.22719432347E+03  0.00000000000E+00 0. -1.
         21   -1    0    0  501  502 -0.00000000000E+00 -0.00000000000E+00 -0.22436921063E+03  0.22436921063E+03  0.00000000000E+00 0. -1.
      99926    2    1    2    0    0 -0.71054273576E-14 -0.14210854715E-13  0.28251128345E+01  0.45156353410E+03  0.45155469665E+03 0.  0.
      99925    2    3    3    0    0  0.59822954607E+02  0.86085292215E+02  0.35207456024E+02  0.28517366757E+03  0.26285926326E+03 0.  0.
         25    1    4    4    0    0  0.70173732109E+02  0.48344406415E+02  0.27852665627E+02  0.15389871147E+03  0.12509000000E+03 0.  0.
         25    1    4    4    0    0 -0.10350777502E+02  0.37740885800E+02  0.73547903972E+01  0.13127495609E+03  0.12509000000E+03 0.  0.
         25    1    3    3    0    0 -0.59822954607E+02 -0.86085292215E+02 -0.32382343189E+02  0.16638986653E+03  0.12509000000E+03 0.  0.
<mgrwt>
<rscale>  2 0.45155470E+03</rscale>
<asrwt>0</asrwt>
<pdfrwt beam="1">  1       21 0.33410930E-01 0.45155470E+03</pdfrwt>
<pdfrwt beam="2">  1       21 0.32995472E-01 0.45155470E+03</pdfrwt>
<totfact> 0.70722533E+04</totfact>
</mgrwt>
</event>
<event>
 7    0  0.4748297E-002  0.4335710E+03  0.7546771E-02  0.1032738E+00
         21   -1    0    0  502  501  0.00000000000E+00  0.00000000000E+00  0.35047717117E+03  0.35047717117E+03  0.00000000000E+00 0.  1.
         21   -1    0    0  501  502 -0.00000000000E+00 -0.00000000000E+00 -0.13409135726E+03  0.13409135726E+03  0.00000000000E+00 0.  1.
      99926    2    1    2    0    0  0.00000000000E+00  0.00000000000E+00  0.21638581392E+03  0.48456852843E+03  0.43357103026E+03 0.  0.
      99925    2    3    3    0    0 -0.77182019413E+02  0.32466145274E+02  0.18055616525E+03  0.32983525297E+03  0.26302024748E+03 0.  0.
         25    1    4    4    0    0 -0.52114476376E+02  0.22196425933E+02  0.13869750360E+03  0.19517455156E+03  0.12509000000E+03 0.  0.
         25    1    3    3    0    0  0.77182019413E+02 -0.32466145274E+02  0.35829648662E+02  0.15473327545E+03  0.12509000000E+03 0.  0.
         25    1    4    4    0    0 -0.25067543037E+02  0.10269719341E+02  0.41858661657E+02  0.13466070141E+03  0.12509000000E+03 0.  0.
<mgrwt>
<rscale>  2 0.43357103E+03</rscale>
<asrwt>0</asrwt>
<pdfrwt beam="1">  1       21 0.51540761E-01 0.43357103E+03</pdfrwt>
<pdfrwt beam="2">  1       21 0.19719317E-01 0.43357103E+03</pdfrwt>
<totfact> 0.78971698E+04</totfact>
</mgrwt>
</event>
<event>
 7    0  0.4748297E-002  0.4447694E+03  0.7546771E-02  0.1029293E+00
         21   -1    0    0  502  501  0.00000000000E+00  0.00000000000E+00  0.38496713407E+03  0.38496713407E+03  0.00000000000E+00 0.  1.
         21   -1    0    0  501  502 -0.00000000000E+00 -0.00000000000E+00 -0.12846539468E+03  0.12846539468E+03  0.00000000000E+00 0.  1.
      99926    2    1    2    0    0 -0.35527136788E-14  0.00000000000E+00  0.25650173939E+03  0.51343252875E+03  0.44476940011E+03 0.  0.
      99925    2    3    3    0    0  0.19357538444E+02  0.10109003992E+03  0.15289149074E+03  0.32113977748E+03  0.26298486321E+03 0.  0.
         25    1    4    4    0    0 -0.21324699624E+02  0.67397706854E+02  0.55457505229E+02  0.15401375487E+03  0.12509000000E+03 0.  0.
         25    1    4    4    0    0  0.40682238068E+02  0.33692333066E+02  0.97433985506E+02  0.16712602261E+03  0.12509000000E+03 0.  0.
         25    1    3    3    0    0 -0.19357538444E+02 -0.10109003992E+03  0.10361024866E+03  0.19229275127E+03  0.12509000000E+03 0.  0.
<mgrwt>
<rscale>  2 0.44476940E+03</rscale>
<asrwt>0</asrwt>
<pdfrwt beam="1">  1       21 0.56612813E-01 0.44476940E+03</pdfrwt>
<pdfrwt beam="2">  1       21 0.18891970E-01 0.44476940E+03</pdfrwt>
<totfact> 0.69835509E+04</totfact>
</mgrwt>
</event>
<event>
 7    0  0.4748297E-002  0.4561100E+03  0.7546771E-02  0.1025916E+00
         21   -1    0    0  502  501  0.00000000000E+00  0.00000000000E+00  0.17879439843E+02  0.17879439843E+02  0.00000000000E+00 0. -1.
         21   -1    0    0  501  502 -0.00000000000E+00 -0.00000000000E+00 -0.29088760548E+04  0.29088760548E+04  0.00000000000E+00 0. -1.
      99926    2    1    2    0    0  0.00000000000E+00  0.00000000000E+00 -0.28909966150E+04  0.29267554947E+04  0.45610996232E+03 0.  0.
      99925    2    3    3    0    0 -0.97613788296E+02  0.37777900409E+02 -0.15246317560E+04  0.15506900684E+04  0.26302485698E+03 0.  0.
         25    1    4    4    0    0 -0.51301582542E+02 -0.89747698255E+00 -0.55879065688E+03  0.57491491906E+03  0.12509000000E+03 0.  0.
         25    1    4    4    0    0 -0.46312205754E+02  0.38675377392E+02 -0.96584109917E+03  0.97577514939E+03  0.12509000000E+03 0.  0.
         25    1    3    3    0    0  0.97613788296E+02 -0.37777900409E+02 -0.13663648589E+04  0.13760654262E+04  0.12509000000E+03 0.  0.
<mgrwt>
<rscale>  2 0.45610996E+03</rscale>
<asrwt>0</asrwt>
<pdfrwt beam="1">  1       21 0.26293293E-02 0.45610996E+03</pdfrwt>
<pdfrwt beam="2">  1       21 0.42777591E+00 0.45610996E+03</pdfrwt>
<totfact> 0.36445854E+03</totfact>
</mgrwt>
</event>
<event>
 7    0  0.4748297E-002  0.4596911E+03  0.7546771E-02  0.1024871E+00
         21   -1    0    0  502  501  0.00000000000E+00  0.00000000000E+00  0.65506812377E+03  0.65506812377E+03  0.00000000000E+00 0. -1.
         21   -1    0    0  501  502 -0.00000000000E+00 -0.00000000000E+00 -0.80646539595E+02  0.80646539595E+02  0.00000000000E+00 0. -1.
      99926    2    1    2    0    0  0.71054273576E-14  0.00000000000E+00  0.57442158418E+03  0.73571466337E+03  0.45969110229E+03 0.  0.
      99925    2    3    3    0    0 -0.49562498806E+02  0.10565769921E+03  0.37168731464E+03  0.47044370221E+03  0.26371542692E+03 0.  0.
         25    1    4    4    0    0 -0.63837956604E+02  0.59840747322E+02  0.22362499349E+03  0.27076160281E+03  0.12509000000E+03 0.  0.
         25    1    4    4    0    0  0.14275457798E+02  0.45816951885E+02  0.14806232115E+03  0.19968209940E+03  0.12509000000E+03 0.  0.
         25    1    3    3    0    0  0.49562498806E+02 -0.10565769921E+03  0.20273426954E+03  0.26527096116E+03  0.12509000000E+03 0.  0.
<mgrwt>
<rscale>  2 0.45969110E+03</rscale>
<asrwt>0</asrwt>
<pdfrwt beam="1">  1       21 0.96333545E-01 0.45969110E+03</pdfrwt>
<pdfrwt beam="2">  1       21 0.11859786E-01 0.45969110E+03</pdfrwt>
<totfact> 0.49167701E+04</totfact>
</mgrwt>
</event>
<event>
 7    0  0.4748297E-002  0.4773592E+03  0.7546771E-02  0.1019863E+00
         21   -1    0    0  502  501  0.00000000000E+00  0.00000000000E+00  0.77216908827E+02  0.77216908827E+02  0.00000000000E+00 0.  1.
         21   -1    0    0  501  502 -0.00000000000E+00 -0.00000000000E+00 -0.73776528434E+03  0.73776528434E+03  0.00000000000E+00 0.  1.
      99926    2    1    2    0    0  0.00000000000E+00 -0.14210854715E-13 -0.66054837551E+03  0.81498219316E+03  0.47735921358E+03 0.  0.
      99925    2    3    3    0    0 -0.16629022268E+02  0.66853656565E+02 -0.60234794968E+03  0.66077216287E+03  0.26277530888E+03 0.  0.
         25    1    4    4    0    0 -0.23814991362E+02  0.12654436857E+02 -0.36733837787E+03  0.38898879231E+03  0.12509000000E+03 0.  0.
         25    1    3    3    0    0  0.16629022268E+02 -0.66853656565E+02 -0.58200425828E+02  0.15421003030E+03  0.12509000000E+03 0.  0.
         25    1    4    4    0    0  0.71859690937E+01  0.54199219707E+02 -0.23500957181E+03  0.27178337056E+03  0.12509000000E+03 0.  0.
<mgrwt>
<rscale>  2 0.47735921E+03</rscale>
<asrwt>0</asrwt>
<pdfrwt beam="1">  1       21 0.11355428E-01 0.47735921E+03</pdfrwt>
<pdfrwt beam="2">  1       21 0.10849489E+00 0.47735921E+03</pdfrwt>
<totfact> 0.39625219E+04</totfact>
</mgrwt>
</event>
<event>
 7    0  0.4748297E-002  0.4543967E+03  0.7546771E-02  0.1026419E+00
         21   -1    0    0  502  501  0.00000000000E+00  0.00000000000E+00  0.26718523209E+03  0.26718523209E+03  0.00000000000E+00 0.  1.
         21   -1    0    0  501  502 -0.00000000000E+00 -0.00000000000E+00 -0.19319589008E+03  0.19319589008E+03  0.00000000000E+00 0.  1.
      99926    2    1    2    0    0  0.00000000000E+00  0.00000000000E+00  0.73989342017E+02  0.46038112217E+03  0.45439669334E+03 0.  0.
      99925    2    3    3    0    0  0.76933642602E+02  0.70157369543E+02  0.33615327175E+01  0.28296455752E+03  0.26309085702E+03 0.  0.
         25    1    4    4    0    0  0.11156733655E+02  0.57082648583E+02 -0.19093947246E+02  0.13926589100E+03  0.12509000000E+03 0.  0.
         25    1    4    4    0    0  0.65776908947E+02  0.13074720960E+02  0.22455479963E+02  0.14369866652E+03  0.12509000000E+03 0.  0.
         25    1    3    3    0    0 -0.76933642602E+02 -0.70157369543E+02  0.70627809299E+02  0.17741656465E+03  0.12509000000E+03 0.  0.
<mgrwt>
<rscale>  2 0.45439669E+03</rscale>
<asrwt>0</asrwt>
<pdfrwt beam="1">  1       21 0.39291946E-01 0.45439669E+03</pdfrwt>
<pdfrwt beam="2">  1       21 0.28411160E-01 0.45439669E+03</pdfrwt>
<totfact> 0.68481625E+04</totfact>
</mgrwt>
</event>
<event>
 7    0  0.4748297E-002  0.4590941E+03  0.7546771E-02  0.1025044E+00
         21   -1    0    0  502  501  0.00000000000E+00  0.00000000000E+00  0.46950448797E+03  0.46950448797E+03  0.00000000000E+00 0. -1.
         21   -1    0    0  501  502 -0.00000000000E+00 -0.00000000000E+00 -0.11222865698E+03  0.11222865698E+03  0.00000000000E+00 0. -1.
      99926    2    1    2    0    0 -0.71054273576E-14  0.14210854715E-13  0.35727583100E+03  0.58173314495E+03  0.45909414341E+03 0.  0.
      99925    2    3    3    0    0 -0.42108761883E+02  0.10503508619E+03  0.26111283250E+03  0.38756737160E+03  0.26310271584E+03 0.  0.
         25    1    4    4    0    0 -0.54124523032E+01  0.54637795303E+02  0.78330458055E+02  0.15747302015E+03  0.12509000000E+03 0.  0.
         25    1    3    3    0    0  0.42108761883E+02 -0.10503508619E+03  0.96162998499E+02  0.19416577334E+03  0.12509000000E+03 0.  0.
         25    1    4    4    0    0 -0.36696309579E+02  0.50397290885E+02  0.18278237444E+03  0.23009435146E+03  0.12509000000E+03 0.  0.
<mgrwt>
<rscale>  2 0.45909414E+03</rscale>
<asrwt>0</asrwt>
<pdfrwt beam="1">  1       21 0.69044777E-01 0.45909414E+03</pdfrwt>
<pdfrwt beam="2">  1       21 0.16504214E-01 0.45909414E+03</pdfrwt>
<totfact> 0.57919456E+04</totfact>
</mgrwt>
</event>
<event>
 7    0  0.4748297E-002  0.4663940E+03  0.7546771E-02  0.1022943E+00
         21   -1    0    0  502  501  0.00000000000E+00  0.00000000000E+00  0.63313178434E+02  0.63313178434E+02  0.00000000000E+00 0.  1.
         21   -1    0    0  501  502 -0.00000000000E+00 -0.00000000000E+00 -0.85891804590E+03  0.85891804590E+03  0.00000000000E+00 0.  1.
      99926    2    1    2    0    0  0.00000000000E+00  0.00000000000E+00 -0.79560486747E+03  0.92223122434E+03  0.46639396008E+03 0.  0.
      99925    2    3    3    0    0  0.11328163037E+03 -0.44684106084E+02 -0.45450005894E+03  0.53904798407E+03  0.26300765853E+03 0.  0.
         25    1    3    3    0    0 -0.11328163037E+03  0.44684106084E+02 -0.34110480853E+03  0.38318324026E+03  0.12509000000E+03 0.  0.
         25    1    4    4    0    0  0.14569052220E+02 -0.77098814543E+01 -0.19167496363E+03  0.22947439800E+03  0.12509000000E+03 0.  0.
         25    1    4    4    0    0  0.98712578149E+02 -0.36974224630E+02 -0.26282509530E+03  0.30957358607E+03  0.12509000000E+03 0.  0.
<mgrwt>
<rscale>  2 0.46639396E+03</rscale>
<asrwt>0</asrwt>
<pdfrwt beam="1">  1       21 0.93107626E-02 0.46639396E+03</pdfrwt>
<pdfrwt beam="2">  1       21 0.12631146E+00 0.46639396E+03</pdfrwt>
<totfact> 0.38716499E+04</totfact>
</mgrwt>
</event>
<event>
 7    0  0.4748297E-002  0.4650483E+03  0.7546771E-02  0.1023327E+00
         21   -1    0    0  502  501  0.00000000000E+00  0.00000000000E+00  0.32133293503E+03  0.32133293503E+03  0.00000000000E+00 0.  1.
         21   -1    0    0  501  502 -0.00000000000E+00 -0.00000000000E+00 -0.16826001730E+03  0.16826001730E+03  0.00000000000E+00 0.  1.
      99926    2    1    2    0    0  0.14210854715E-13  0.00000000000E+00  0.15307291773E+03  0.48959295233E+03  0.46504832096E+03 0.  0.
      99925    2    3    3    0    0  0.85816898472E+02  0.22024385800E+02  0.18432516487E+03  0.33315183023E+03  0.26299194274E+03 0.  0.
         25    1    3    3    0    0 -0.85816898472E+02 -0.22024385800E+02 -0.31252247143E+02  0.15644112210E+03  0.12509000000E+03 0.  0.
         25    1    4    4    0    0  0.15733664293E+02  0.13239835928E+02  0.49349605675E+02  0.13603577885E+03  0.12509000000E+03 0.  0.
         25    1    4    4    0    0  0.70083234179E+02  0.87845498724E+01  0.13497555920E+03  0.19711605138E+03  0.12509000000E+03 0.  0.
<mgrwt>
<rscale>  2 0.46504832E+03</rscale>
<asrwt>0</asrwt>
<pdfrwt beam="1">  1       21 0.47254843E-01 0.46504832E+03</pdfrwt>
<pdfrwt beam="2">  1       21 0.24744120E-01 0.46504832E+03</pdfrwt>
<totfact> 0.60995717E+04</totfact>
</mgrwt>
</event>
<event>
 7    0  0.4748297E-002  0.4533393E+03  0.7546771E-02  0.1026731E+00
         21   -1    0    0  502  501  0.00000000000E+00  0.00000000000E+00  0.21556399088E+03  0.21556399088E+03  0.00000000000E+00 0.  1.
         21   -1    0    0  501  502 -0.00000000000E+00 -0.00000000000E+00 -0.23834745015E+03  0.23834745015E+03  0.00000000000E+00 0.  1.
      99926    2    1    2    0    0  0.14210854715E-13  0.71054273576E-14 -0.22783459262E+02  0.45391144103E+03  0.45333928826E+03 0.  0.
      99925    2    3    3    0    0 -0.84525921382E+02 -0.55079127871E+02 -0.62446853323E+02  0.28838490346E+03  0.26284577482E+03 0.  0.
         25    1    4    4    0    0 -0.54369431669E+02 -0.71128180353E+00 -0.59117451495E+02  0.14865706237E+03  0.12509000000E+03 0.  0.
         25    1    4    4    0    0 -0.30156489713E+02 -0.54367846068E+02 -0.33294018277E+01  0.13972784109E+03  0.12509000000E+03 0.  0.
         25    1    3    3    0    0  0.84525921382E+02  0.55079127871E+02  0.39663394061E+02  0.16552653757E+03  0.12509000000E+03 0.  0.
<mgrwt>
<rscale>  2 0.45333929E+03</rscale>
<asrwt>0</asrwt>
<pdfrwt beam="1">  1       21 0.31700587E-01 0.45333929E+03</pdfrwt>
<pdfrwt beam="2">  1       21 0.35051096E-01 0.45333929E+03</pdfrwt>
<totfact> 0.69542562E+04</totfact>
</mgrwt>
</event>
<event>
 7    0  0.4748297E-002  0.4466190E+03  0.7546771E-02  0.1028735E+00
         21   -1    0    0  502  501  0.00000000000E+00  0.00000000000E+00  0.92707022406E+03  0.92707022406E+03  0.00000000000E+00 0. -1.
         21   -1    0    0  501  502 -0.00000000000E+00 -0.00000000000E+00 -0.53790033257E+02  0.53790033257E+02  0.00000000000E+00 0. -1.
      99926    2    1    2    0    0  0.00000000000E+00  0.35527136788E-14  0.87328019080E+03  0.98086025732E+03  0.44661902415E+03 0.  0.
      99925    2    3    3    0    0  0.10035042245E+03 -0.31207127771E+02  0.55666290431E+03  0.62457651321E+03  0.26301737529E+03 0.  0.
         25    1    4    4    0    0  0.77742462315E+02 -0.30370627302E+02  0.36305078902E+03  0.39296265593E+03  0.12509000000E+03 0.  0.
         25    1    4    4    0    0  0.22607960140E+02 -0.83650046822E+00  0.19361211529E+03  0.23161385727E+03  0.12509000000E+03 0.  0.
         25    1    3    3    0    0 -0.10035042245E+03  0.31207127771E+02  0.31661728649E+03  0.35628374411E+03  0.12509000000E+03 0.  0.
<mgrwt>
<rscale>  2 0.44661902E+03</rscale>
<asrwt>0</asrwt>
<pdfrwt beam="1">  1       21 0.13633385E+00 0.44661902E+03</pdfrwt>
<pdfrwt beam="2">  1       21 0.79102996E-02 0.44661902E+03</pdfrwt>
<totfact> 0.42641377E+04</totfact>
</mgrwt>
</event>
<event>
 7    0  0.4748297E-002  0.4591545E+03  0.7546771E-02  0.1025027E+00
         21   -1    0    0  502  501  0.00000000000E+00  0.00000000000E+00  0.15164813915E+02  0.15164813915E+02  0.00000000000E+00 0.  1.
         21   -1    0    0  501  502 -0.00000000000E+00 -0.00000000000E+00 -0.34755271734E+04  0.34755271734E+04  0.00000000000E+00 0.  1.
      99926    2    1    2    0    0  0.00000000000E+00  0.00000000000E+00 -0.34603623595E+04  0.34906919873E+04  0.45915453975E+03 0.  0.
      99925    2    3    3    0    0  0.45077587347E+02  0.94902579324E+02 -0.25613646932E+04  0.25769727742E+04  0.26298497797E+03 0.  0.
         25    1    4    4    0    0 -0.18332566482E+02  0.47723305785E+02 -0.12559397400E+04  0.12631887173E+04  0.12509000000E+03 0.  0.
         25    1    3    3    0    0 -0.45077587347E+02 -0.94902579324E+02 -0.89899766628E+03  0.91371921318E+03  0.12509000000E+03 0.  0.
         25    1    4    4    0    0  0.63410153829E+02  0.47179273538E+02 -0.13054249532E+04  0.13137840569E+04  0.12509000000E+03 0.  0.
<mgrwt>
<rscale>  2 0.45915454E+03</rscale>
<asrwt>0</asrwt>
<pdfrwt beam="1">  1       21 0.22301185E-02 0.45915454E+03</pdfrwt>
<pdfrwt beam="2">  1       21 0.51110721E+00 0.45915454E+03</pdfrwt>
<totfact> 0.12707009E+03</totfact>
</mgrwt>
</event>
<event>
 7    0  0.4748297E-002  0.4528574E+03  0.7546771E-02  0.1026873E+00
         21   -1    0    0  502  501  0.00000000000E+00  0.00000000000E+00  0.97627406005E+02  0.97627406005E+02  0.00000000000E+00 0. -1.
         21   -1    0    0  501  502 -0.00000000000E+00 -0.00000000000E+00 -0.52515956908E+03  0.52515956908E+03  0.00000000000E+00 0. -1.
      99926    2    1    2    0    0  0.00000000000E+00  0.00000000000E+00 -0.42753216307E+03  0.62278697508E+03  0.45285744542E+03 0.  0.
      99925    2    3    3    0    0 -0.67122370371E+02 -0.61744694810E+02 -0.18201963103E+03  0.33254271342E+03  0.26293666580E+03 0.  0.
         25    1    4    4    0    0 -0.18371788471E+02 -0.53437198011E+02 -0.56074768292E+02  0.14827320891E+03  0.12509000000E+03 0.  0.
         25    1    4    4    0    0 -0.48750581900E+02 -0.83074967988E+01 -0.12594486274E+03  0.18426950450E+03  0.12509000000E+03 0.  0.
         25    1    3    3    0    0  0.67122370371E+02  0.61744694810E+02 -0.24551253204E+03  0.29024426167E+03  0.12509000000E+03 0.  0.
<mgrwt>
<rscale>  2 0.45285745E+03</rscale>
<asrwt>0</asrwt>
<pdfrwt beam="1">  1       21 0.14356972E-01 0.45285745E+03</pdfrwt>
<pdfrwt beam="2">  1       21 0.77229348E-01 0.45285745E+03</pdfrwt>
<totfact> 0.58276774E+04</totfact>
</mgrwt>
</event>
<event>
 7    0  0.4748297E-002  0.4527091E+03  0.7546771E-02  0.1026917E+00
         21   -1    0    0  502  501  0.00000000000E+00  0.00000000000E+00  0.44866636321E+03  0.44866636321E+03  0.00000000000E+00 0. -1.
         21   -1    0    0  501  502 -0.00000000000E+00 -0.00000000000E+00 -0.11419709029E+03  0.11419709029E+03  0.00000000000E+00 0. -1.
      99926    2    1    2    0    0  0.00000000000E+00  0.00000000000E+00  0.33446927292E+03  0.56286345351E+03  0.45270914809E+03 0.  0.
      99925    2    3    3    0    0  0.26047739568E+02  0.10738512340E+03  0.22444362154E+03  0.36295547086E+03  0.26296707990E+03 0.  0.
         25    1    4    4    0    0  0.15449543912E+02  0.23282495090E+02  0.14017478434E+03  0.18994009911E+03  0.12509000000E+03 0.  0.
         25    1    4    4    0    0  0.10598195656E+02  0.84102628310E+02  0.84268837203E+02  0.17301537175E+03  0.12509000000E+03 0.  0.
         25    1    3    3    0    0 -0.26047739568E+02 -0.10738512340E+03  0.11002565138E+03  0.19990798265E+03  0.12509000000E+03 0.  0.
<mgrwt>
<rscale>  2 0.45270915E+03</rscale>
<asrwt>0</asrwt>
<pdfrwt beam="1">  1       21 0.65980347E-01 0.45270915E+03</pdfrwt>
<pdfrwt beam="2">  1       21 0.16793690E-01 0.45270915E+03</pdfrwt>
<totfact> 0.62142733E+04</totfact>
</mgrwt>
</event>
<event>
 7    0  0.4748297E-002  0.4534062E+03  0.7546771E-02  0.1026711E+00
         21   -1    0    0  502  501  0.00000000000E+00  0.00000000000E+00  0.65987184682E+03  0.65987184682E+03  0.00000000000E+00 0.  1.
         21   -1    0    0  501  502 -0.00000000000E+00 -0.00000000000E+00 -0.77885266355E+02  0.77885266355E+02  0.00000000000E+00 0.  1.
      99926    2    1    2    0    0 -0.35527136788E-14  0.14210854715E-13  0.58198658047E+03  0.73775711318E+03  0.45340619559E+03 0.  0.
      99925    2    3    3    0    0 -0.27531435961E+02 -0.10710358039E+03  0.33809881954E+03  0.44219340612E+03  0.26266906888E+03 0.  0.
         25    1    3    3    0    0  0.27531435961E+02  0.10710358039E+03  0.24388776093E+03  0.29556370706E+03  0.12509000000E+03 0.  0.
         25    1    4    4    0    0  0.74546300603E+01 -0.31133301199E+02  0.19934255146E+03  0.23750750488E+03  0.12509000000E+03 0.  0.
         25    1    4    4    0    0 -0.34986066021E+02 -0.75970279188E+02  0.13875626808E+03  0.20468590124E+03  0.12509000000E+03 0.  0.
<mgrwt>
<rscale>  2 0.45340620E+03</rscale>
<asrwt>0</asrwt>
<pdfrwt beam="1">  1       21 0.97039974E-01 0.45340620E+03</pdfrwt>
<pdfrwt beam="2">  1       21 0.11453716E-01 0.45340620E+03</pdfrwt>
<totfact> 0.51543307E+04</totfact>
</mgrwt>
</event>
<event>
 7    0  0.4748297E-002  0.4546651E+03  0.7546771E-02  0.1026340E+00
         21   -1    0    0  502  501  0.00000000000E+00  0.00000000000E+00  0.55930495343E+03  0.55930495343E+03  0.00000000000E+00 0. -1.
         21   -1    0    0  501  502 -0.00000000000E+00 -0.00000000000E+00 -0.92400539837E+02  0.92400539837E+02  0.00000000000E+00 0. -1.
      99926    2    1    2    0    0  0.00000000000E+00  0.00000000000E+00  0.46690441359E+03  0.65170549327E+03  0.45466506191E+03 0.  0.
      99925    2    3    3    0    0  0.37996093747E+02  0.51224089331E+02  0.16039499328E+03  0.31456584371E+03  0.26297814679E+03 0.  0.
         25    1    3    3    0    0 -0.37996093747E+02 -0.51224089331E+02  0.30650942031E+03  0.33713964956E+03  0.12509000000E+03 0.  0.
         25    1    4    4    0    0  0.17646969140E+02 -0.54643857880E+01  0.10759869420E+03  0.16603090714E+03  0.12509000000E+03 0.  0.
         25    1    4    4    0    0  0.20349124607E+02  0.56688475119E+02  0.52796299080E+02  0.14853493656E+03  0.12509000000E+03 0.  0.
<mgrwt>
<rscale>  2 0.45466506E+03</rscale>
<asrwt>0</asrwt>
<pdfrwt beam="1">  1       21 0.82250727E-01 0.45466506E+03</pdfrwt>
<pdfrwt beam="2">  1       21 0.13588315E-01 0.45466506E+03</pdfrwt>
<totfact> 0.55750501E+04</totfact>
</mgrwt>
</event>
<event>
 7    0  0.4748297E-002  0.4519461E+03  0.7546771E-02  0.1027143E+00
         21   -1    0    0  502  501  0.00000000000E+00  0.00000000000E+00  0.15854056070E+04  0.15854056070E+04  0.00000000000E+00 0. -1.
         21   -1    0    0  501  502 -0.00000000000E+00 -0.00000000000E+00 -0.32208678286E+02  0.32208678286E+02  0.00000000000E+00 0. -1.
      99926    2    1    2    0    0  0.00000000000E+00  0.00000000000E+00  0.15531969287E+04  0.16176142853E+04  0.45194609922E+03 0.  0.
      99925    2    3    3    0    0  0.27552850880E+02 -0.10583372885E+03  0.92982516285E+03  0.97247879228E+03  0.26302134936E+03 0.  0.
         25    1    4    4    0    0  0.18581667812E+02 -0.74806068177E+02  0.61218538628E+03  0.62957102975E+03  0.12509000000E+03 0.  0.
         25    1    3    3    0    0 -0.27552850880E+02  0.10583372885E+03  0.62337176588E+03  0.64513549301E+03  0.12509000000E+03 0.  0.
         25    1    4    4    0    0  0.89711830684E+01 -0.31027660678E+02  0.31763977656E+03  0.34290776254E+03  0.12509000000E+03 0.  0.
<mgrwt>
<rscale>  2 0.45194610E+03</rscale>
<asrwt>0</asrwt>
<pdfrwt beam="1">  1       21 0.23314783E+00 0.45194610E+03</pdfrwt>
<pdfrwt beam="2">  1       21 0.47365714E-02 0.45194610E+03</pdfrwt>
<totfact> 0.21540946E+04</totfact>
</mgrwt>
</event>
<event>
 7    0  0.4748297E-002  0.4512662E+03  0.7546771E-02  0.1027345E+00
         21   -1    0    0  502  501  0.00000000000E+00  0.00000000000E+00  0.97811538304E+02  0.97811538304E+02  0.00000000000E+00 0.  1.
         21   -1    0    0  501  502 -0.00000000000E+00 -0.00000000000E+00 -0.52049365813E+03  0.52049365813E+03  0.00000000000E+00 0.  1.
      99926    2    1    2    0    0 -0.35527136788E-14  0.00000000000E+00 -0.42268211983E+03  0.61830519643E+03  0.45126615374E+03 0.  0.
      99925    2    3    3    0    0  0.26096523945E+02  0.69677717825E+02 -0.15654996712E+03  0.31497395220E+03  0.26299179728E+03 0.  0.
         25    1    4    4    0    0  0.11998720165E+02  0.75961021504E+02 -0.75344766952E+02  0.16504056495E+03  0.12509000000E+03 0.  0.
         25    1    3    3    0    0 -0.26096523945E+02 -0.69677717825E+02 -0.26613215271E+03  0.30333124424E+03  0.12509000000E+03 0.  0.
         25    1    4    4    0    0  0.14097803780E+02 -0.62833036788E+01 -0.81205200164E+02  0.14993338724E+03  0.12509000000E+03 0.  0.
<mgrwt>
<rscale>  2 0.45126615E+03</rscale>
<asrwt>0</asrwt>
<pdfrwt beam="1">  1       21 0.14384050E-01 0.45126615E+03</pdfrwt>
<pdfrwt beam="2">  1       21 0.76543183E-01 0.45126615E+03</pdfrwt>
<totfact> 0.59294520E+04</totfact>
</mgrwt>
</event>
<event>
 7    0  0.4748297E-002  0.4496207E+03  0.7546771E-02  0.1027835E+00
         21   -1    0    0  502  501  0.00000000000E+00  0.00000000000E+00  0.17108172786E+03  0.17108172786E+03  0.00000000000E+00 0.  1.
         21   -1    0    0  501  502 -0.00000000000E+00 -0.00000000000E+00 -0.29541257035E+03  0.29541257035E+03  0.00000000000E+00 0.  1.
      99926    2    1    2    0    0  0.71054273576E-14 -0.71054273576E-14 -0.12433084249E+03  0.46649429820E+03  0.44962069777E+03 0.  0.
      99925    2    3    3    0    0 -0.41246940716E+02  0.37787457814E+02 -0.17451974091E+03  0.32056405558E+03  0.26301135275E+03 0.  0.
         25    1    4    4    0    0  0.60543938115E+01  0.46686076144E+02 -0.71958219675E+02  0.15179505548E+03  0.12509000000E+03 0.  0.
         25    1    4    4    0    0 -0.47301334527E+02 -0.88986183297E+01 -0.10256152124E+03  0.16876900010E+03  0.12509000000E+03 0.  0.
         25    1    3    3    0    0  0.41246940716E+02 -0.37787457814E+02  0.50188898423E+02  0.14593024262E+03  0.12509000000E+03 0.  0.
<mgrwt>
<rscale>  2 0.44962070E+03</rscale>
<asrwt>0</asrwt>
<pdfrwt beam="1">  1       21 0.25159078E-01 0.44962070E+03</pdfrwt>
<pdfrwt beam="2">  1       21 0.43443025E-01 0.44962070E+03</pdfrwt>
<totfact> 0.70665171E+04</totfact>
</mgrwt>
</event>
<event>
 7    0  0.4748297E-002  0.5002260E+03  0.7546771E-02  0.1013720E+00
         21   -1    0    0  502  501  0.00000000000E+00  0.00000000000E+00  0.21833876767E+03  0.21833876767E+03  0.00000000000E+00 0.  1.
         21   -1    0    0  501  502 -0.00000000000E+00 -0.00000000000E+00 -0.28651126053E+03  0.28651126053E+03  0.00000000000E+00 0.  1.
      99926    2    1    2    0    0  0.00000000000E+00  0.00000000000E+00 -0.68172492860E+02  0.50485002820E+03  0.50022601111E+03 0.  0.
      99925    2    3    3    0    0 -0.14666381538E+03 -0.34754134385E+02 -0.24077348763E+02  0.30407648804E+03  0.26299176272E+03 0.  0.
         25    1    4    4    0    0 -0.59413268114E+02  0.20245488421E+02 -0.23711820821E+02  0.14194919787E+03  0.12509000000E+03 0.  0.
         25    1    3    3    0    0  0.14666381538E+03  0.34754134385E+02 -0.44095144097E+02  0.20077354017E+03  0.12509000000E+03 0.  0.
         25    1    4    4    0    0 -0.87250547263E+02 -0.54999622806E+02 -0.36552794189E+00  0.16212729017E+03  0.12509000000E+03 0.  0.
<mgrwt>
<rscale>  2 0.50022601E+03</rscale>
<asrwt>0</asrwt>
<pdfrwt beam="1">  1       21 0.32108642E-01 0.50022601E+03</pdfrwt>
<pdfrwt beam="2">  1       21 0.42134009E-01 0.50022601E+03</pdfrwt>
<totfact> 0.46036825E+04</totfact>
</mgrwt>
</event>
<event>
 7    0  0.4748297E-002  0.3967410E+03  0.7546771E-02  0.1044914E+00
         21   -1    0    0  502  501  0.00000000000E+00  0.00000000000E+00  0.16608332548E+04  0.16608332548E+04  0.00000000000E+00 0. -1.
         21   -1    0    0  501  502 -0.00000000000E+00 -0.00000000000E+00 -0.23693438271E+02  0.23693438271E+02  0.00000000000E+00 0. -1.
      99926    2    1    2    0    0  0.00000000000E+00  0.35527136788E-14  0.16371398165E+04  0.16845266931E+04  0.39674097445E+03 0.  0.
      99925    2    3    3    0    0  0.21834253929E+02 -0.21158902882E+02  0.11904383724E+04  0.12196459319E+04  0.26356829649E+03 0.  0.
         25    1    3    3    0    0 -0.21834253929E+02  0.21158902882E+02  0.44670144409E+03  0.46488076113E+03  0.12509000000E+03 0.  0.
         25    1    4    4    0    0  0.51967208052E+02 -0.17244347164E+02  0.62335444418E+03  0.63813496174E+03  0.12509000000E+03 0.  0.
         25    1    4    4    0    0 -0.30132954124E+02 -0.39145557184E+01  0.56708392826E+03  0.58151097020E+03  0.12509000000E+03 0.  0.
<mgrwt>
<rscale>  2 0.39674097E+03</rscale>
<asrwt>0</asrwt>
<pdfrwt beam="1">  1       21 0.24424011E+00 0.39674097E+03</pdfrwt>
<pdfrwt beam="2">  1       21 0.34843303E-02 0.39674097E+03</pdfrwt>
<totfact> 0.31671781E+04</totfact>
</mgrwt>
</event>
<event>
 7    0  0.4748297E-002  0.4363186E+03  0.7546771E-02  0.1031882E+00
         21   -1    0    0  502  501  0.00000000000E+00  0.00000000000E+00  0.22074381724E+03  0.22074381724E+03  0.00000000000E+00 0. -1.
         21   -1    0    0  501  502 -0.00000000000E+00 -0.00000000000E+00 -0.21560502995E+03  0.21560502995E+03  0.00000000000E+00 0. -1.
      99926    2    1    2    0    0  0.00000000000E+00 -0.71054273576E-14  0.51387872954E+01  0.43634884719E+03  0.43631858694E+03 0.  0.
      99925    2    3    3    0    0 -0.70245420497E+02  0.52969117703E+02  0.37967366059E+02  0.27993474867E+03  0.26302432606E+03 0.  0.
         25    1    3    3    0    0  0.70245420497E+02 -0.52969117703E+02 -0.32828578764E+02  0.15641409852E+03  0.12509000000E+03 0.  0.
         25    1    4    4    0    0 -0.73455088627E+02  0.30763423940E+02  0.38073328427E+01  0.14833759531E+03  0.12509000000E+03 0.  0.
         25    1    4    4    0    0  0.32096681307E+01  0.22205693763E+02  0.34160033216E+02  0.13159715337E+03  0.12509000000E+03 0.  0.
<mgrwt>
<rscale>  2 0.43631859E+03</rscale>
<asrwt>0</asrwt>
<pdfrwt beam="1">  1       21 0.32462326E-01 0.43631859E+03</pdfrwt>
<pdfrwt beam="2">  1       21 0.31706622E-01 0.43631859E+03</pdfrwt>
<totfact> 0.81408970E+04</totfact>
</mgrwt>
</event>
<event>
 7    0  0.4748297E-002  0.4568952E+03  0.7546771E-02  0.1025686E+00
         21   -1    0    0  502  501  0.00000000000E+00  0.00000000000E+00  0.30990501482E+02  0.30990501482E+02  0.00000000000E+00 0.  1.
         21   -1    0    0  501  502 -0.00000000000E+00 -0.00000000000E+00 -0.16840095736E+04  0.16840095736E+04  0.00000000000E+00 0.  1.
      99926    2    1    2    0    0  0.71054273576E-14 -0.71054273576E-14 -0.16530190721E+04  0.17150000750E+04  0.45689517916E+03 0.  0.
      99925    2    3    3    0    0 -0.61994530449E+02 -0.37040472315E+02 -0.13740913415E+04  0.14008926008E+04  0.26297860328E+03 0.  0.
         25    1    4    4    0    0 -0.67585365963E+02 -0.20649446470E+01 -0.67488093493E+03  0.68969836169E+03  0.12509000000E+03 0.  0.
         25    1    4    4    0    0  0.55908355141E+01 -0.34975527668E+02 -0.69921040653E+03  0.71119423907E+03  0.12509000000E+03 0.  0.
         25    1    3    3    0    0  0.61994530449E+02  0.37040472315E+02 -0.27892773061E+03  0.31410747428E+03  0.12509000000E+03 0.  0.
<mgrwt>
<rscale>  2 0.45689518E+03</rscale>
<asrwt>0</asrwt>
<pdfrwt beam="1">  1       21 0.45574251E-02 0.45689518E+03</pdfrwt>
<pdfrwt beam="2">  1       21 0.24764855E+00 0.45689518E+03</pdfrwt>
<totfact> 0.18675019E+04</totfact>
</mgrwt>
</event>
<event>
 7    0  0.4748297E-002  0.4578913E+03  0.7546771E-02  0.1025395E+00
         21   -1    0    0  502  501  0.00000000000E+00  0.00000000000E+00  0.12859018082E+03  0.12859018082E+03  0.00000000000E+00 0.  1.
         21   -1    0    0  501  502 -0.00000000000E+00 -0.00000000000E+00 -0.40762136828E+03  0.40762136828E+03  0.00000000000E+00 0.  1.
      99926    2    1    2    0    0  0.00000000000E+00 -0.71054273576E-14 -0.27903118746E+03  0.53621154911E+03  0.45789127729E+03 0.  0.
      99925    2    3    3    0    0 -0.83216792410E+02  0.33067242663E+02 -0.26080591260E+03  0.38129819971E+03  0.26334410185E+03 0.  0.
         25    1    3    3    0    0  0.83216792410E+02 -0.33067242663E+02 -0.18225274860E+02  0.15491334939E+03  0.12509000000E+03 0.  0.
         25    1    4    4    0    0 -0.60149122048E+02  0.34665226663E+02 -0.92641196843E+02  0.17043912190E+03  0.12509000000E+03 0.  0.
         25    1    4    4    0    0 -0.23067670362E+02 -0.15979840001E+01 -0.16816471576E+03  0.21085907781E+03  0.12509000000E+03 0.  0.
<mgrwt>
<rscale>  2 0.45789128E+03</rscale>
<asrwt>0</asrwt>
<pdfrwt beam="1">  1       21 0.18910321E-01 0.45789128E+03</pdfrwt>
<pdfrwt beam="2">  1       21 0.59944319E-01 0.45789128E+03</pdfrwt>
<totfact> 0.61369622E+04</totfact>
</mgrwt>
</event>
<event>
 7    0  0.4748297E-002  0.4552519E+03  0.7546771E-02  0.1026167E+00
         21   -1    0    0  502  501  0.00000000000E+00  0.00000000000E+00  0.13202760396E+03  0.13202760396E+03  0.00000000000E+00 0.  1.
         21   -1    0    0  501  502 -0.00000000000E+00 -0.00000000000E+00 -0.39244504219E+03  0.39244504219E+03  0.00000000000E+00 0.  1.
      99926    2    1    2    0    0  0.00000000000E+00  0.00000000000E+00 -0.26041743823E+03  0.52447264616E+03  0.45525192414E+03 0.  0.
      99925    2    3    3    0    0 -0.87021361467E+02 -0.67762546553E+02 -0.19406181472E+03  0.34498711209E+03  0.26304303737E+03 0.  0.
         25    1    3    3    0    0  0.87021361467E+02  0.67762546553E+02 -0.66355623513E+02  0.17948553407E+03  0.12509000000E+03 0.  0.
         25    1    4    4    0    0 -0.61524439822E+02  0.22420223413E+01 -0.10161506648E+03  0.17252076163E+03  0.12509000000E+03 0.  0.
         25    1    4    4    0    0 -0.25496921645E+02 -0.70004568894E+02 -0.92446748239E+02  0.17246635046E+03  0.12509000000E+03 0.  0.
<mgrwt>
<rscale>  2 0.45525192E+03</rscale>
<asrwt>0</asrwt>
<pdfrwt beam="1">  1       21 0.19415824E-01 0.45525192E+03</pdfrwt>
<pdfrwt beam="2">  1       21 0.57712506E-01 0.45525192E+03</pdfrwt>
<totfact> 0.63455404E+04</totfact>
</mgrwt>
</event>
<event>
 7    0  0.4748297E-002  0.4550686E+03  0.7546771E-02  0.1026221E+00
         21   -1    0    0  502  501  0.00000000000E+00  0.00000000000E+00  0.43639005750E+03  0.43639005750E+03  0.00000000000E+00 0. -1.
         21   -1    0    0  501  502 -0.00000000000E+00 -0.00000000000E+00 -0.11863663380E+03  0.11863663380E+03  0.00000000000E+00 0. -1.
      99926    2    1    2    0    0  0.17763568394E-14  0.00000000000E+00  0.31775342370E+03  0.55502669130E+03  0.45506855504E+03 0.  0.
      99925    2    3    3    0    0  0.15319517482E+02 -0.92092345258E+02  0.12136101461E+03  0.30416183900E+03  0.26281217774E+03 0.  0.
         25    1    4    4    0    0  0.38346839880E+02 -0.64141877014E+02  0.86085273026E+02  0.16924196539E+03  0.12509000000E+03 0.  0.
         25    1    3    3    0    0 -0.15319517482E+02  0.92092345258E+02  0.19639240910E+03  0.25086485230E+03  0.12509000000E+03 0.  0.
         25    1    4    4    0    0 -0.23027322398E+02 -0.27950468244E+02  0.35275741581E+02  0.13491987361E+03  0.12509000000E+03 0.  0.
<mgrwt>
<rscale>  2 0.45506856E+03</rscale>
<asrwt>0</asrwt>
<pdfrwt beam="1">  1       21 0.64175008E-01 0.45506856E+03</pdfrwt>
<pdfrwt beam="2">  1       21 0.17446564E-01 0.45506856E+03</pdfrwt>
<totfact> 0.61502200E+04</totfact>
</mgrwt>
</event>
<event>
 7    0  0.4748297E-002  0.4573700E+03  0.7546771E-02  0.1025547E+00
         21   -1    0    0  502  501  0.00000000000E+00  0.00000000000E+00  0.33382813487E+02  0.33382813487E+02  0.00000000000E+00 0.  1.
         21   -1    0    0  501  502 -0.00000000000E+00 -0.00000000000E+00 -0.15665792051E+04  0.15665792051E+04  0.00000000000E+00 0.  1.
      99926    2    1    2    0    0  0.14210854715E-13  0.00000000000E+00 -0.15331963916E+04  0.15999620186E+04  0.45736996586E+03 0.  0.
      99925    2    3    3    0    0 -0.10406352708E+03  0.47195075668E+02 -0.10190950108E+04  0.10586632742E+04  0.26297660398E+03 0.  0.
         25    1    3    3    0    0  0.10406352708E+03 -0.47195075668E+02 -0.51410138079E+03  0.54129874438E+03  0.12509000000E+03 0.  0.
         25    1    4    4    0    0 -0.78383944593E+02  0.57669912540E+02 -0.54847467735E+03  0.57091316448E+03  0.12509000000E+03 0.  0.
         25    1    4    4    0    0 -0.25679582482E+02 -0.10474836872E+02 -0.47062033349E+03  0.48775010975E+03  0.12509000000E+03 0.  0.
<mgrwt>
<rscale>  2 0.45736997E+03</rscale>
<asrwt>0</asrwt>
<pdfrwt beam="1">  1       21 0.49092381E-02 0.45736997E+03</pdfrwt>
<pdfrwt beam="2">  1       21 0.23037925E+00 0.45736997E+03</pdfrwt>
<totfact> 0.21040775E+04</totfact>
</mgrwt>
</event>
<event>
 7    0  0.4748297E-002  0.4529683E+03  0.7546771E-02  0.1026841E+00
         21   -1    0    0  502  501  0.00000000000E+00  0.00000000000E+00  0.15503225162E+03  0.15503225162E+03  0.00000000000E+00 0. -1.
         21   -1    0    0  501  502 -0.00000000000E+00 -0.00000000000E+00 -0.33086710496E+03  0.33086710496E+03  0.00000000000E+00 0. -1.
      99926    2    1    2    0    0 -0.14210854715E-13  0.00000000000E+00 -0.17583485334E+03  0.48589935658E+03  0.45296830913E+03 0.  0.
      99925    2    3    3    0    0  0.64120643750E+02 -0.86410345069E+02 -0.14072224305E+03  0.31720256292E+03  0.26312831764E+03 0.  0.
         25    1    4    4    0    0  0.27190754805E+02 -0.75113953097E+02 -0.10400729345E+03  0.18123594645E+03  0.12509000000E+03 0.  0.
         25    1    4    4    0    0  0.36929888945E+02 -0.11296391972E+02 -0.36714949598E+02  0.13596661647E+03  0.12509000000E+03 0.  0.
         25    1    3    3    0    0 -0.64120643750E+02  0.86410345069E+02 -0.35112610298E+02  0.16869679366E+03  0.12509000000E+03 0.  0.
<mgrwt>
<rscale>  2 0.45296831E+03</rscale>
<asrwt>0</asrwt>
<pdfrwt beam="1">  1       21 0.22798861E-01 0.45296831E+03</pdfrwt>
<pdfrwt beam="2">  1       21 0.48656926E-01 0.45296831E+03</pdfrwt>
<totfact> 0.67352893E+04</totfact>
</mgrwt>
</event>
<event>
 7    0  0.4748297E-002  0.4408332E+03  0.7546771E-02  0.1030491E+00
         21   -1    0    0  502  501  0.00000000000E+00  0.00000000000E+00  0.36929224148E+03  0.36929224148E+03  0.00000000000E+00 0.  1.
         21   -1    0    0  501  502 -0.00000000000E+00 -0.00000000000E+00 -0.13155832812E+03  0.13155832812E+03  0.00000000000E+00 0.  1.
      99926    2    1    2    0    0  0.00000000000E+00 -0.16653345369E-14  0.23773391335E+03  0.50085056960E+03  0.44083316517E+03 0.  0.
      99925    2    3    3    0    0 -0.54371975707E+02 -0.83505163107E+00  0.56841454195E+02  0.27429682557E+03  0.26277516730E+03 0.  0.
         25    1    3    3    0    0  0.54371975707E+02  0.83505163107E+00  0.18089245916E+03  0.22655374403E+03  0.12509000000E+03 0.  0.
         25    1    4    4    0    0 -0.62438885506E+01 -0.16920265472E+02  0.58568433928E+02  0.13929483508E+03  0.12509000000E+03 0.  0.
         25    1    4    4    0    0 -0.48128087156E+02  0.16085213841E+02 -0.17269797322E+01  0.13500199049E+03  0.12509000000E+03 0.  0.
<mgrwt>
<rscale>  2 0.44083317E+03</rscale>
<asrwt>0</asrwt>
<pdfrwt beam="1">  1       21 0.54307682E-01 0.44083317E+03</pdfrwt>
<pdfrwt beam="2">  1       21 0.19346813E-01 0.44083317E+03</pdfrwt>
<totfact> 0.73089420E+04</totfact>
</mgrwt>
</event>
<event>
 7    0  0.4748297E-002  0.4510064E+03  0.7546771E-02  0.1027422E+00
         21   -1    0    0  502  501  0.00000000000E+00  0.00000000000E+00  0.19593369109E+03  0.19593369109E+03  0.00000000000E+00 0.  1.
         21   -1    0    0  501  502 -0.00000000000E+00 -0.00000000000E+00 -0.25953520285E+03  0.25953520285E+03  0.00000000000E+00 0.  1.
      99926    2    1    2    0    0  0.53290705182E-14  0.00000000000E+00 -0.63601511752E+02  0.45546889394E+03  0.45100638693E+03 0.  0.
      99925    2    3    3    0    0 -0.13302963081E+02  0.18679765170E+02  0.67860581480E+02  0.27255992065E+03  0.26297899036E+03 0.  0.
         25    1    4    4    0    0  0.33479826017E+02  0.33475158129E+01  0.32022586698E+02  0.13343559784E+03  0.12509000000E+03 0.  0.
         25    1    4    4    0    0 -0.46782789098E+02  0.15332249357E+02  0.35837994782E+02  0.13912432281E+03  0.12509000000E+03 0.  0.
         25    1    3    3    0    0  0.13302963081E+02 -0.18679765170E+02 -0.13146209323E+03  0.18290897329E+03  0.12509000000E+03 0.  0.
<mgrwt>
<rscale>  2 0.45100639E+03</rscale>
<asrwt>0</asrwt>
<pdfrwt beam="1">  1       21 0.28813778E-01 0.45100639E+03</pdfrwt>
<pdfrwt beam="2">  1       21 0.38166941E-01 0.45100639E+03</pdfrwt>
<totfact> 0.70738227E+04</totfact>
</mgrwt>
</event>
<event>
 7    0  0.4748297E-002  0.4393357E+03  0.7546771E-02  0.1030951E+00
         21   -1    0    0  502  501  0.00000000000E+00  0.00000000000E+00  0.52261345445E+03  0.52261345445E+03  0.00000000000E+00 0. -1.
         21   -1    0    0  501  502 -0.00000000000E+00 -0.00000000000E+00 -0.92332030055E+02  0.92332030055E+02  0.00000000000E+00 0. -1.
      99926    2    1    2    0    0  0.00000000000E+00  0.00000000000E+00  0.43028142440E+03  0.61494548451E+03  0.43933568571E+03 0.  0.
      99925    2    3    3    0    0 -0.28393371267E+02  0.92914082349E+02  0.26068053372E+03  0.38288691335E+03  0.26307572583E+03 0.  0.
         25    1    4    4    0    0  0.11502771364E+02  0.77761147919E+02  0.14935901815E+03  0.21008268438E+03  0.12509000000E+03 0.  0.
         25    1    3    3    0    0  0.28393371267E+02 -0.92914082349E+02  0.16960089067E+03  0.23205857116E+03  0.12509000000E+03 0.  0.
         25    1    4    4    0    0 -0.39896142631E+02  0.15152934430E+02  0.11132151557E+03  0.17280422896E+03  0.12509000000E+03 0.  0.
<mgrwt>
<rscale>  2 0.43933569E+03</rscale>
<asrwt>0</asrwt>
<pdfrwt beam="1">  1       21 0.76854919E-01 0.43933569E+03</pdfrwt>
<pdfrwt beam="2">  1       21 0.13578240E-01 0.43933569E+03</pdfrwt>
<totfact> 0.65501987E+04</totfact>
</mgrwt>
</event>
<event>
 7    0  0.4748297E-002  0.4530622E+03  0.7546771E-02  0.1026813E+00
         21   -1    0    0  502  501  0.00000000000E+00  0.00000000000E+00  0.67431828334E+03  0.67431828334E+03  0.00000000000E+00 0. -1.
         21   -1    0    0  501  502 -0.00000000000E+00 -0.00000000000E+00 -0.76101051452E+02  0.76101051452E+02  0.00000000000E+00 0. -1.
      99926    2    1    2    0    0  0.00000000000E+00  0.00000000000E+00  0.59821723189E+03  0.75041933479E+03  0.45306216075E+03 0.  0.
      99925    2    3    3    0    0  0.91478653838E+02 -0.27523915641E+02  0.28236824993E+03  0.39752558656E+03  0.26299972121E+03 0.  0.
         25    1    4    4    0    0  0.39473845417E+02 -0.12879798909E+02  0.19602066906E+03  0.23621110154E+03  0.12509000000E+03 0.  0.
         25    1    3    3    0    0 -0.91478653838E+02  0.27523915641E+02  0.31584898195E+03  0.35289374823E+03  0.12509000000E+03 0.  0.
         25    1    4    4    0    0  0.52004808421E+02 -0.14644116731E+02  0.86347580867E+02  0.16131448501E+03  0.12509000000E+03 0.  0.
<mgrwt>
<rscale>  2 0.45306216E+03</rscale>
<asrwt>0</asrwt>
<pdfrwt beam="1">  1       21 0.99164450E-01 0.45306216E+03</pdfrwt>
<pdfrwt beam="2">  1       21 0.11191331E-01 0.45306216E+03</pdfrwt>
<totfact> 0.51022180E+04</totfact>
</mgrwt>
</event>
<event>
 7    0  0.4748297E-002  0.4496989E+03  0.7546771E-02  0.1027812E+00
         21   -1    0    0  502  501  0.00000000000E+00  0.00000000000E+00  0.77671622395E+02  0.77671622395E+02  0.00000000000E+00 0. -1.
         21   -1    0    0  501  502 -0.00000000000E+00 -0.00000000000E+00 -0.65091057349E+03  0.65091057349E+03  0.00000000000E+00 0. -1.
      99926    2    1    2    0    0  0.00000000000E+00  0.00000000000E+00 -0.57323895109E+03  0.72858219588E+03  0.44969892273E+03 0.  0.
      99925    2    3    3    0    0 -0.58256128716E+02 -0.44741529924E+02 -0.23406961816E+03  0.35969342466E+03  0.26304979104E+03 0.  0.
         25    1    4    4    0    0 -0.23164019264E+02  0.12496908565E+02 -0.13894811252E+03  0.18880368266E+03  0.12509000000E+03 0.  0.
         25    1    3    3    0    0  0.58256128716E+02  0.44741529924E+02 -0.33916933293E+03  0.36888877122E+03  0.12509000000E+03 0.  0.
         25    1    4    4    0    0 -0.35092109451E+02 -0.57238438489E+02 -0.95121505638E+02  0.17088974200E+03  0.12509000000E+03 0.  0.
<mgrwt>
<rscale>  2 0.44969892E+03</rscale>
<asrwt>0</asrwt>
<pdfrwt beam="1">  1       21 0.11422298E-01 0.44969892E+03</pdfrwt>
<pdfrwt beam="2">  1       21 0.95722139E-01 0.44969892E+03</pdfrwt>
<totfact> 0.53577243E+04</totfact>
</mgrwt>
</event>
<event>
 7    0  0.4748297E-002  0.4569368E+03  0.7546771E-02  0.1025673E+00
         21   -1    0    0  502  501  0.00000000000E+00  0.00000000000E+00  0.30770764820E+03  0.30770764820E+03  0.00000000000E+00 0.  1.
         21   -1    0    0  501  502 -0.00000000000E+00 -0.00000000000E+00 -0.16963441030E+03  0.16963441030E+03  0.00000000000E+00 0.  1.
      99926    2    1    2    0    0  0.00000000000E+00  0.00000000000E+00  0.13807323790E+03  0.47734205850E+03  0.45693678096E+03 0.  0.
      99925    2    3    3    0    0 -0.51745877039E+02  0.78391048550E+02  0.15604339177E+03  0.31988340738E+03  0.26296969772E+03 0.  0.
         25    1    4    4    0    0 -0.56626047930E+02  0.37092992663E+02  0.11154365032E+03  0.18075368166E+03  0.12509000000E+03 0.  0.
         25    1    3    3    0    0  0.51745877039E+02 -0.78391048550E+02 -0.17970153873E+02  0.15745865112E+03  0.12509000000E+03 0.  0.
         25    1    4    4    0    0  0.48801708908E+01  0.41298055887E+02  0.44499741458E+02  0.13912972572E+03  0.12509000000E+03 0.  0.
<mgrwt>
<rscale>  2 0.45693678E+03</rscale>
<asrwt>0</asrwt>
<pdfrwt beam="1">  1       21 0.45251125E-01 0.45693678E+03</pdfrwt>
<pdfrwt beam="2">  1       21 0.24946237E-01 0.45693678E+03</pdfrwt>
<totfact> 0.65875688E+04</totfact>
</mgrwt>
</event>
<event>
 7    0  0.4748297E-002  0.4511879E+03  0.7546771E-02  0.1027368E+00
         21   -1    0    0  502  501  0.00000000000E+00  0.00000000000E+00  0.30219830724E+03  0.30219830724E+03  0.00000000000E+00 0.  1.
         21   -1    0    0  501  502 -0.00000000000E+00 -0.00000000000E+00 -0.16840803529E+03  0.16840803529E+03  0.00000000000E+00 0.  1.
      99926    2    1    2    0    0  0.00000000000E+00  0.00000000000E+00  0.13379027195E+03  0.47060634253E+03  0.45118786858E+03 0.  0.
      99925    2    3    3    0    0  0.22303640528E+02  0.62586979105E+02  0.17534230612E+03  0.32299651231E+03  0.26299665456E+03 0.  0.
         25    1    4    4    0    0  0.29518831437E+02  0.25729606893E+01  0.57519279042E+02  0.14083308240E+03  0.12509000000E+03 0.  0.
         25    1    4    4    0    0 -0.72151909093E+01  0.60014018416E+02  0.11782302708E+03  0.18216342991E+03  0.12509000000E+03 0.  0.
         25    1    3    3    0    0 -0.22303640528E+02 -0.62586979105E+02 -0.41552034166E+02  0.14760983022E+03  0.12509000000E+03 0.  0.
<mgrwt>
<rscale>  2 0.45118787E+03</rscale>
<asrwt>0</asrwt>
<pdfrwt beam="1">  1       21 0.44440928E-01 0.45118787E+03</pdfrwt>
<pdfrwt beam="2">  1       21 0.24765887E-01 0.45118787E+03</pdfrwt>
<totfact> 0.69468225E+04</totfact>
</mgrwt>
</event>
<event>
 7    0  0.4748297E-002  0.4447103E+03  0.7546771E-02  0.1029311E+00
         21   -1    0    0  502  501  0.00000000000E+00  0.00000000000E+00  0.18341337844E+04  0.18341337844E+04  0.00000000000E+00 0. -1.
         21   -1    0    0  501  502 -0.00000000000E+00 -0.00000000000E+00 -0.26956495170E+02  0.26956495170E+02  0.00000000000E+00 0. -1.
      99926    2    1    2    0    0  0.00000000000E+00  0.00000000000E+00  0.18071772893E+04  0.18610902796E+04  0.44471032595E+03 0.  0.
      99925    2    3    3    0    0  0.24138032206E+02 -0.52674972153E+02  0.78921674354E+03  0.83383740030E+03  0.26280115024E+03 0.  0.
         25    1    4    4    0    0  0.37666456476E+02 -0.65720977877E+01  0.31568570262E+03  0.34171175770E+03  0.12509000000E+03 0.  0.
         25    1    3    3    0    0 -0.24138032206E+02  0.52674972153E+02  0.10179605457E+04  0.10272528793E+04  0.12509000000E+03 0.  0.
         25    1    4    4    0    0 -0.13528424269E+02 -0.46102874365E+02  0.47353104093E+03  0.49212564261E+03  0.12509000000E+03 0.  0.
<mgrwt>
<rscale>  2 0.44471033E+03</rscale>
<asrwt>0</asrwt>
<pdfrwt beam="1">  1       21 0.26972547E+00 0.44471033E+03</pdfrwt>
<pdfrwt beam="2">  1       21 0.39641917E-02 0.44471033E+03</pdfrwt>
<totfact> 0.17466969E+04</totfact>
</mgrwt>
</event>
<event>
 7    0  0.4748297E-002  0.4573100E+03  0.7546771E-02  0.1025564E+00
         21   -1    0    0  502  501  0.00000000000E+00  0.00000000000E+00  0.12335154612E+04  0.12335154612E+04  0.00000000000E+00 0. -1.
         21   -1    0    0  501  502 -0.00000000000E+00 -0.00000000000E+00 -0.42385444632E+02  0.42385444632E+02  0.00000000000E+00 0. -1.
      99926    2    1    2    0    0  0.00000000000E+00  0.00000000000E+00  0.11911300166E+04  0.12759009058E+04  0.45730996614E+03 0.  0.
      99925    2    3    3    0    0 -0.78454979810E+02  0.56227796033E+02  0.92132996642E+03  0.96324082833E+03  0.26394551982E+03 0.  0.
         25    1    3    3    0    0  0.78454979810E+02 -0.56227796033E+02  0.26980005014E+03  0.31266007749E+03  0.12509000000E+03 0.  0.
         25    1    4    4    0    0 -0.46065577587E+02  0.32733515973E+02  0.61165137956E+03  0.62686397147E+03  0.12509000000E+03 0.  0.
         25    1    4    4    0    0 -0.32389402223E+02  0.23494280060E+02  0.30967858686E+03  0.33637685686E+03  0.12509000000E+03 0.  0.
<mgrwt>
<rscale>  2 0.45730997E+03</rscale>
<asrwt>0</asrwt>
<pdfrwt beam="1">  1       21 0.18139931E+00 0.45730997E+03</pdfrwt>
<pdfrwt beam="2">  1       21 0.62331544E-02 0.45730997E+03</pdfrwt>
<totfact> 0.29292590E+04</totfact>
</mgrwt>
</event>
<event>
 7    0  0.4748297E-002  0.4541547E+03  0.7546771E-02  0.1026490E+00
         21   -1    0    0  502  501  0.00000000000E+00  0.00000000000E+00  0.18739202741E+03  0.18739202741E+03  0.00000000000E+00 0.  1.
         21   -1    0    0  501  502 -0.00000000000E+00 -0.00000000000E+00 -0.27516709077E+03  0.27516709077E+03  0.00000000000E+00 0.  1.
      99926    2    1    2    0    0 -0.28865798640E-14 -0.14210854715E-13 -0.87775063364E+02  0.46255911818E+03  0.45415468297E+03 0.  0.
      99925    2    3    3    0    0  0.64276877802E+00 -0.84711876792E+02 -0.13046575224E+03  0.30556702208E+03  0.26300832165E+03 0.  0.
         25    1    4    4    0    0 -0.20179765747E+02 -0.36251129565E+02 -0.10250631610E+03  0.16696233192E+03  0.12509000000E+03 0.  0.
         25    1    4    4    0    0  0.20822534525E+02 -0.48460747227E+02 -0.27959436141E+02  0.13860469016E+03  0.12509000000E+03 0.  0.
         25    1    3    3    0    0 -0.64276877802E+00  0.84711876792E+02  0.42690688872E+02  0.15699209610E+03  0.12509000000E+03 0.  0.
<mgrwt>
<rscale>  2 0.45415468E+03</rscale>
<asrwt>0</asrwt>
<pdfrwt beam="1">  1       21 0.27557651E-01 0.45415468E+03</pdfrwt>
<pdfrwt beam="2">  1       21 0.40465748E-01 0.45415468E+03</pdfrwt>
<totfact> 0.68450575E+04</totfact>
</mgrwt>
</event>
<event>
 7    0  0.4748297E-002  0.4948849E+03  0.7546771E-02  0.1015123E+00
         21   -1    0    0  502  501  0.00000000000E+00  0.00000000000E+00  0.17268684841E+03  0.17268684841E+03  0.00000000000E+00 0. -1.
         21   -1    0    0  501  502 -0.00000000000E+00 -0.00000000000E+00 -0.35455958193E+03  0.35455958193E+03  0.00000000000E+00 0. -1.
      99926    2    1    2    0    0  0.00000000000E+00  0.00000000000E+00 -0.18187273352E+03  0.52724643034E+03  0.49488494330E+03 0.  0.
      99925    2    3    3    0    0  0.50843675248E+02  0.13467540130E+03 -0.14460016111E+03  0.33292891754E+03  0.26307777274E+03 0.  0.
         25    1    3    3    0    0 -0.50843675248E+02 -0.13467540130E+03 -0.37272572410E+02  0.19431751280E+03  0.12509000000E+03 0.  0.
         25    1    4    4    0    0  0.62596169827E+02  0.58082528342E+02 -0.88717577328E+02  0.17552828035E+03  0.12509000000E+03 0.  0.
         25    1    4    4    0    0 -0.11752494579E+02  0.76592872954E+02 -0.55882583786E+02  0.15740063719E+03  0.12509000000E+03 0.  0.
<mgrwt>
<rscale>  2 0.49488494E+03</rscale>
<asrwt>0</asrwt>
<pdfrwt beam="1">  1       21 0.25395125E-01 0.49488494E+03</pdfrwt>
<pdfrwt beam="2">  1       21 0.52141114E-01 0.49488494E+03</pdfrwt>
<totfact> 0.46749750E+04</totfact>
</mgrwt>
</event>
<event>
 7    0  0.4748297E-002  0.4600481E+03  0.7546771E-02  0.1024767E+00
         21   -1    0    0  502  501  0.00000000000E+00  0.00000000000E+00  0.26136770450E+03  0.26136770450E+03  0.00000000000E+00 0.  1.
         21   -1    0    0  501  502 -0.00000000000E+00 -0.00000000000E+00 -0.20243916084E+03  0.20243916084E+03  0.00000000000E+00 0.  1.
      99926    2    1    2    0    0  0.00000000000E+00  0.00000000000E+00  0.58928543665E+02  0.46380686534E+03  0.46004807909E+03 0.  0.
      99925    2    3    3    0    0 -0.90503540414E+02 -0.67331404927E+02  0.72489093918E+02  0.29482223426E+03  0.26256631955E+03 0.  0.
         25    1    4    4    0    0 -0.75017125769E+02 -0.34450320157E+02  0.96204520814E+01  0.15018140669E+03  0.12509000000E+03 0.  0.
         25    1    3    3    0    0  0.90503540414E+02  0.67331404927E+02 -0.13560550253E+02  0.16898463108E+03  0.12509000000E+03 0.  0.
         25    1    4    4    0    0 -0.15486414645E+02 -0.32881084771E+02  0.62868641837E+02  0.14464082757E+03  0.12509000000E+03 0.  0.
<mgrwt>
<rscale>  2 0.46004808E+03</rscale>
<asrwt>0</asrwt>
<pdfrwt beam="1">  1       21 0.38436428E-01 0.46004808E+03</pdfrwt>
<pdfrwt beam="2">  1       21 0.29770465E-01 0.46004808E+03</pdfrwt>
<totfact> 0.65237844E+04</totfact>
</mgrwt>
</event>
<event>
 7    0  0.4748297E-002  0.4620127E+03  0.7546771E-02  0.1024199E+00
         21   -1    0    0  502  501  0.00000000000E+00  0.00000000000E+00  0.32230174105E+03  0.32230174105E+03  0.00000000000E+00 0.  1.
         21   -1    0    0  501  502 -0.00000000000E+00 -0.00000000000E+00 -0.16557132027E+03  0.16557132027E+03  0.00000000000E+00 0.  1.
      99926    2    1    2    0    0 -0.44408920985E-15 -0.44408920985E-15  0.15673042078E+03  0.48787306132E+03  0.46201266125E+03 0.  0.
      99925    2    3    3    0    0 -0.22915604998E+01 -0.35902580865E+01  0.22424111008E+03  0.34566426246E+03  0.26302388806E+03 0.  0.
         25    1    4    4    0    0  0.24426783668E+02  0.23894598602E+02  0.13565695749E+03  0.18766442875E+03  0.12509000000E+03 0.  0.
         25    1    4    4    0    0 -0.26718344168E+02 -0.27484856688E+02  0.88584152584E+02  0.15799983371E+03  0.12509000000E+03 0.  0.
         25    1    3    3    0    0  0.22915604998E+01  0.35902580865E+01 -0.67510689298E+02  0.14220879886E+03  0.12509000000E+03 0.  0.
<mgrwt>
<rscale>  2 0.46201266E+03</rscale>
<asrwt>0</asrwt>
<pdfrwt beam="1">  1       21 0.47397315E-01 0.46201266E+03</pdfrwt>
<pdfrwt beam="2">  1       21 0.24348724E-01 0.46201266E+03</pdfrwt>
<totfact> 0.62574704E+04</totfact>
</mgrwt>
</event>
<event>
 7    0  0.4748297E-002  0.4526099E+03  0.7546771E-02  0.1026947E+00
         21   -1    0    0  502  501  0.00000000000E+00  0.00000000000E+00  0.74398716514E+03  0.74398716514E+03  0.00000000000E+00 0. -1.
         21   -1    0    0  501  502 -0.00000000000E+00 -0.00000000000E+00 -0.68837110452E+02  0.68837110452E+02  0.00000000000E+00 0. -1.
      99926    2    1    2    0    0  0.00000000000E+00  0.00000000000E+00  0.67515005468E+03  0.81282427559E+03  0.45260988350E+03 0.  0.
      99925    2    3    3    0    0  0.10185684546E+03 -0.43595558477E+02  0.41636018897E+03  0.50477380508E+03  0.26299315133E+03 0.  0.
         25    1    3    3    0    0 -0.10185684546E+03  0.43595558477E+02  0.25878986571E+03  0.30805047051E+03  0.12509000000E+03 0.  0.
         25    1    4    4    0    0  0.18853140645E+02 -0.32700066361E+02  0.15087582940E+03  0.19958897577E+03  0.12509000000E+03 0.  0.
         25    1    4    4    0    0  0.83003704815E+02 -0.10895492116E+02  0.26548435957E+03  0.30518482931E+03  0.12509000000E+03 0.  0.
<mgrwt>
<rscale>  2 0.45260988E+03</rscale>
<asrwt>0</asrwt>
<pdfrwt beam="1">  1       21 0.10940987E+00 0.45260988E+03</pdfrwt>
<pdfrwt beam="2">  1       21 0.10123105E-01 0.45260988E+03</pdfrwt>
<totfact> 0.48045562E+04</totfact>
</mgrwt>
</event>
<event>
 7    0  0.4748297E-002  0.4517918E+03  0.7546771E-02  0.1027189E+00
         21   -1    0    0  502  501  0.00000000000E+00  0.00000000000E+00  0.47166914732E+02  0.47166914732E+02  0.00000000000E+00 0.  1.
         21   -1    0    0  501  502 -0.00000000000E+00 -0.00000000000E+00 -0.10818804523E+04  0.10818804523E+04  0.00000000000E+00 0.  1.
      99926    2    1    2    0    0  0.88817841970E-15 -0.35527136788E-14 -0.10347135376E+04  0.11290473670E+04  0.45179182393E+03 0.  0.
      99925    2    3    3    0    0  0.51224659469E+01  0.74722645408E+01 -0.37744016605E+03  0.45991519220E+03  0.26263821251E+03 0.  0.
         25    1    4    4    0    0  0.10269406492E+02 -0.32186703192E+02 -0.21503451263E+03  0.25105536101E+03  0.12509000000E+03 0.  0.
         25    1    3    3    0    0 -0.51224659469E+01 -0.74722645408E+01 -0.65727337150E+03  0.66913217482E+03  0.12509000000E+03 0.  0.
         25    1    4    4    0    0 -0.51469405452E+01  0.39658967733E+02 -0.16240565342E+03  0.20885983118E+03  0.12509000000E+03 0.  0.
<mgrwt>
<rscale>  2 0.45179182E+03</rscale>
<asrwt>0</asrwt>
<pdfrwt beam="1">  1       21 0.69363108E-02 0.45179182E+03</pdfrwt>
<pdfrwt beam="2">  1       21 0.15910007E+00 0.45179182E+03</pdfrwt>
<totfact> 0.35365901E+04</totfact>
</mgrwt>
</event>
<event>
 7    0  0.4748297E-002  0.4687842E+03  0.7546771E-02  0.1022264E+00
         21   -1    0    0  502  501  0.00000000000E+00  0.00000000000E+00  0.11335008469E+03  0.11335008469E+03  0.00000000000E+00 0. -1.
         21   -1    0    0  501  502 -0.00000000000E+00 -0.00000000000E+00 -0.48469001661E+03  0.48469001661E+03  0.00000000000E+00 0. -1.
      99926    2    1    2    0    0 -0.35527136788E-14  0.14210854715E-13 -0.37133993192E+03  0.59804010130E+03  0.46878419099E+03 0.  0.
      99925    2    3    3    0    0 -0.31459458485E+02  0.10769708167E+03 -0.16078947962E+03  0.32865680562E+03  0.26376823197E+03 0.  0.
         25    1    4    4    0    0  0.13218561502E+02  0.72931197808E+02 -0.55508426488E+02  0.15563541850E+03  0.12509000000E+03 0.  0.
         25    1    3    3    0    0  0.31459458485E+02 -0.10769708167E+03 -0.21055045230E+03  0.26938329568E+03  0.12509000000E+03 0.  0.
         25    1    4    4    0    0 -0.44678019988E+02  0.34765883862E+02 -0.10528105313E+03  0.17302138712E+03  0.12509000000E+03 0.  0.
<mgrwt>
<rscale>  2 0.46878419E+03</rscale>
<asrwt>0</asrwt>
<pdfrwt beam="1">  1       21 0.16669130E-01 0.46878419E+03</pdfrwt>
<pdfrwt beam="2">  1       21 0.71277944E-01 0.46878419E+03</pdfrwt>
<totfact> 0.52807562E+04</totfact>
</mgrwt>
</event>
<event>
 7    0  0.4748297E-002  0.4420412E+03  0.7546771E-02  0.1030122E+00
         21   -1    0    0  502  501  0.00000000000E+00  0.00000000000E+00  0.96497201957E+02  0.96497201957E+02  0.00000000000E+00 0. -1.
         21   -1    0    0  501  502 -0.00000000000E+00 -0.00000000000E+00 -0.50623338982E+03  0.50623338982E+03  0.00000000000E+00 0. -1.
      99926    2    1    2    0    0  0.71054273576E-14  0.00000000000E+00 -0.40973618787E+03  0.60273059178E+03  0.44204120014E+03 0.  0.
      99925    2    3    3    0    0 -0.34864892048E+02 -0.74601755000E+02 -0.33989615223E+03  0.43748495273E+03  0.26283589371E+03 0.  0.
         25    1    3    3    0    0  0.34864892048E+02  0.74601755000E+02 -0.69840035639E+02  0.16524563905E+03  0.12509000000E+03 0.  0.
         25    1    4    4    0    0 -0.46010015070E+01 -0.63611775517E+02 -0.13191007150E+03  0.19265358097E+03  0.12509000000E+03 0.  0.
         25    1    4    4    0    0 -0.30263890541E+02 -0.10989979483E+02 -0.20798608073E+03  0.24483137176E+03  0.12509000000E+03 0.  0.
<mgrwt>
<rscale>  2 0.44204120E+03</rscale>
<asrwt>0</asrwt>
<pdfrwt beam="1">  1       21 0.14190765E-01 0.44204120E+03</pdfrwt>
<pdfrwt beam="2">  1       21 0.74446086E-01 0.44204120E+03</pdfrwt>
<totfact> 0.64904278E+04</totfact>
</mgrwt>
</event>
<event>
 7    0  0.4748297E-002  0.4574654E+03  0.7546771E-02  0.1025519E+00
         21   -1    0    0  502  501  0.00000000000E+00  0.00000000000E+00  0.89551994485E+02  0.89551994485E+02  0.00000000000E+00 0. -1.
         21   -1    0    0  501  502 -0.00000000000E+00 -0.00000000000E+00 -0.58422637516E+03  0.58422637516E+03  0.00000000000E+00 0. -1.
      99926    2    1    2    0    0  0.00000000000E+00  0.00000000000E+00 -0.49467438068E+03  0.67377836965E+03  0.45746535225E+03 0.  0.
      99925    2    3    3    0    0  0.34792835996E+02 -0.10312675599E+03 -0.36705041436E+03  0.46453914264E+03  0.26310632666E+03 0.  0.
         25    1    3    3    0    0 -0.34792835996E+02  0.10312675599E+03 -0.12762396632E+03  0.20923922700E+03  0.12509000000E+03 0.  0.
         25    1    4    4    0    0  0.25018140544E+02 -0.24002533956E+02 -0.22142307009E+03  0.25666654060E+03  0.12509000000E+03 0.  0.
         25    1    4    4    0    0  0.97746954525E+01 -0.79124222037E+02 -0.14562734427E+03  0.20787260205E+03  0.12509000000E+03 0.  0.
<mgrwt>
<rscale>  2 0.45746535E+03</rscale>
<asrwt>0</asrwt>
<pdfrwt beam="1">  1       21 0.13169412E-01 0.45746535E+03</pdfrwt>
<pdfrwt beam="2">  1       21 0.85915639E-01 0.45746535E+03</pdfrwt>
<totfact> 0.53306736E+04</totfact>
</mgrwt>
</event>
<event>
 7    0  0.4748297E-002  0.4550870E+03  0.7546771E-02  0.1026216E+00
         21   -1    0    0  502  501  0.00000000000E+00  0.00000000000E+00  0.79988011379E+03  0.79988011379E+03  0.00000000000E+00 0. -1.
         21   -1    0    0  501  502 -0.00000000000E+00 -0.00000000000E+00 -0.64729768134E+02  0.64729768134E+02  0.00000000000E+00 0. -1.
      99926    2    1    2    0    0  0.71054273576E-14  0.00000000000E+00  0.73515034566E+03  0.86460988193E+03  0.45508704354E+03 0.  0.
      99925    2    3    3    0    0 -0.52503278004E+02  0.45151190630E+02  0.29318904237E+03  0.40009666799E+03  0.26329129297E+03 0.  0.
         25    1    4    4    0    0 -0.30204715311E+01  0.82037702199E+01  0.93104006297E+02  0.15618030984E+03  0.12509000000E+03 0.  0.
         25    1    3    3    0    0  0.52503278004E+02 -0.45151190630E+02  0.44196130329E+03  0.46451321393E+03  0.12509000000E+03 0.  0.
         25    1    4    4    0    0 -0.49482806473E+02  0.36947420410E+02  0.20008503608E+03  0.24391635815E+03  0.12509000000E+03 0.  0.
<mgrwt>
<rscale>  2 0.45508704E+03</rscale>
<asrwt>0</asrwt>
<pdfrwt beam="1">  1       21 0.11762942E+00 0.45508704E+03</pdfrwt>
<pdfrwt beam="2">  1       21 0.95190840E-02 0.45508704E+03</pdfrwt>
<totfact> 0.44762091E+04</totfact>
</mgrwt>
</event>
<event>
 7    0  0.4748297E-002  0.4527758E+03  0.7546771E-02  0.1026897E+00
         21   -1    0    0  502  501  0.00000000000E+00  0.00000000000E+00  0.13316444961E+03  0.13316444961E+03  0.00000000000E+00 0.  1.
         21   -1    0    0  501  502 -0.00000000000E+00 -0.00000000000E+00 -0.38487365216E+03  0.38487365216E+03  0.00000000000E+00 0.  1.
      99926    2    1    2    0    0  0.00000000000E+00  0.00000000000E+00 -0.25170920255E+03  0.51803810177E+03  0.45277583001E+03 0.  0.
      99925    2    3    3    0    0  0.23942307476E+02  0.10113774510E+03 -0.20345432665E+03  0.34839695488E+03  0.26302984158E+03 0.  0.
         25    1    4    4    0    0 -0.71711584444E+01  0.58249275152E+02 -0.59430220273E+02  0.15041230917E+03  0.12509000000E+03 0.  0.
         25    1    3    3    0    0 -0.23942307476E+02 -0.10113774510E+03 -0.48254875897E+02  0.16964114689E+03  0.12509000000E+03 0.  0.
         25    1    4    4    0    0  0.31113465921E+02  0.42888469949E+02 -0.14402410638E+03  0.19798464570E+03  0.12509000000E+03 0.  0.
<mgrwt>
<rscale>  2 0.45277583E+03</rscale>
<asrwt>0</asrwt>
<pdfrwt beam="1">  1       21 0.19583008E-01 0.45277583E+03</pdfrwt>
<pdfrwt beam="2">  1       21 0.56599065E-01 0.45277583E+03</pdfrwt>
<totfact> 0.65163467E+04</totfact>
</mgrwt>
</event>
<event>
 7    0  0.4748297E-002  0.4544036E+03  0.7546771E-02  0.1026417E+00
         21   -1    0    0  502  501  0.00000000000E+00  0.00000000000E+00  0.20460784048E+03  0.20460784048E+03  0.00000000000E+00 0. -1.
         21   -1    0    0  501  502 -0.00000000000E+00 -0.00000000000E+00 -0.25229073092E+03  0.25229073092E+03  0.00000000000E+00 0. -1.
      99926    2    1    2    0    0  0.00000000000E+00  0.00000000000E+00 -0.47682890445E+02  0.45689857140E+03  0.45440361630E+03 0.  0.
      99925    2    3    3    0    0 -0.58178138522E+02 -0.59699445601E+02 -0.10618120479E+03  0.29559674101E+03  0.26297198603E+03 0.  0.
         25    1    3    3    0    0  0.58178138522E+02  0.59699445601E+02  0.58498314342E+02  0.16130183039E+03  0.12509000000E+03 0.  0.
         25    1    4    4    0    0 -0.33103324950E+02 -0.11000067233E+02 -0.13509379438E+02  0.13056355937E+03  0.12509000000E+03 0.  0.
         25    1    4    4    0    0 -0.25074813572E+02 -0.48699378368E+02 -0.92671825349E+02  0.16503318164E+03  0.12509000000E+03 0.  0.
<mgrwt>
<rscale>  2 0.45440362E+03</rscale>
<asrwt>0</asrwt>
<pdfrwt beam="1">  1       21 0.30089389E-01 0.45440362E+03</pdfrwt>
<pdfrwt beam="2">  1       21 0.37101578E-01 0.45440362E+03</pdfrwt>
<totfact> 0.68733369E+04</totfact>
</mgrwt>
</event>
<event>
 7    0  0.4748297E-002  0.4529905E+03  0.7546771E-02  0.1026834E+00
         21   -1    0    0  502  501  0.00000000000E+00  0.00000000000E+00  0.91140068762E+03  0.91140068762E+03  0.00000000000E+00 0. -1.
         21   -1    0    0  501  502 -0.00000000000E+00 -0.00000000000E+00 -0.56287097747E+02  0.56287097747E+02  0.00000000000E+00 0. -1.
      99926    2    1    2    0    0  0.00000000000E+00  0.00000000000E+00  0.85511358987E+03  0.96768778536E+03  0.45299050582E+03 0.  0.
      99925    2    3    3    0    0 -0.62695522069E+02 -0.71654312326E+02  0.41613499575E+03  0.50141020370E+03  0.26301860909E+03 0.  0.
         25    1    3    3    0    0  0.62695522069E+02  0.71654312326E+02  0.43897859413E+03  0.46627758166E+03  0.12509000000E+03 0.  0.
         25    1    4    4    0    0 -0.32769610212E+02 -0.18306440654E+02  0.26786254304E+03  0.29800473685E+03  0.12509000000E+03 0.  0.
         25    1    4    4    0    0 -0.29925911856E+02 -0.53347871672E+02  0.14827245271E+03  0.20340546685E+03  0.12509000000E+03 0.  0.
<mgrwt>
<rscale>  2 0.45299051E+03</rscale>
<asrwt>0</asrwt>
<pdfrwt beam="1">  1       21 0.13402950E+00 0.45299051E+03</pdfrwt>
<pdfrwt beam="2">  1       21 0.82775149E-02 0.45299051E+03</pdfrwt>
<totfact> 0.41074293E+04</totfact>
</mgrwt>
</event>
<event>
 7    0  0.4748297E-002  0.4581273E+03  0.7546771E-02  0.1025326E+00
         21   -1    0    0  502  501  0.00000000000E+00  0.00000000000E+00  0.23323514428E+03  0.23323514428E+03  0.00000000000E+00 0.  1.
         21   -1    0    0  501  502 -0.00000000000E+00 -0.00000000000E+00 -0.22496673263E+03  0.22496673263E+03  0.00000000000E+00 0.  1.
      99926    2    1    2    0    0  0.00000000000E+00  0.00000000000E+00  0.82684116420E+01  0.45820187691E+03  0.45812726766E+03 0.  0.
      99925    2    3    3    0    0  0.81987212242E+02 -0.59294703062E+02  0.62857331541E+02  0.28830419282E+03  0.26254618391E+03 0.  0.
         25    1    3    3    0    0 -0.81987212242E+02  0.59294703062E+02 -0.54588919899E+02  0.16989768409E+03  0.12509000000E+03 0.  0.
         25    1    4    4    0    0  0.39391665635E+02 -0.42077664833E+02 -0.68740743125E+01  0.13790211817E+03  0.12509000000E+03 0.  0.
         25    1    4    4    0    0  0.42595546607E+02 -0.17217038228E+02  0.69731405853E+02  0.15040207465E+03  0.12509000000E+03 0.  0.
<mgrwt>
<rscale>  2 0.45812727E+03</rscale>
<asrwt>0</asrwt>
<pdfrwt beam="1">  1       21 0.34299286E-01 0.45812727E+03</pdfrwt>
<pdfrwt beam="2">  1       21 0.33083343E-01 0.45812727E+03</pdfrwt>
<totfact> 0.66633613E+04</totfact>
</mgrwt>
</event>
<event>
 7    0  0.4748297E-002  0.4545686E+03  0.7546771E-02  0.1026368E+00
         21   -1    0    0  502  501  0.00000000000E+00  0.00000000000E+00  0.13778787640E+03  0.13778787640E+03  0.00000000000E+00 0. -1.
         21   -1    0    0  501  502 -0.00000000000E+00 -0.00000000000E+00 -0.37491076531E+03  0.37491076531E+03  0.00000000000E+00 0. -1.
      99926    2    1    2    0    0  0.00000000000E+00 -0.14210854715E-13 -0.23712288891E+03  0.51269864172E+03  0.45456862273E+03 0.  0.
      99925    2    3    3    0    0  0.36718461426E+02 -0.10586855826E+03 -0.15597746014E+03  0.32618192464E+03  0.26364613187E+03 0.  0.
         25    1    3    3    0    0 -0.36718461426E+02  0.10586855826E+03 -0.81145428766E+02  0.18651671707E+03  0.12509000000E+03 0.  0.
         25    1    4    4    0    0  0.24691702666E+02 -0.94692488947E+02 -0.10332659150E+03  0.18947358722E+03  0.12509000000E+03 0.  0.
         25    1    4    4    0    0  0.12026758760E+02 -0.11176069318E+02 -0.52650868649E+02  0.13670833742E+03  0.12509000000E+03 0.  0.
<mgrwt>
<rscale>  2 0.45456862E+03</rscale>
<asrwt>0</asrwt>
<pdfrwt beam="1">  1       21 0.20262923E-01 0.45456862E+03</pdfrwt>
<pdfrwt beam="2">  1       21 0.55133935E-01 0.45456862E+03</pdfrwt>
<totfact> 0.64608324E+04</totfact>
</mgrwt>
</event>
<event>
 7    0  0.4748297E-002  0.4654895E+03  0.7546771E-02  0.1023201E+00
         21   -1    0    0  502  501  0.00000000000E+00  0.00000000000E+00  0.47253467122E+02  0.47253467122E+02  0.00000000000E+00 0.  1.
         21   -1    0    0  501  502 -0.00000000000E+00 -0.00000000000E+00 -0.11463733263E+04  0.11463733263E+04  0.00000000000E+00 0.  1.
      99926    2    1    2    0    0  0.71054273576E-14  0.00000000000E+00 -0.10991198592E+04  0.11936267934E+04  0.46548948123E+03 0.  0.
      99925    2    3    3    0    0  0.56109778987E+02  0.10893611260E+03 -0.69625362863E+03  0.75435001081E+03  0.26317188205E+03 0.  0.
         25    1    3    3    0    0 -0.56109778987E+02 -0.10893611260E+03 -0.40286623057E+03  0.43927678263E+03  0.12509000000E+03 0.  0.
         25    1    4    4    0    0  0.49141179645E+02  0.18356402644E+02 -0.31784695992E+03  0.34558068679E+03  0.12509000000E+03 0.  0.
         25    1    4    4    0    0  0.69685993421E+01  0.90579709958E+02 -0.37840666872E+03  0.40876932402E+03  0.12509000000E+03 0.  0.
<mgrwt>
<rscale>  2 0.46548948E+03</rscale>
<asrwt>0</asrwt>
<pdfrwt beam="1">  1       21 0.69490397E-02 0.46548948E+03</pdfrwt>
<pdfrwt beam="2">  1       21 0.16858430E+00 0.46548948E+03</pdfrwt>
<totfact> 0.29844170E+04</totfact>
</mgrwt>
</event>
<event>
 7    0  0.4748297E-002  0.4670431E+03  0.7546771E-02  0.1022758E+00
         21   -1    0    0  502  501  0.00000000000E+00  0.00000000000E+00  0.14289510414E+03  0.14289510414E+03  0.00000000000E+00 0.  1.
         21   -1    0    0  501  502 -0.00000000000E+00 -0.00000000000E+00 -0.38162482633E+03  0.38162482633E+03  0.00000000000E+00 0.  1.
      99926    2    1    2    0    0 -0.17763568394E-14  0.00000000000E+00 -0.23872972219E+03  0.52451993046E+03  0.46704312134E+03 0.  0.
      99925    2    3    3    0    0 -0.93394407869E+01  0.24136398848E+02 -0.28495328098E+03  0.38867473772E+03  0.26305871683E+03 0.  0.
         25    1    3    3    0    0  0.93394407869E+01 -0.24136398848E+02  0.46223558784E+02  0.13584519274E+03  0.12509000000E+03 0.  0.
         25    1    4    4    0    0  0.39714789372E+01 -0.27823461426E+02 -0.13612305836E+03  0.18699441908E+03  0.12509000000E+03 0.  0.
         25    1    4    4    0    0 -0.13310919724E+02  0.51959860274E+02 -0.14883022262E+03  0.20168031865E+03  0.12509000000E+03 0.  0.
<mgrwt>
<rscale>  2 0.46704312E+03</rscale>
<asrwt>0</asrwt>
<pdfrwt beam="1">  1       21 0.21013986E-01 0.46704312E+03</pdfrwt>
<pdfrwt beam="2">  1       21 0.56121298E-01 0.46704312E+03</pdfrwt>
<totfact> 0.57851483E+04</totfact>
</mgrwt>
</event>
<event>
 7    0  0.4748297E-002  0.4612703E+03  0.7546771E-02  0.1024413E+00
         21   -1    0    0  502  501  0.00000000000E+00  0.00000000000E+00  0.53725215740E+03  0.53725215740E+03  0.00000000000E+00 0. -1.
         21   -1    0    0  501  502 -0.00000000000E+00 -0.00000000000E+00 -0.99008591677E+02  0.99008591677E+02  0.00000000000E+00 0. -1.
      99926    2    1    2    0    0  0.35527136788E-14  0.00000000000E+00  0.43824356573E+03  0.63626074908E+03  0.46127033063E+03 0.  0.
      99925    2    3    3    0    0 -0.28309056777E+02  0.68358475299E+02  0.40273963904E+03  0.48665352749E+03  0.26297938156E+03 0.  0.
         25    1    4    4    0    0 -0.51958800816E+02  0.44816689560E+02  0.23237097432E+03  0.27267568732E+03  0.12509000000E+03 0.  0.
         25    1    4    4    0    0  0.23649744039E+02  0.23541785740E+02  0.17036866472E+03  0.21397784018E+03  0.12509000000E+03 0.  0.
         25    1    3    3    0    0  0.28309056777E+02 -0.68358475299E+02  0.35503926682E+02  0.14960722159E+03  0.12509000000E+03 0.  0.
<mgrwt>
<rscale>  2 0.46127033E+03</rscale>
<asrwt>0</asrwt>
<pdfrwt beam="1">  1       21 0.79007669E-01 0.46127033E+03</pdfrwt>
<pdfrwt beam="2">  1       21 0.14560087E-01 0.46127033E+03</pdfrwt>
<totfact> 0.53788167E+04</totfact>
</mgrwt>
</event>
<event>
 7    0  0.4748297E-002  0.4556371E+03  0.7546771E-02  0.1026054E+00
         21   -1    0    0  502  501  0.00000000000E+00  0.00000000000E+00  0.34919178634E+02  0.34919178634E+02  0.00000000000E+00 0.  1.
         21   -1    0    0  501  502 -0.00000000000E+00 -0.00000000000E+00 -0.14863261413E+04  0.14863261413E+04  0.00000000000E+00 0.  1.
      99926    2    1    2    0    0  0.71054273576E-14 -0.14210854715E-13 -0.14514069627E+04  0.15212453200E+04  0.45563708382E+03 0.  0.
      99925    2    3    3    0    0 -0.58447600335E+02  0.87731189725E+02 -0.76678455419E+03  0.81735027526E+03  0.26265954444E+03 0.  0.
         25    1    4    4    0    0 -0.10158856391E+02  0.28980453688E+02 -0.45548603875E+03  0.47334776714E+03  0.12509000000E+03 0.  0.
         25    1    4    4    0    0 -0.48288743944E+02  0.58750736037E+02 -0.31129851544E+03  0.34400250812E+03  0.12509000000E+03 0.  0.
         25    1    3    3    0    0  0.58447600335E+02 -0.87731189725E+02 -0.68462240852E+03  0.70389504472E+03  0.12509000000E+03 0.  0.
<mgrwt>
<rscale>  2 0.45563708E+03</rscale>
<asrwt>0</asrwt>
<pdfrwt beam="1">  1       21 0.51351739E-02 0.45563708E+03</pdfrwt>
<pdfrwt beam="2">  1       21 0.21857735E+00 0.45563708E+03</pdfrwt>
<totfact> 0.23148449E+04</totfact>
</mgrwt>
</event>
<event>
 7    0  0.4748297E-002  0.4584353E+03  0.7546771E-02  0.1025236E+00
         21   -1    0    0  502  501  0.00000000000E+00  0.00000000000E+00  0.48928051711E+03  0.48928051711E+03  0.00000000000E+00 0.  1.
         21   -1    0    0  501  502 -0.00000000000E+00 -0.00000000000E+00 -0.10738363903E+03  0.10738363903E+03  0.00000000000E+00 0.  1.
      99926    2    1    2    0    0  0.00000000000E+00  0.00000000000E+00  0.38189687808E+03  0.59666415613E+03  0.45843526231E+03 0.  0.
      99925    2    3    3    0    0 -0.85306043715E+02  0.68736802992E+02  0.18844436186E+03  0.34156955934E+03  0.26297645745E+03 0.  0.
         25    1    4    4    0    0 -0.16507212099E+02  0.79156037998E+01  0.11054410724E+03  0.16793645400E+03  0.12509000000E+03 0.  0.
         25    1    4    4    0    0 -0.68798831616E+02  0.60821199192E+02  0.77900254617E+02  0.17363310535E+03  0.12509000000E+03 0.  0.
         25    1    3    3    0    0  0.85306043715E+02 -0.68736802992E+02  0.19345251622E+03  0.25509459679E+03  0.12509000000E+03 0.  0.
<mgrwt>
<rscale>  2 0.45843526E+03</rscale>
<asrwt>0</asrwt>
<pdfrwt beam="1">  1       21 0.71953016E-01 0.45843526E+03</pdfrwt>
<pdfrwt beam="2">  1       21 0.15791712E-01 0.45843526E+03</pdfrwt>
<totfact> 0.57312353E+04</totfact>
</mgrwt>
</event>
<event>
 7    0  0.4748297E-002  0.4579437E+03  0.7546771E-02  0.1025379E+00
         21   -1    0    0  502  501  0.00000000000E+00  0.00000000000E+00  0.10909862122E+03  0.10909862122E+03  0.00000000000E+00 0.  1.
         21   -1    0    0  501  502 -0.00000000000E+00 -0.00000000000E+00 -0.48055698598E+03  0.48055698598E+03  0.00000000000E+00 0.  1.
      99926    2    1    2    0    0  0.00000000000E+00  0.17763568394E-14 -0.37145836475E+03  0.58965560720E+03  0.45794368470E+03 0.  0.
      99925    2    3    3    0    0 -0.56746243722E+02  0.13291656782E+02 -0.36209009395E+03  0.45133685607E+03  0.26305687064E+03 0.  0.
         25    1    4    4    0    0 -0.20168751690E+02  0.10634655038E+02 -0.11258540385E+03  0.16983184534E+03  0.12509000000E+03 0.  0.
         25    1    4    4    0    0 -0.36577492032E+02  0.26570017432E+01 -0.24950469010E+03  0.28150501073E+03  0.12509000000E+03 0.  0.
         25    1    3    3    0    0  0.56746243722E+02 -0.13291656782E+02 -0.93682708034E+01  0.13831875113E+03  0.12509000000E+03 0.  0.
<mgrwt>
<rscale>  2 0.45794368E+03</rscale>
<asrwt>0</asrwt>
<pdfrwt beam="1">  1       21 0.16043915E-01 0.45794368E+03</pdfrwt>
<pdfrwt beam="2">  1       21 0.70670144E-01 0.45794368E+03</pdfrwt>
<totfact> 0.57959256E+04</totfact>
</mgrwt>
</event>
<event>
 7    0  0.4748297E-002  0.4539312E+03  0.7546771E-02  0.1026556E+00
         21   -1    0    0  502  501  0.00000000000E+00  0.00000000000E+00  0.98662846197E+03  0.98662846197E+03  0.00000000000E+00 0.  1.
         21   -1    0    0  501  502 -0.00000000000E+00 -0.00000000000E+00 -0.52211523471E+02  0.52211523471E+02  0.00000000000E+00 0.  1.
      99926    2    1    2    0    0 -0.14210854715E-13  0.17763568394E-14  0.93441693850E+03  0.10388399854E+04  0.45393116262E+03 0.  0.
      99925    2    3    3    0    0  0.11135585660E+03 -0.12333476692E+02  0.57443881933E+03  0.64161964882E+03  0.26295165934E+03 0.  0.
         25    1    3    3    0    0 -0.11135585660E+03  0.12333476692E+02  0.35997811917E+03  0.39722033662E+03  0.12509000000E+03 0.  0.
         25    1    4    4    0    0  0.65310589371E+02 -0.27900872058E+02  0.22235660938E+03  0.26482806041E+03  0.12509000000E+03 0.  0.
         25    1    4    4    0    0  0.46045267225E+02  0.15567395366E+02  0.35208220995E+03  0.37679158841E+03  0.12509000000E+03 0.  0.
<mgrwt>
<rscale>  2 0.45393116E+03</rscale>
<asrwt>0</asrwt>
<pdfrwt beam="1">  1       21 0.14509241E+00 0.45393116E+03</pdfrwt>
<pdfrwt beam="2">  1       21 0.76781659E-02 0.45393116E+03</pdfrwt>
<totfact> 0.38005686E+04</totfact>
</mgrwt>
</event>
<event>
 7    0  0.4748297E-002  0.4566451E+03  0.7546771E-02  0.1025759E+00
         21   -1    0    0  502  501  0.00000000000E+00  0.00000000000E+00  0.50509947766E+02  0.50509947766E+02  0.00000000000E+00 0. -1.
         21   -1    0    0  501  502 -0.00000000000E+00 -0.00000000000E+00 -0.10320973493E+04  0.10320973493E+04  0.00000000000E+00 0. -1.
      99926    2    1    2    0    0  0.00000000000E+00 -0.71054273576E-14 -0.98158740158E+03  0.10826072971E+04  0.45664508409E+03 0.  0.
      99925    2    3    3    0    0 -0.94997383787E+02  0.59506931282E+02 -0.66939497408E+03  0.72809749797E+03  0.26357305901E+03 0.  0.
         25    1    4    4    0    0 -0.62827866392E+02  0.70601935983E+02 -0.36864745505E+03  0.40060008534E+03  0.12509000000E+03 0.  0.
         25    1    4    4    0    0 -0.32169517395E+02 -0.11095004700E+02 -0.30074751903E+03  0.32749741264E+03  0.12509000000E+03 0.  0.
         25    1    3    3    0    0  0.94997383787E+02 -0.59506931282E+02 -0.31219242750E+03  0.35450979914E+03  0.12509000000E+03 0.  0.
<mgrwt>
<rscale>  2 0.45664508E+03</rscale>
<asrwt>0</asrwt>
<pdfrwt beam="1">  1       21 0.74279340E-02 0.45664508E+03</pdfrwt>
<pdfrwt beam="2">  1       21 0.15177901E+00 0.45664508E+03</pdfrwt>
<totfact> 0.35643473E+04</totfact>
</mgrwt>
</event>
<event>
 7    0  0.4748297E-002  0.4535539E+03  0.7546771E-02  0.1026668E+00
         21   -1    0    0  502  501  0.00000000000E+00  0.00000000000E+00  0.93612327308E+03  0.93612327308E+03  0.00000000000E+00 0.  1.
         21   -1    0    0  501  502 -0.00000000000E+00 -0.00000000000E+00 -0.54936976054E+02  0.54936976054E+02  0.00000000000E+00 0.  1.
      99926    2    1    2    0    0 -0.71054273576E-14 -0.11102230246E-15  0.88118629703E+03  0.99106024914E+03  0.45355388582E+03 0.  0.
      99925    2    3    3    0    0  0.63188487358E+02 -0.82422806869E+00  0.35442142489E+03  0.44597107945E+03  0.26321510785E+03 0.  0.
         25    1    4    4    0    0  0.15948250524E+02 -0.54239819293E+01  0.11044582266E+03  0.16771867552E+03  0.12509000000E+03 0.  0.
         25    1    4    4    0    0  0.47240236835E+02  0.45997538606E+01  0.24397560223E+03  0.27825240393E+03  0.12509000000E+03 0.  0.
         25    1    3    3    0    0 -0.63188487358E+02  0.82422806869E+00  0.52676487214E+03  0.54508916968E+03  0.12509000000E+03 0.  0.
<mgrwt>
<rscale>  2 0.45355389E+03</rscale>
<asrwt>0</asrwt>
<pdfrwt beam="1">  1       21 0.13766518E+00 0.45355389E+03</pdfrwt>
<pdfrwt beam="2">  1       21 0.80789677E-02 0.45355389E+03</pdfrwt>
<totfact> 0.39965795E+04</totfact>
</mgrwt>
</event>
<event>
 7    0  0.4748297E-002  0.4563931E+03  0.7546771E-02  0.1025833E+00
         21   -1    0    0  502  501  0.00000000000E+00  0.00000000000E+00  0.40053269267E+02  0.40053269267E+02  0.00000000000E+00 0.  1.
         21   -1    0    0  501  502 -0.00000000000E+00 -0.00000000000E+00 -0.13001104749E+04  0.13001104749E+04  0.00000000000E+00 0.  1.
      99926    2    1    2    0    0  0.00000000000E+00  0.00000000000E+00 -0.12600572056E+04  0.13401637442E+04  0.45639314162E+03 0.  0.
      99925    2    3    3    0    0 -0.34547824516E+02  0.29330423948E+02 -0.48337311455E+03  0.55216659228E+03  0.26302956452E+03 0.  0.
         25    1    4    4    0    0 -0.62384384869E+01  0.25662053993E+02 -0.16371699236E+03  0.20772149821E+03  0.12509000000E+03 0.  0.
         25    1    3    3    0    0  0.34547824516E+02 -0.29330423948E+02 -0.77668409109E+03  0.78799715190E+03  0.12509000000E+03 0.  0.
         25    1    4    4    0    0 -0.28309386029E+02  0.36683699547E+01 -0.31965612219E+03  0.34444509407E+03  0.12509000000E+03 0.  0.
<mgrwt>
<rscale>  2 0.45639314E+03</rscale>
<asrwt>0</asrwt>
<pdfrwt beam="1">  1       21 0.58901880E-02 0.45639314E+03</pdfrwt>
<pdfrwt beam="2">  1       21 0.19119267E+00 0.45639314E+03</pdfrwt>
<totfact> 0.27669341E+04</totfact>
</mgrwt>
</event>
<event>
 7    0  0.4748297E-002  0.4742776E+03  0.7546771E-02  0.1020720E+00
         21   -1    0    0  502  501  0.00000000000E+00  0.00000000000E+00  0.16750835303E+03  0.16750835303E+03  0.00000000000E+00 0. -1.
         21   -1    0    0  501  502 -0.00000000000E+00 -0.00000000000E+00 -0.33571340701E+03  0.33571340701E+03  0.00000000000E+00 0. -1.
      99926    2    1    2    0    0  0.00000000000E+00 -0.14210854715E-13 -0.16820505397E+03  0.50322176004E+03  0.47427755544E+03 0.  0.
      99925    2    3    3    0    0  0.43486702588E+02  0.10875041654E+03 -0.43143785949E+02  0.29107658508E+03  0.26295711764E+03 0.  0.
         25    1    4    4    0    0  0.55421994026E+02  0.75044072029E+02 -0.77109800218E+01  0.15623756745E+03  0.12509000000E+03 0.  0.
         25    1    4    4    0    0 -0.11935291438E+02  0.33706344506E+02 -0.35432805928E+02  0.13483901764E+03  0.12509000000E+03 0.  0.
         25    1    3    3    0    0 -0.43486702588E+02 -0.10875041654E+03 -0.12506126802E+03  0.21214517496E+03  0.12509000000E+03 0.  0.
<mgrwt>
<rscale>  2 0.47427756E+03</rscale>
<asrwt>0</asrwt>
<pdfrwt beam="1">  1       21 0.24633582E-01 0.47427756E+03</pdfrwt>
<pdfrwt beam="2">  1       21 0.49369618E-01 0.47427756E+03</pdfrwt>
<totfact> 0.55975667E+04</totfact>
</mgrwt>
</event>
<event>
 7    0  0.4748297E-002  0.4327566E+03  0.7546771E-02  0.1032993E+00
         21   -1    0    0  502  501  0.00000000000E+00  0.00000000000E+00  0.75424383520E+02  0.75424383520E+02  0.00000000000E+00 0.  1.
         21   -1    0    0  501  502 -0.00000000000E+00 -0.00000000000E+00 -0.62074837404E+03  0.62074837404E+03  0.00000000000E+00 0.  1.
      99926    2    1    2    0    0  0.35527136788E-14  0.00000000000E+00 -0.54532399052E+03  0.69617275756E+03  0.43275657561E+03 0.  0.
      99925    2    3    3    0    0  0.18609874083E+02 -0.82497322425E+02 -0.29201942152E+03  0.40127811807E+03  0.26190962159E+03 0.  0.
         25    1    4    4    0    0  0.40941552285E+02 -0.29145723069E+02 -0.17195959177E+03  0.21850238712E+03  0.12509000000E+03 0.  0.
         25    1    4    4    0    0 -0.22331678202E+02 -0.53351599357E+02 -0.12005982975E+03  0.18277573095E+03  0.12509000000E+03 0.  0.
         25    1    3    3    0    0 -0.18609874083E+02  0.82497322425E+02 -0.25330456900E+03  0.29489463948E+03  0.12509000000E+03 0.  0.
<mgrwt>
<rscale>  2 0.43275658E+03</rscale>
<asrwt>0</asrwt>
<pdfrwt beam="1">  1       21 0.11091821E-01 0.43275658E+03</pdfrwt>
<pdfrwt beam="2">  1       21 0.91286524E-01 0.43275658E+03</pdfrwt>
<totfact> 0.63522618E+04</totfact>
</mgrwt>
</event>
<event>
 7    0  0.4748297E-002  0.4679950E+03  0.7546771E-02  0.1022488E+00
         21   -1    0    0  502  501  0.00000000000E+00  0.00000000000E+00  0.19503258150E+03  0.19503258150E+03  0.00000000000E+00 0.  1.
         21   -1    0    0  501  502 -0.00000000000E+00 -0.00000000000E+00 -0.28074714687E+03  0.28074714687E+03  0.00000000000E+00 0.  1.
      99926    2    1    2    0    0  0.00000000000E+00  0.17763568394E-14 -0.85714565376E+02  0.47577972837E+03  0.46799504614E+03 0.  0.
      99925    2    3    3    0    0  0.81888996458E+02  0.95725872525E+01 -0.14901319946E+03  0.31314004273E+03  0.26278186882E+03 0.  0.
         25    1    4    4    0    0  0.17491343182E+01  0.19078824014E+02 -0.68421713914E+02  0.14386139173E+03  0.12509000000E+03 0.  0.
         25    1    4    4    0    0  0.80139862140E+02 -0.95062367620E+01 -0.80591485549E+02  0.16927865100E+03  0.12509000000E+03 0.  0.
         25    1    3    3    0    0 -0.81888996458E+02 -0.95725872525E+01  0.63298634087E+02  0.16263968564E+03  0.12509000000E+03 0.  0.
<mgrwt>
<rscale>  2 0.46799505E+03</rscale>
<asrwt>0</asrwt>
<pdfrwt beam="1">  1       21 0.28681262E-01 0.46799505E+03</pdfrwt>
<pdfrwt beam="2">  1       21 0.41286345E-01 0.46799505E+03</pdfrwt>
<totfact> 0.60519800E+04</totfact>
</mgrwt>
</event>
<event>
 7    0  0.4748297E-002  0.4478044E+03  0.7546771E-02  0.1028379E+00
         21   -1    0    0  502  501  0.00000000000E+00  0.00000000000E+00  0.14216121504E+04  0.14216121504E+04  0.00000000000E+00 0. -1.
         21   -1    0    0  501  502 -0.00000000000E+00 -0.00000000000E+00 -0.35264322295E+02  0.35264322295E+02  0.00000000000E+00 0. -1.
      99926    2    1    2    0    0  0.00000000000E+00  0.00000000000E+00  0.13863478281E+04  0.14568764727E+04  0.44780437269E+03 0.  0.
      99925    2    3    3    0    0  0.87975888769E+02 -0.28866573087E+02  0.70930242515E+03  0.76217436258E+03  0.26310984891E+03 0.  0.
         25    1    3    3    0    0 -0.87975888769E+02  0.28866573087E+02  0.67704540293E+03  0.69470211010E+03  0.12509000000E+03 0.  0.
         25    1    4    4    0    0  0.36967001659E+02 -0.43579645312E+02  0.43207218449E+03  0.45343094889E+03  0.12509000000E+03 0.  0.
         25    1    4    4    0    0  0.51008887110E+02  0.14713072225E+02  0.27723024066E+03  0.30874341369E+03  0.12509000000E+03 0.  0.
<mgrwt>
<rscale>  2 0.44780437E+03</rscale>
<asrwt>0</asrwt>
<pdfrwt beam="1">  1       21 0.20906057E+00 0.44780437E+03</pdfrwt>
<pdfrwt beam="2">  1       21 0.51859307E-02 0.44780437E+03</pdfrwt>
<totfact> 0.26294488E+04</totfact>
</mgrwt>
</event>
<event>
 7    0  0.4748297E-002  0.4617137E+03  0.7546771E-02  0.1024285E+00
         21   -1    0    0  502  501  0.00000000000E+00  0.00000000000E+00  0.45471812209E+02  0.45471812209E+02  0.00000000000E+00 0. -1.
         21   -1    0    0  501  502 -0.00000000000E+00 -0.00000000000E+00 -0.11720422248E+04  0.11720422248E+04  0.00000000000E+00 0. -1.
      99926    2    1    2    0    0  0.14210854715E-13  0.00000000000E+00 -0.11265704126E+04  0.12175140370E+04  0.46171369461E+03 0.  0.
      99925    2    3    3    0    0  0.11380159371E+03 -0.35816159810E+02 -0.71894707053E+03  0.77475236622E+03  0.26291203604E+03 0.  0.
         25    1    4    4    0    0  0.97839964016E+02 -0.34119814880E+02 -0.39160419353E+03  0.42395539013E+03  0.12509000000E+03 0.  0.
         25    1    4    4    0    0  0.15961629694E+02 -0.16963449294E+01 -0.32734287700E+03  0.35079697609E+03  0.12509000000E+03 0.  0.
         25    1    3    3    0    0 -0.11380159371E+03  0.35816159810E+02 -0.40762334205E+03  0.44276167079E+03  0.12509000000E+03 0.  0.
<mgrwt>
<rscale>  2 0.46171369E+03</rscale>
<asrwt>0</asrwt>
<pdfrwt beam="1">  1       21 0.66870309E-02 0.46171369E+03</pdfrwt>
<pdfrwt beam="2">  1       21 0.17235916E+00 0.46171369E+03</pdfrwt>
<totfact> 0.30005721E+04</totfact>
</mgrwt>
</event>
<event>
 7    0  0.4748297E-002  0.4541184E+03  0.7546771E-02  0.1026501E+00
         21   -1    0    0  502  501  0.00000000000E+00  0.00000000000E+00  0.51003776490E+03  0.51003776490E+03  0.00000000000E+00 0. -1.
         21   -1    0    0  501  502 -0.00000000000E+00 -0.00000000000E+00 -0.10108248408E+03  0.10108248408E+03  0.00000000000E+00 0. -1.
      99926    2    1    2    0    0  0.00000000000E+00  0.00000000000E+00  0.40895528082E+03  0.61112024898E+03  0.45411841738E+03 0.  0.
      99925    2    3    3    0    0 -0.10478863937E+03 -0.30560069252E+02  0.22214368432E+03  0.36119894645E+03  0.26306327310E+03 0.  0.
         25    1    4    4    0    0 -0.17949396733E+02  0.89731270116E+01  0.85751813957E+02  0.15298228508E+03  0.12509000000E+03 0.  0.
         25    1    3    3    0    0  0.10478863937E+03  0.30560069252E+02  0.18681159650E+03  0.24992130254E+03  0.12509000000E+03 0.  0.
         25    1    4    4    0    0 -0.86839242638E+02 -0.39533196263E+02  0.13639187036E+03  0.20821666137E+03  0.12509000000E+03 0.  0.
<mgrwt>
<rscale>  2 0.45411842E+03</rscale>
<asrwt>0</asrwt>
<pdfrwt beam="1">  1       21 0.75005553E-01 0.45411842E+03</pdfrwt>
<pdfrwt beam="2">  1       21 0.14865071E-01 0.45411842E+03</pdfrwt>
<totfact> 0.58404585E+04</totfact>
</mgrwt>
</event>
<event>
 7    0  0.4748297E-002  0.4538019E+03  0.7546771E-02  0.1026594E+00
         21   -1    0    0  502  501  0.00000000000E+00  0.00000000000E+00  0.33068293022E+04  0.33068293022E+04  0.00000000000E+00 0.  1.
         21   -1    0    0  501  502 -0.00000000000E+00 -0.00000000000E+00 -0.15569001995E+02  0.15569001995E+02  0.00000000000E+00 0.  1.
      99926    2    1    2    0    0  0.00000000000E+00  0.00000000000E+00  0.32912603002E+04  0.33223983042E+04  0.45380185985E+03 0.  0.
      99925    2    3    3    0    0  0.51838517313E+02 -0.15092081601E+02  0.13565158036E+04  0.13828625922E+04  0.26317070643E+03 0.  0.
         25    1    4    4    0    0  0.26796791519E+02 -0.25750233263E+02  0.49609971816E+03  0.51297522456E+03  0.12509000000E+03 0.  0.
         25    1    4    4    0    0  0.25041725794E+02  0.10658151662E+02  0.86041608540E+03  0.86988736762E+03  0.12509000000E+03 0.  0.
         25    1    3    3    0    0 -0.51838517313E+02  0.15092081601E+02  0.19347444966E+04  0.19395357120E+04  0.12509000000E+03 0.  0.
<mgrwt>
<rscale>  2 0.45380186E+03</rscale>
<asrwt>0</asrwt>
<pdfrwt beam="1">  1       21 0.48629794E+00 0.45380186E+03</pdfrwt>
<pdfrwt beam="2">  1       21 0.22895614E-02 0.45380186E+03</pdfrwt>
<totfact> 0.18333908E+03</totfact>
</mgrwt>
</event>
<event>
 7    0  0.4748297E-002  0.4564384E+03  0.7546771E-02  0.1025819E+00
         21   -1    0    0  502  501  0.00000000000E+00  0.00000000000E+00  0.17790867408E+03  0.17790867408E+03  0.00000000000E+00 0.  1.
         21   -1    0    0  501  502 -0.00000000000E+00 -0.00000000000E+00 -0.29275700544E+03  0.29275700544E+03  0.00000000000E+00 0.  1.
      99926    2    1    2    0    0  0.14210854715E-13  0.00000000000E+00 -0.11484833135E+03  0.47066567952E+03  0.45643843250E+03 0.  0.
      99925    2    3    3    0    0 -0.68123050662E+02 -0.83905909955E+02 -0.33228014131E+02  0.28630099732E+03  0.26302701076E+03 0.  0.
         25    1    4    4    0    0 -0.71245758541E+01 -0.34705987178E+02  0.15323307999E+02  0.13091056869E+03  0.12509000000E+03 0.  0.
         25    1    4    4    0    0 -0.60998474808E+02 -0.49199922778E+02 -0.48551322130E+02  0.15539042863E+03  0.12509000000E+03 0.  0.
         25    1    3    3    0    0  0.68123050662E+02  0.83905909955E+02 -0.81620317222E+02  0.18436468219E+03  0.12509000000E+03 0.  0.
<mgrwt>
<rscale>  2 0.45643843E+03</rscale>
<asrwt>0</asrwt>
<pdfrwt beam="1">  1       21 0.26163040E-01 0.45643843E+03</pdfrwt>
<pdfrwt beam="2">  1       21 0.43052501E-01 0.45643843E+03</pdfrwt>
<totfact> 0.66622773E+04</totfact>
</mgrwt>
</event>
<event>
 7    0  0.4748297E-002  0.4539383E+03  0.7546771E-02  0.1026554E+00
         21   -1    0    0  502  501  0.00000000000E+00  0.00000000000E+00  0.74378383069E+02  0.74378383069E+02  0.00000000000E+00 0. -1.
         21   -1    0    0  501  502 -0.00000000000E+00 -0.00000000000E+00 -0.69260719751E+03  0.69260719751E+03  0.00000000000E+00 0. -1.
      99926    2    1    2    0    0  0.00000000000E+00  0.14210854715E-13 -0.61822881444E+03  0.76698558058E+03  0.45393833701E+03 0.  0.
      99925    2    3    3    0    0  0.55611263958E+02 -0.70004095536E+02 -0.50394713386E+03  0.57541053866E+03  0.26294750084E+03 0.  0.
         25    1    4    4    0    0  0.49201611754E+02 -0.70793036459E+02 -0.25804374013E+03  0.29944370511E+03  0.12509000000E+03 0.  0.
         25    1    4    4    0    0  0.64096522048E+01  0.78894092352E+00 -0.24590339373E+03  0.27596683355E+03  0.12509000000E+03 0.  0.
         25    1    3    3    0    0 -0.55611263958E+02  0.70004095536E+02 -0.11428168058E+03  0.19157504192E+03  0.12509000000E+03 0.  0.
<mgrwt>
<rscale>  2 0.45393834E+03</rscale>
<asrwt>0</asrwt>
<pdfrwt beam="1">  1       21 0.10937997E-01 0.45393834E+03</pdfrwt>
<pdfrwt beam="2">  1       21 0.10185400E+00 0.45393834E+03</pdfrwt>
<totfact> 0.49816907E+04</totfact>
</mgrwt>
</event>
<event>
 7    0  0.4748297E-002  0.4525800E+03  0.7546771E-02  0.1026955E+00
         21   -1    0    0  502  501  0.00000000000E+00  0.00000000000E+00  0.48346279400E+03  0.48346279400E+03  0.00000000000E+00 0.  1.
         21   -1    0    0  501  502 -0.00000000000E+00 -0.00000000000E+00 -0.10591750790E+03  0.10591750790E+03  0.00000000000E+00 0.  1.
      99926    2    1    2    0    0  0.00000000000E+00  0.00000000000E+00  0.37754528611E+03  0.58938030190E+03  0.45258004508E+03 0.  0.
      99925    2    3    3    0    0 -0.10962451876E+03 -0.16603848816E+02  0.23340713541E+03  0.36866207090E+03  0.26294411717E+03 0.  0.
         25    1    4    4    0    0 -0.24047328688E+02 -0.25277865597E+02  0.78383886490E+02  0.15168647358E+03  0.12509000000E+03 0.  0.
         25    1    4    4    0    0 -0.85577190069E+02  0.86740167812E+01  0.15502324892E+03  0.21697559732E+03  0.12509000000E+03 0.  0.
         25    1    3    3    0    0  0.10962451876E+03  0.16603848816E+02  0.14413815069E+03  0.22071823100E+03  0.12509000000E+03 0.  0.
<mgrwt>
<rscale>  2 0.45258005E+03</rscale>
<asrwt>0</asrwt>
<pdfrwt beam="1">  1       21 0.71097469E-01 0.45258005E+03</pdfrwt>
<pdfrwt beam="2">  1       21 0.15576104E-01 0.45258005E+03</pdfrwt>
<totfact> 0.60485330E+04</totfact>
</mgrwt>
</event>
<event>
 7    0  0.4748297E-002  0.4560350E+03  0.7546771E-02  0.1025937E+00
         21   -1    0    0  502  501  0.00000000000E+00  0.00000000000E+00  0.22610177330E+04  0.22610177330E+04  0.00000000000E+00 0.  1.
         21   -1    0    0  501  502 -0.00000000000E+00 -0.00000000000E+00 -0.22994949175E+02  0.22994949175E+02  0.00000000000E+00 0.  1.
      99926    2    1    2    0    0 -0.35527136788E-14  0.00000000000E+00  0.22380227838E+04  0.22840126822E+04  0.45603503310E+03 0.  0.
      99925    2    3    3    0    0  0.21620870994E+02 -0.11014200131E+03  0.13005455637E+04  0.13315895782E+04  0.26289412158E+03 0.  0.
         25    1    4    4    0    0 -0.23840660839E+02 -0.54256956795E+02  0.73442051099E+03  0.74735078079E+03  0.12509000000E+03 0.  0.
         25    1    4    4    0    0  0.45461531833E+02 -0.55885044511E+02  0.56612505268E+03  0.58423879745E+03  0.12509000000E+03 0.  0.
         25    1    3    3    0    0 -0.21620870994E+02  0.11014200131E+03  0.93747722014E+03  0.95242310392E+03  0.12509000000E+03 0.  0.
<mgrwt>
<rscale>  2 0.45603503E+03</rscale>
<asrwt>0</asrwt>
<pdfrwt beam="1">  1       21 0.33250245E+00 0.45603503E+03</pdfrwt>
<pdfrwt beam="2">  1       21 0.33816117E-02 0.45603503E+03</pdfrwt>
<totfact> 0.95253886E+03</totfact>
</mgrwt>
</event>
<event>
 7    0  0.4748297E-002  0.4511899E+03  0.7546771E-02  0.1027368E+00
         21   -1    0    0  502  501  0.00000000000E+00  0.00000000000E+00  0.11596729939E+04  0.11596729939E+04  0.00000000000E+00 0. -1.
         21   -1    0    0  501  502 -0.00000000000E+00 -0.00000000000E+00 -0.43885708647E+02  0.43885708647E+02  0.00000000000E+00 0. -1.
      99926    2    1    2    0    0  0.00000000000E+00  0.00000000000E+00  0.11157872852E+04  0.12035587025E+04  0.45118985421E+03 0.  0.
      99925    2    3    3    0    0 -0.66031362670E+02 -0.52940970311E+02  0.51931042209E+03  0.58825792766E+03  0.26306118635E+03 0.  0.
         25    1    3    3    0    0  0.66031362670E+02  0.52940970311E+02  0.59647686316E+03  0.61530077488E+03  0.12509000000E+03 0.  0.
         25    1    4    4    0    0 -0.21634149069E+02 -0.58838996588E+02  0.31320640964E+03  0.34303910428E+03  0.12509000000E+03 0.  0.
         25    1    4    4    0    0 -0.44397213601E+02  0.58980262765E+01  0.20610401245E+03  0.24521882338E+03  0.12509000000E+03 0.  0.
<mgrwt>
<rscale>  2 0.45118985E+03</rscale>
<asrwt>0</asrwt>
<pdfrwt beam="1">  1       21 0.17054013E+00 0.45118985E+03</pdfrwt>
<pdfrwt beam="2">  1       21 0.64537814E-02 0.45118985E+03</pdfrwt>
<totfact> 0.33012330E+04</totfact>
</mgrwt>
</event>
<event>
 7    0  0.4748297E-002  0.4497522E+03  0.7546771E-02  0.1027796E+00
         21   -1    0    0  502  501  0.00000000000E+00  0.00000000000E+00  0.98034304249E+03  0.98034304249E+03  0.00000000000E+00 0.  1.
         21   -1    0    0  501  502 -0.00000000000E+00 -0.00000000000E+00 -0.51583219908E+02  0.51583219908E+02  0.00000000000E+00 0.  1.
      99926    2    1    2    0    0  0.00000000000E+00  0.00000000000E+00  0.92875982258E+03  0.10319262624E+04  0.44975215729E+03 0.  0.
      99925    2    3    3    0    0 -0.10076099615E+03 -0.38707716983E+02  0.56866369100E+03  0.63573464489E+03  0.26292409468E+03 0.  0.
         25    1    4    4    0    0 -0.89121926034E+02 -0.16990992552E+02  0.35043517590E+03  0.38299312283E+03  0.12509000000E+03 0.  0.
         25    1    4    4    0    0 -0.11639070113E+02 -0.21716724431E+02  0.21822851510E+03  0.25274152207E+03  0.12509000000E+03 0.  0.
         25    1    3    3    0    0  0.10076099615E+03  0.38707716983E+02  0.36009613159E+03  0.39619161751E+03  0.12509000000E+03 0.  0.
<mgrwt>
<rscale>  2 0.44975216E+03</rscale>
<asrwt>0</asrwt>
<pdfrwt beam="1">  1       21 0.14416808E+00 0.44975216E+03</pdfrwt>
<pdfrwt beam="2">  1       21 0.75857683E-02 0.44975216E+03</pdfrwt>
<totfact> 0.39542992E+04</totfact>
</mgrwt>
</event>
<event>
 7    0  0.4748297E-002  0.4441158E+03  0.7546771E-02  0.1029491E+00
         21   -1    0    0  502  501  0.00000000000E+00  0.00000000000E+00  0.21359238933E+03  0.21359238933E+03  0.00000000000E+00 0.  1.
         21   -1    0    0  501  502 -0.00000000000E+00 -0.00000000000E+00 -0.23085890755E+03  0.23085890755E+03  0.00000000000E+00 0.  1.
      99926    2    1    2    0    0  0.00000000000E+00  0.00000000000E+00 -0.17266518217E+02  0.44445129688E+03  0.44411577618E+03 0.  0.
      99925    2    3    3    0    0  0.95138819190E+02 -0.25548088233E+02 -0.39415486559E+02  0.28369625146E+03  0.26310811995E+03 0.  0.
         25    1    3    3    0    0 -0.95138819190E+02  0.25548088233E+02  0.22148968342E+02  0.16075504542E+03  0.12509000000E+03 0.  0.
         25    1    4    4    0    0  0.75827306686E+02  0.68317371645E+01  0.25934106095E+01  0.14646053035E+03  0.12509000000E+03 0.  0.
         25    1    4    4    0    0  0.19311512504E+02 -0.32379825398E+02 -0.42008897169E+02  0.13723572111E+03  0.12509000000E+03 0.  0.
<mgrwt>
<rscale>  2 0.44411578E+03</rscale>
<asrwt>0</asrwt>
<pdfrwt beam="1">  1       21 0.31410646E-01 0.44411578E+03</pdfrwt>
<pdfrwt beam="2">  1       21 0.33949839E-01 0.44411578E+03</pdfrwt>
<totfact> 0.75688198E+04</totfact>
</mgrwt>
</event>
<event>
 7    0  0.4748297E-002  0.4550186E+03  0.7546771E-02  0.1026236E+00
         21   -1    0    0  502  501  0.00000000000E+00  0.00000000000E+00  0.15739459937E+03  0.15739459937E+03  0.00000000000E+00 0. -1.
         21   -1    0    0  501  502 -0.00000000000E+00 -0.00000000000E+00 -0.32885811194E+03  0.32885811194E+03  0.00000000000E+00 0. -1.
      99926    2    1    2    0    0  0.00000000000E+00 -0.14210854715E-13 -0.17146351258E+03  0.48625271131E+03  0.45501864040E+03 0.  0.
      99925    2    3    3    0    0 -0.66233167092E+02 -0.85614086535E+02 -0.72499238851E+02  0.29348850351E+03  0.26298813247E+03 0.  0.
         25    1    3    3    0    0  0.66233167092E+02  0.85614086535E+02 -0.98964273724E+02  0.19276420780E+03  0.12509000000E+03 0.  0.
         25    1    4    4    0    0 -0.41122845555E+02 -0.46975700272E+02 -0.77954021288E+02  0.16006917997E+03  0.12509000000E+03 0.  0.
         25    1    4    4    0    0 -0.25110321538E+02 -0.38638386264E+02  0.54547824364E+01  0.13341932353E+03  0.12509000000E+03 0.  0.
<mgrwt>
<rscale>  2 0.45501864E+03</rscale>
<asrwt>0</asrwt>
<pdfrwt beam="1">  1       21 0.23146265E-01 0.45501864E+03</pdfrwt>
<pdfrwt beam="2">  1       21 0.48361487E-01 0.45501864E+03</pdfrwt>
<totfact> 0.66237890E+04</totfact>
</mgrwt>
</event>
<event>
 7    0  0.4748297E-002  0.4554926E+03  0.7546771E-02  0.1026097E+00
         21   -1    0    0  502  501  0.00000000000E+00  0.00000000000E+00  0.55552800245E+03  0.55552800245E+03  0.00000000000E+00 0.  1.
         21   -1    0    0  501  502 -0.00000000000E+00 -0.00000000000E+00 -0.93367718892E+02  0.93367718892E+02  0.00000000000E+00 0.  1.
      99926    2    1    2    0    0  0.00000000000E+00  0.35527136788E-14  0.46216028356E+03  0.64889572134E+03  0.45549262286E+03 0.  0.
      99925    2    3    3    0    0 -0.11154166321E+03 -0.21642322569E+02  0.27341326831E+03  0.39555232470E+03  0.26229161925E+03 0.  0.
         25    1    4    4    0    0 -0.98140790301E+02 -0.65599905829E+01  0.15368883947E+03  0.22122932824E+03  0.12509000000E+03 0.  0.
         25    1    3    3    0    0  0.11154166321E+03  0.21642322569E+02  0.18874701525E+03  0.25334339664E+03  0.12509000000E+03 0.  0.
         25    1    4    4    0    0 -0.13400872907E+02 -0.15082331986E+02  0.11972442884E+03  0.17432299646E+03  0.12509000000E+03 0.  0.
<mgrwt>
<rscale>  2 0.45549262E+03</rscale>
<asrwt>0</asrwt>
<pdfrwt beam="1">  1       21 0.81695293E-01 0.45549262E+03</pdfrwt>
<pdfrwt beam="2">  1       21 0.13730547E-01 0.45549262E+03</pdfrwt>
<totfact> 0.55548950E+04</totfact>
</mgrwt>
</event>
<event>
 7    0  0.4748297E-002  0.4412166E+03  0.7546771E-02  0.1030374E+00
         21   -1    0    0  502  501  0.00000000000E+00  0.00000000000E+00  0.24065756204E+04  0.24065756204E+04  0.00000000000E+00 0. -1.
         21   -1    0    0  501  502 -0.00000000000E+00 -0.00000000000E+00 -0.20222931791E+02  0.20222931791E+02  0.00000000000E+00 0. -1.
      99926    2    1    2    0    0  0.00000000000E+00 -0.71054273576E-14  0.23863526886E+04  0.24267985522E+04  0.44121656642E+03 0.  0.
      99925    2    3    3    0    0 -0.67308636159E+02 -0.58747189776E+02  0.12773770809E+04  0.13072200193E+04  0.26296442180E+03 0.  0.
         25    1    4    4    0    0 -0.64719445707E+02 -0.39967245648E+02  0.80438367724E+03  0.81759806487E+03  0.12509000000E+03 0.  0.
         25    1    3    3    0    0  0.67308636159E+02  0.58747189776E+02  0.11089756077E+04  0.11195785329E+04  0.12509000000E+03 0.  0.
         25    1    4    4    0    0 -0.25891904524E+01 -0.18779944128E+02  0.47299340367E+03  0.48962195439E+03  0.12509000000E+03 0.  0.
<mgrwt>
<rscale>  2 0.44121657E+03</rscale>
<asrwt>0</asrwt>
<pdfrwt beam="1">  1       21 0.35390798E+00 0.44121657E+03</pdfrwt>
<pdfrwt beam="2">  1       21 0.29739622E-02 0.44121657E+03</pdfrwt>
<totfact> 0.88175840E+03</totfact>
</mgrwt>
</event>
<event>
 7    0  0.4748297E-002  0.4537305E+03  0.7546771E-02  0.1026615E+00
         21   -1    0    0  502  501  0.00000000000E+00  0.00000000000E+00  0.78123778273E+02  0.78123778273E+02  0.00000000000E+00 0. -1.
         21   -1    0    0  501  502 -0.00000000000E+00 -0.00000000000E+00 -0.65879877240E+03  0.65879877240E+03  0.00000000000E+00 0. -1.
      99926    2    1    2    0    0  0.00000000000E+00  0.00000000000E+00 -0.58067499413E+03  0.73692255067E+03  0.45373053334E+03 0.  0.
      99925    2    3    3    0    0  0.98128601109E+02 -0.52332926718E+02 -0.34600063130E+03  0.44867348781E+03  0.26310359980E+03 0.  0.
         25    1    3    3    0    0 -0.98128601109E+02  0.52332926718E+02 -0.23467436283E+03  0.28824906286E+03  0.12509000000E+03 0.  0.
         25    1    4    4    0    0  0.61349691244E+02  0.12165889620E+02 -0.15896141518E+03  0.21172631650E+03  0.12509000000E+03 0.  0.
         25    1    4    4    0    0  0.36778909864E+02 -0.64498816338E+02 -0.18703921613E+03  0.23694717130E+03  0.12509000000E+03 0.  0.
<mgrwt>
<rscale>  2 0.45373053E+03</rscale>
<asrwt>0</asrwt>
<pdfrwt beam="1">  1       21 0.11488790E-01 0.45373053E+03</pdfrwt>
<pdfrwt beam="2">  1       21 0.96882176E-01 0.45373053E+03</pdfrwt>
<totfact> 0.51455376E+04</totfact>
</mgrwt>
</event>
<event>
 7    0  0.4748297E-002  0.4535874E+03  0.7546771E-02  0.1026658E+00
         21   -1    0    0  502  501  0.00000000000E+00  0.00000000000E+00  0.63609318213E+02  0.63609318213E+02  0.00000000000E+00 0. -1.
         21   -1    0    0  501  502 -0.00000000000E+00 -0.00000000000E+00 -0.80861387036E+03  0.80861387036E+03  0.00000000000E+00 0. -1.
      99926    2    1    2    0    0 -0.35527136788E-14  0.00000000000E+00 -0.74500455215E+03  0.87222318857E+03  0.45358737633E+03 0.  0.
      99925    2    3    3    0    0 -0.21285381734E+02  0.67714009583E+02 -0.63550939942E+03  0.69146104890E+03  0.26307400256E+03 0.  0.
         25    1    3    3    0    0  0.21285381734E+02 -0.67714009583E+02 -0.10949515273E+03  0.18076213968E+03  0.12509000000E+03 0.  0.
         25    1    4    4    0    0 -0.30687525987E+02  0.33801343397E+02 -0.23147289567E+03  0.26704206522E+03  0.12509000000E+03 0.  0.
         25    1    4    4    0    0  0.94021442522E+01  0.33912666186E+02 -0.40403650375E+03  0.42441898368E+03  0.12509000000E+03 0.  0.
<mgrwt>
<rscale>  2 0.45358738E+03</rscale>
<asrwt>0</asrwt>
<pdfrwt beam="1">  1       21 0.93543117E-02 0.45358738E+03</pdfrwt>
<pdfrwt beam="2">  1       21 0.11891380E+00 0.45358738E+03</pdfrwt>
<totfact> 0.44951808E+04</totfact>
</mgrwt>
</event>
<event>
 7    0  0.4748297E-002  0.4343058E+03  0.7546771E-02  0.1032508E+00
         21   -1    0    0  502  501  0.00000000000E+00  0.00000000000E+00  0.81215214817E+03  0.81215214817E+03  0.00000000000E+00 0.  1.
         21   -1    0    0  501  502 -0.00000000000E+00 -0.00000000000E+00 -0.58062256250E+02  0.58062256250E+02  0.00000000000E+00 0.  1.
      99926    2    1    2    0    0 -0.22204460493E-14 -0.14210854715E-13  0.75408989192E+03  0.87021440442E+03  0.43430581917E+03 0.  0.
      99925    2    3    3    0    0  0.18212051763E+01 -0.81810199907E+02  0.39927553448E+03  0.48519886974E+03  0.26325038493E+03 0.  0.
         25    1    3    3    0    0 -0.18212051763E+01  0.81810199907E+02  0.35481435745E+03  0.38501553468E+03  0.12509000000E+03 0.  0.
         25    1    4    4    0    0  0.30506239880E+02 -0.64638851401E+02  0.18010378499E+03  0.23063757987E+03  0.12509000000E+03 0.  0.
         25    1    4    4    0    0 -0.28685034703E+02 -0.17171348506E+02  0.21917174949E+03  0.25456128987E+03  0.12509000000E+03 0.  0.
<mgrwt>
<rscale>  2 0.43430582E+03</rscale>
<asrwt>0</asrwt>
<pdfrwt beam="1">  1       21 0.11943413E+00 0.43430582E+03</pdfrwt>
<pdfrwt beam="2">  1       21 0.85385676E-02 0.43430582E+03</pdfrwt>
<totfact> 0.52560834E+04</totfact>
</mgrwt>
</event>
<event>
 7    0  0.4748297E-002  0.4795527E+03  0.7546771E-02  0.1019258E+00
         21   -1    0    0  502  501  0.00000000000E+00  0.00000000000E+00  0.87390707082E+03  0.87390707082E+03  0.00000000000E+00 0. -1.
         21   -1    0    0  501  502 -0.00000000000E+00 -0.00000000000E+00 -0.65788112471E+02  0.65788112471E+02  0.00000000000E+00 0. -1.
      99926    2    1    2    0    0  0.00000000000E+00  0.00000000000E+00  0.80811895835E+03  0.93969518329E+03  0.47955269435E+03 0.  0.
      99925    2    3    3    0    0  0.75894715494E+02  0.46559113463E+02  0.69629734079E+03  0.74974955649E+03  0.26337549579E+03 0.  0.
         25    1    4    4    0    0  0.72596629453E+02  0.12153844776E+02  0.42292954402E+03  0.44714079870E+03  0.12509000000E+03 0.  0.
         25    1    3    3    0    0 -0.75894715494E+02 -0.46559113463E+02  0.11182161755E+03  0.18994562680E+03  0.12509000000E+03 0.  0.
         25    1    4    4    0    0  0.32980860412E+01  0.34405268687E+02  0.27336779677E+03  0.30260875780E+03  0.12509000000E+03 0.  0.
<mgrwt>
<rscale>  2 0.47955269E+03</rscale>
<asrwt>0</asrwt>
<pdfrwt beam="1">  1       21 0.12851574E+00 0.47955269E+03</pdfrwt>
<pdfrwt beam="2">  1       21 0.96747229E-02 0.47955269E+03</pdfrwt>
<totfact> 0.34450078E+04</totfact>
</mgrwt>
</event>
<event>
 7    0  0.4748297E-002  0.4568509E+03  0.7546771E-02  0.1025699E+00
         21   -1    0    0  502  501  0.00000000000E+00  0.00000000000E+00  0.37048662966E+03  0.37048662966E+03  0.00000000000E+00 0. -1.
         21   -1    0    0  501  502 -0.00000000000E+00 -0.00000000000E+00 -0.14083690828E+03  0.14083690828E+03  0.00000000000E+00 0. -1.
      99926    2    1    2    0    0  0.00000000000E+00  0.00000000000E+00  0.22964972138E+03  0.51132353793E+03  0.45685092307E+03 0.  0.
      99925    2    3    3    0    0 -0.15268967475E+02 -0.29854122676E+02  0.21132529310E+02  0.26586205929E+03  0.26289092941E+03 0.  0.
         25    1    4    4    0    0 -0.23859971553E+02  0.94019171157E+01  0.38412400388E+02  0.13334434706E+03  0.12509000000E+03 0.  0.
         25    1    4    4    0    0  0.85910040772E+01 -0.39256039792E+02 -0.17279871078E+02  0.13251771223E+03  0.12509000000E+03 0.  0.
         25    1    3    3    0    0  0.15268967475E+02  0.29854122676E+02  0.20851719207E+03  0.24546147864E+03  0.12509000000E+03 0.  0.
<mgrwt>
<rscale>  2 0.45685092E+03</rscale>
<asrwt>0</asrwt>
<pdfrwt beam="1">  1       21 0.54483328E-01 0.45685092E+03</pdfrwt>
<pdfrwt beam="2">  1       21 0.20711310E-01 0.45685092E+03</pdfrwt>
<totfact> 0.63543688E+04</totfact>
</mgrwt>
</event>
<event>
 7    0  0.4748297E-002  0.4538153E+03  0.7546771E-02  0.1026590E+00
         21   -1    0    0  502  501  0.00000000000E+00  0.00000000000E+00  0.15771589936E+03  0.15771589936E+03  0.00000000000E+00 0. -1.
         21   -1    0    0  501  502 -0.00000000000E+00 -0.00000000000E+00 -0.32645455166E+03  0.32645455166E+03  0.00000000000E+00 0. -1.
      99926    2    1    2    0    0  0.71054273576E-14  0.00000000000E+00 -0.16873865230E+03  0.48417045102E+03  0.45381526292E+03 0.  0.
      99925    2    3    3    0    0 -0.46733168557E+02 -0.16200428529E+02 -0.21343916092E+03  0.34242389375E+03  0.26315661623E+03 0.  0.
         25    1    3    3    0    0  0.46733168557E+02  0.16200428529E+02  0.44700508619E+02  0.14174655727E+03  0.12509000000E+03 0.  0.
         25    1    4    4    0    0 -0.55990526559E+02 -0.24877278742E+01 -0.14226498406E+03  0.19755495854E+03  0.12509000000E+03 0.  0.
         25    1    4    4    0    0  0.92573580022E+01 -0.13712700655E+02 -0.71174176857E+02  0.14486893521E+03  0.12509000000E+03 0.  0.
<mgrwt>
<rscale>  2 0.45381526E+03</rscale>
<asrwt>0</asrwt>
<pdfrwt beam="1">  1       21 0.23193514E-01 0.45381526E+03</pdfrwt>
<pdfrwt beam="2">  1       21 0.48008023E-01 0.45381526E+03</pdfrwt>
<totfact> 0.67025910E+04</totfact>
</mgrwt>
</event>
<event>
 7    0  0.4748297E-002  0.4528336E+03  0.7546771E-02  0.1026880E+00
         21   -1    0    0  502  501  0.00000000000E+00  0.00000000000E+00  0.37139905477E+03  0.37139905477E+03  0.00000000000E+00 0.  1.
         21   -1    0    0  501  502 -0.00000000000E+00 -0.00000000000E+00 -0.13803094688E+03  0.13803094688E+03  0.00000000000E+00 0.  1.
      99926    2    1    2    0    0  0.24424906542E-14  0.00000000000E+00  0.23336810789E+03  0.50943000165E+03  0.45283358179E+03 0.  0.
      99925    2    3    3    0    0 -0.17194022143E+01  0.85789276850E+02  0.67541131096E+02  0.28468825942E+03  0.26291223687E+03 0.  0.
         25    1    4    4    0    0  0.38408823494E+02  0.32852654326E+02  0.31636552862E+02  0.13857457990E+03  0.12509000000E+03 0.  0.
         25    1    4    4    0    0 -0.40128225709E+02  0.52936622524E+02  0.35904578235E+02  0.14611367951E+03  0.12509000000E+03 0.  0.
         25    1    3    3    0    0  0.17194022143E+01 -0.85789276850E+02  0.16582697680E+03  0.22474174223E+03  0.12509000000E+03 0.  0.
<mgrwt>
<rscale>  2 0.45283358E+03</rscale>
<asrwt>0</asrwt>
<pdfrwt beam="1">  1       21 0.54617508E-01 0.45283358E+03</pdfrwt>
<pdfrwt beam="2">  1       21 0.20298669E-01 0.45283358E+03</pdfrwt>
<totfact> 0.65736073E+04</totfact>
</mgrwt>
</event>
<event>
 7    0  0.4748297E-002  0.4512498E+03  0.7546771E-02  0.1027350E+00
         21   -1    0    0  502  501  0.00000000000E+00  0.00000000000E+00  0.28571870148E+03  0.28571870148E+03  0.00000000000E+00 0.  1.
         21   -1    0    0  501  502 -0.00000000000E+00 -0.00000000000E+00 -0.17817033544E+03  0.17817033544E+03  0.00000000000E+00 0.  1.
      99926    2    1    2    0    0  0.00000000000E+00  0.14210854715E-13  0.10754836604E+03  0.46388903692E+03  0.45124980614E+03 0.  0.
      99925    2    3    3    0    0 -0.27348728080E+02  0.78091270077E+02  0.14159544503E+03  0.31009400749E+03  0.26317831225E+03 0.  0.
         25    1    4    4    0    0 -0.35178108402E+02  0.47409398137E+01  0.77356597758E+02  0.15129946179E+03  0.12509000000E+03 0.  0.
         25    1    3    3    0    0  0.27348728080E+02 -0.78091270077E+02 -0.34047078989E+02  0.15379502943E+03  0.12509000000E+03 0.  0.
         25    1    4    4    0    0  0.78293803219E+01  0.73350330264E+02  0.64238847269E+02  0.15879454570E+03  0.12509000000E+03 0.  0.
<mgrwt>
<rscale>  2 0.45124981E+03</rscale>
<asrwt>0</asrwt>
<pdfrwt beam="1">  1       21 0.42017456E-01 0.45124981E+03</pdfrwt>
<pdfrwt beam="2">  1       21 0.26201520E-01 0.45124981E+03</pdfrwt>
<totfact> 0.69950934E+04</totfact>
</mgrwt>
</event>
<event>
 7    0  0.4748297E-002  0.4535425E+03  0.7546771E-02  0.1026671E+00
         21   -1    0    0  502  501  0.00000000000E+00  0.00000000000E+00  0.14237610609E+02  0.14237610609E+02  0.00000000000E+00 0.  1.
         21   -1    0    0  501  502 -0.00000000000E+00 -0.00000000000E+00 -0.36119259865E+04  0.36119259865E+04  0.00000000000E+00 0.  1.
      99926    2    1    2    0    0  0.14210854715E-13  0.00000000000E+00 -0.35976883759E+04  0.36261635971E+04  0.45354248200E+03 0.  0.
      99925    2    3    3    0    0  0.10826940587E+03  0.27605037706E+02 -0.23028552256E+04  0.23205125344E+04  0.26296754533E+03 0.  0.
         25    1    4    4    0    0  0.56131386181E+02  0.11439661670E+02 -0.14837009332E+04  0.14900662958E+04  0.12509000000E+03 0.  0.
         25    1    4    4    0    0  0.52138019685E+02  0.16165376036E+02 -0.81915429233E+03  0.83044623861E+03  0.12509000000E+03 0.  0.
         25    1    3    3    0    0 -0.10826940587E+03 -0.27605037706E+02 -0.12948331503E+04  0.13056510627E+04  0.12509000000E+03 0.  0.
<mgrwt>
<rscale>  2 0.45354248E+03</rscale>
<asrwt>0</asrwt>
<pdfrwt beam="1">  1       21 0.20937660E-02 0.45354248E+03</pdfrwt>
<pdfrwt beam="2">  1       21 0.53116566E+00 0.45354248E+03</pdfrwt>
<totfact> 0.10110127E+03</totfact>
</mgrwt>
</event>
<event>
 7    0  0.4748297E-002  0.4493206E+03  0.7546771E-02  0.1027925E+00
         21   -1    0    0  502  501  0.00000000000E+00  0.00000000000E+00  0.19485595725E+03  0.19485595725E+03  0.00000000000E+00 0. -1.
         21   -1    0    0  501  502 -0.00000000000E+00 -0.00000000000E+00 -0.25902337016E+03  0.25902337016E+03  0.00000000000E+00 0. -1.
      99926    2    1    2    0    0  0.00000000000E+00  0.00000000000E+00 -0.64167412905E+02  0.45387932741E+03  0.44932058374E+03 0.  0.
      99925    2    3    3    0    0 -0.80638716104E+02  0.19479490828E+02 -0.11007612367E+03  0.29691700416E+03  0.26298460270E+03 0.  0.
         25    1    4    4    0    0 -0.39960944925E+02 -0.18856631883E+02 -0.85197947010E+02  0.15766625498E+03  0.12509000000E+03 0.  0.
         25    1    3    3    0    0  0.80638716104E+02 -0.19479490828E+02  0.45908710761E+02  0.15696232326E+03  0.12509000000E+03 0.  0.
         25    1    4    4    0    0 -0.40677771179E+02  0.38336122711E+02 -0.24878176656E+02  0.13925074918E+03  0.12509000000E+03 0.  0.
<mgrwt>
<rscale>  2 0.44932058E+03</rscale>
<asrwt>0</asrwt>
<pdfrwt beam="1">  1       21 0.28655288E-01 0.44932058E+03</pdfrwt>
<pdfrwt beam="2">  1       21 0.38091672E-01 0.44932058E+03</pdfrwt>
<totfact> 0.71827429E+04</totfact>
</mgrwt>
</event>
<event>
 7    0  0.4748297E-002  0.4568133E+03  0.7546771E-02  0.1025710E+00
         21   -1    0    0  502  501  0.00000000000E+00  0.00000000000E+00  0.13080856758E+03  0.13080856758E+03  0.00000000000E+00 0.  1.
         21   -1    0    0  501  502 -0.00000000000E+00 -0.00000000000E+00 -0.39882409408E+03  0.39882409408E+03  0.00000000000E+00 0.  1.
      99926    2    1    2    0    0  0.00000000000E+00 -0.35527136788E-14 -0.26801552650E+03  0.52963266166E+03  0.45681334685E+03 0.  0.
      99925    2    3    3    0    0 -0.49655636883E+02 -0.27259351389E+02 -0.28410063883E+03  0.39137567829E+03  0.26315963608E+03 0.  0.
         25    1    4    4    0    0 -0.35798647470E+02 -0.16410073580E+01 -0.88459467916E+02  0.15734300629E+03  0.12509000000E+03 0.  0.
         25    1    3    3    0    0  0.49655636883E+02  0.27259351389E+02  0.16085112331E+02  0.13825698337E+03  0.12509000000E+03 0.  0.
         25    1    4    4    0    0 -0.13856989413E+02 -0.25618344031E+02 -0.19564117091E+03  0.23403267200E+03  0.12509000000E+03 0.  0.
<mgrwt>
<rscale>  2 0.45681335E+03</rscale>
<asrwt>0</asrwt>
<pdfrwt beam="1">  1       21 0.19236554E-01 0.45681335E+03</pdfrwt>
<pdfrwt beam="2">  1       21 0.58650603E-01 0.45681335E+03</pdfrwt>
<totfact> 0.62330689E+04</totfact>
</mgrwt>
</event>
<event>
 7    0  0.4748297E-002  0.4536995E+03  0.7546771E-02  0.1026625E+00
         21   -1    0    0  502  501  0.00000000000E+00  0.00000000000E+00  0.91358715090E+03  0.91358715090E+03  0.00000000000E+00 0. -1.
         21   -1    0    0  501  502 -0.00000000000E+00 -0.00000000000E+00 -0.56328300995E+02  0.56328300995E+02  0.00000000000E+00 0. -1.
      99926    2    1    2    0    0  0.00000000000E+00  0.00000000000E+00  0.85725884990E+03  0.96991545189E+03  0.45369951299E+03 0.  0.
      99925    2    3    3    0    0 -0.97095162182E+02  0.20694549097E+02  0.65111492048E+03  0.70915011175E+03  0.26284502362E+03 0.  0.
         25    1    4    4    0    0 -0.22879542855E+02  0.38953188942E+02  0.34494486661E+03  0.36969621788E+03  0.12509000000E+03 0.  0.
         25    1    4    4    0    0 -0.74215619327E+02 -0.18258639845E+02  0.30617005387E+03  0.33945389388E+03  0.12509000000E+03 0.  0.
         25    1    3    3    0    0  0.97095162182E+02 -0.20694549097E+02  0.20614392942E+03  0.26076534014E+03  0.12509000000E+03 0.  0.
<mgrwt>
<rscale>  2 0.45369951E+03</rscale>
<asrwt>0</asrwt>
<pdfrwt beam="1">  1       21 0.13435104E+00 0.45369951E+03</pdfrwt>
<pdfrwt beam="2">  1       21 0.82835743E-02 0.45369951E+03</pdfrwt>
<totfact> 0.40757549E+04</totfact>
</mgrwt>
</event>
<event>
 7    0  0.4748297E-002  0.4588711E+03  0.7546771E-02  0.1025109E+00
         21   -1    0    0  502  501  0.00000000000E+00  0.00000000000E+00  0.19490909329E+03  0.19490909329E+03  0.00000000000E+00 0. -1.
         21   -1    0    0  501  502 -0.00000000000E+00 -0.00000000000E+00 -0.27007803611E+03  0.27007803611E+03  0.00000000000E+00 0. -1.
      99926    2    1    2    0    0  0.00000000000E+00 -0.71054273576E-14 -0.75168942827E+02  0.46498712940E+03  0.45887107181E+03 0.  0.
      99925    2    3    3    0    0  0.98385225386E+02 -0.62080705272E+02 -0.37010709419E+02  0.28995220312E+03  0.26299965958E+03 0.  0.
         25    1    3    3    0    0 -0.98385225386E+02  0.62080705272E+02 -0.38158233408E+02  0.17503492628E+03  0.12509000000E+03 0.  0.
         25    1    4    4    0    0  0.41941072698E+02 -0.70013352444E+02 -0.87709284771E+01  0.14961737996E+03  0.12509000000E+03 0.  0.
         25    1    4    4    0    0  0.56444152688E+02  0.79326471719E+01 -0.28239780942E+02  0.14033482316E+03  0.12509000000E+03 0.  0.
<mgrwt>
<rscale>  2 0.45887107E+03</rscale>
<asrwt>0</asrwt>
<pdfrwt beam="1">  1       21 0.28663102E-01 0.45887107E+03</pdfrwt>
<pdfrwt beam="2">  1       21 0.39717358E-01 0.45887107E+03</pdfrwt>
<totfact> 0.65763898E+04</totfact>
</mgrwt>
</event>
<event>
 7    0  0.4748297E-002  0.4573371E+03  0.7546771E-02  0.1025556E+00
         21   -1    0    0  502  501  0.00000000000E+00  0.00000000000E+00  0.56088579702E+02  0.56088579702E+02  0.00000000000E+00 0.  1.
         21   -1    0    0  501  502 -0.00000000000E+00 -0.00000000000E+00 -0.93226305428E+03  0.93226305428E+03  0.00000000000E+00 0.  1.
      99926    2    1    2    0    0  0.00000000000E+00  0.00000000000E+00 -0.87617447457E+03  0.98835163398E+03  0.45733712127E+03 0.  0.
      99925    2    3    3    0    0 -0.89735698721E+02  0.76680243023E+01 -0.70536130141E+03  0.75827351149E+03  0.26331133374E+03 0.  0.
         25    1    3    3    0    0  0.89735698721E+02 -0.76680243023E+01 -0.17081317316E+03  0.23007812249E+03  0.12509000000E+03 0.  0.
         25    1    4    4    0    0 -0.11761272857E+02 -0.64364950885E+01 -0.25792491747E+03  0.28697130023E+03  0.12509000000E+03 0.  0.
         25    1    4    4    0    0 -0.77974425863E+02  0.14104519391E+02 -0.44743638395E+03  0.47130221126E+03  0.12509000000E+03 0.  0.
<mgrwt>
<rscale>  2 0.45733712E+03</rscale>
<asrwt>0</asrwt>
<pdfrwt beam="1">  1       21 0.82483206E-02 0.45733712E+03</pdfrwt>
<pdfrwt beam="2">  1       21 0.13709751E+00 0.45733712E+03</pdfrwt>
<totfact> 0.38907710E+04</totfact>
</mgrwt>
</event>
<event>
 7    0  0.4748297E-002  0.4536415E+03  0.7546771E-02  0.1026642E+00
         21   -1    0    0  502  501  0.00000000000E+00  0.00000000000E+00  0.27852063938E+03  0.27852063938E+03  0.00000000000E+00 0. -1.
         21   -1    0    0  501  502 -0.00000000000E+00 -0.00000000000E+00 -0.18471758274E+03  0.18471758274E+03  0.00000000000E+00 0. -1.
      99926    2    1    2    0    0  0.00000000000E+00 -0.35527136788E-14  0.93803056646E+02  0.46323822212E+03  0.45364152918E+03 0.  0.
      99925    2    3    3    0    0 -0.52010411171E+02 -0.25098374769E+02 -0.38791806889E+02  0.27202128453E+03  0.26297483466E+03 0.  0.
         25    1    4    4    0    0 -0.28272962135E+02  0.26898606041E+02 -0.28548768118E+02  0.13410978956E+03  0.12509000000E+03 0.  0.
         25    1    4    4    0    0 -0.23737449036E+02 -0.51996980810E+02 -0.10243038771E+02  0.13791149496E+03  0.12509000000E+03 0.  0.
         25    1    3    3    0    0  0.52010411171E+02  0.25098374769E+02  0.13259486353E+03  0.19121693759E+03  0.12509000000E+03 0.  0.
<mgrwt>
<rscale>  2 0.45364153E+03</rscale>
<asrwt>0</asrwt>
<pdfrwt beam="1">  1       21 0.40958917E-01 0.45364153E+03</pdfrwt>
<pdfrwt beam="2">  1       21 0.27164350E-01 0.45364153E+03</pdfrwt>
<totfact> 0.68679830E+04</totfact>
</mgrwt>
</event>
<event>
 7    0  0.4748297E-002  0.4526559E+03  0.7546771E-02  0.1026933E+00
         21   -1    0    0  502  501  0.00000000000E+00  0.00000000000E+00  0.12733135480E+03  0.12733135480E+03  0.00000000000E+00 0. -1.
         21   -1    0    0  501  502 -0.00000000000E+00 -0.00000000000E+00 -0.40229161620E+03  0.40229161620E+03  0.00000000000E+00 0. -1.
      99926    2    1    2    0    0  0.00000000000E+00  0.00000000000E+00 -0.27496026140E+03  0.52962297100E+03  0.45265588040E+03 0.  0.
      99925    2    3    3    0    0  0.10716723948E+02  0.95224992914E+02 -0.10779114991E+03  0.29989341830E+03  0.26293436993E+03 0.  0.
         25    1    4    4    0    0  0.31858327545E+02  0.15705728237E+02 -0.46287356855E+02  0.13802771620E+03  0.12509000000E+03 0.  0.
         25    1    3    3    0    0 -0.10716723948E+02 -0.95224992914E+02 -0.16716911149E+03  0.22972955270E+03  0.12509000000E+03 0.  0.
         25    1    4    4    0    0 -0.21141603598E+02  0.79519264677E+02 -0.61503793059E+02  0.16186570211E+03  0.12509000000E+03 0.  0.
<mgrwt>
<rscale>  2 0.45265588E+03</rscale>
<asrwt>0</asrwt>
<pdfrwt beam="1">  1       21 0.18725199E-01 0.45265588E+03</pdfrwt>
<pdfrwt beam="2">  1       21 0.59160532E-01 0.45265588E+03</pdfrwt>
<totfact> 0.64420546E+04</totfact>
</mgrwt>
</event>
<event>
 7    0  0.4748297E-002  0.4564934E+03  0.7546771E-02  0.1025803E+00
         21   -1    0    0  502  501  0.00000000000E+00  0.00000000000E+00  0.37955235016E+03  0.37955235016E+03  0.00000000000E+00 0. -1.
         21   -1    0    0  501  502 -0.00000000000E+00 -0.00000000000E+00 -0.13725787782E+03  0.13725787782E+03  0.00000000000E+00 0. -1.
      99926    2    1    2    0    0  0.14210854715E-13  0.35527136788E-14  0.24229447234E+03  0.51681022798E+03  0.45649337391E+03 0.  0.
      99925    2    3    3    0    0 -0.10983166880E+03 -0.17548032140E+02  0.18325657275E+03  0.33931681799E+03  0.26302471863E+03 0.  0.
         25    1    4    4    0    0 -0.70278788922E+02 -0.47197229122E+02  0.94554077145E+02  0.17819839565E+03  0.12509000000E+03 0.  0.
         25    1    4    4    0    0 -0.39552879879E+02  0.29649196982E+02  0.88702495609E+02  0.16111842233E+03  0.12509000000E+03 0.  0.
         25    1    3    3    0    0  0.10983166880E+03  0.17548032140E+02  0.59037899582E+02  0.17749340999E+03  0.12509000000E+03 0.  0.
<mgrwt>
<rscale>  2 0.45649337E+03</rscale>
<asrwt>0</asrwt>
<pdfrwt beam="1">  1       21 0.55816522E-01 0.45649337E+03</pdfrwt>
<pdfrwt beam="2">  1       21 0.20184982E-01 0.45649337E+03</pdfrwt>
<totfact> 0.63351090E+04</totfact>
</mgrwt>
</event>
<event>
 7    0  0.4748297E-002  0.4498478E+03  0.7546771E-02  0.1027767E+00
         21   -1    0    0  502  501  0.00000000000E+00  0.00000000000E+00  0.23532668776E+03  0.23532668776E+03  0.00000000000E+00 0.  1.
         21   -1    0    0  501  502 -0.00000000000E+00 -0.00000000000E+00 -0.21498100266E+03  0.21498100266E+03  0.00000000000E+00 0.  1.
      99926    2    1    2    0    0  0.00000000000E+00  0.00000000000E+00  0.20345685096E+02  0.45030769042E+03  0.44984782888E+03 0.  0.
      99925    2    3    3    0    0 -0.61625512373E+02  0.20595270993E+02 -0.73413340885E+02  0.28101465448E+03  0.26335878275E+03 0.  0.
         25    1    3    3    0    0  0.61625512373E+02 -0.20595270993E+02  0.93759025981E+02  0.16929303593E+03  0.12509000000E+03 0.  0.
         25    1    4    4    0    0 -0.45294066920E+02  0.42445140211E+02 -0.60993163166E+02  0.15238378023E+03  0.12509000000E+03 0.  0.
         25    1    4    4    0    0 -0.16331445453E+02 -0.21849869218E+02 -0.12420177719E+02  0.12863087425E+03  0.12509000000E+03 0.  0.
<mgrwt>
<rscale>  2 0.44984783E+03</rscale>
<asrwt>0</asrwt>
<pdfrwt beam="1">  1       21 0.34606866E-01 0.44984783E+03</pdfrwt>
<pdfrwt beam="2">  1       21 0.31614853E-01 0.44984783E+03</pdfrwt>
<totfact> 0.71797347E+04</totfact>
</mgrwt>
</event>
<event>
 7    0  0.4748297E-002  0.4560180E+03  0.7546771E-02  0.1025942E+00
         21   -1    0    0  502  501  0.00000000000E+00  0.00000000000E+00  0.84476539690E+02  0.84476539690E+02  0.00000000000E+00 0.  1.
         21   -1    0    0  501  502 -0.00000000000E+00 -0.00000000000E+00 -0.61541476170E+03  0.61541476170E+03  0.00000000000E+00 0.  1.
      99926    2    1    2    0    0  0.00000000000E+00  0.00000000000E+00 -0.53093822201E+03  0.69989130139E+03  0.45601802395E+03 0.  0.
      99925    2    3    3    0    0  0.37639673870E+02 -0.93868085273E+02 -0.41489072418E+03  0.50154188159E+03  0.26302468230E+03 0.  0.
         25    1    4    4    0    0 -0.19692358658E+02 -0.38143728982E+02 -0.21755315223E+03  0.25459696619E+03  0.12509000000E+03 0.  0.
         25    1    4    4    0    0  0.57332032528E+02 -0.55724356291E+02 -0.19733757195E+03  0.24694491540E+03  0.12509000000E+03 0.  0.
         25    1    3    3    0    0 -0.37639673870E+02  0.93868085273E+02 -0.11604749783E+03  0.19834941980E+03  0.12509000000E+03 0.  0.
<mgrwt>
<rscale>  2 0.45601802E+03</rscale>
<asrwt>0</asrwt>
<pdfrwt beam="1">  1       21 0.12423021E-01 0.45601802E+03</pdfrwt>
<pdfrwt beam="2">  1       21 0.90502169E-01 0.45601802E+03</pdfrwt>
<totfact> 0.52487084E+04</totfact>
</mgrwt>
</event>
<event>
 7    0  0.4748297E-002  0.4459470E+03  0.7546771E-02  0.1028938E+00
         21   -1    0    0  502  501  0.00000000000E+00  0.00000000000E+00  0.75354771610E+03  0.75354771610E+03  0.00000000000E+00 0. -1.
         21   -1    0    0  501  502 -0.00000000000E+00 -0.00000000000E+00 -0.65977470099E+02  0.65977470099E+02  0.00000000000E+00 0. -1.
      99926    2    1    2    0    0  0.14210854715E-13  0.53290705182E-14  0.68757024600E+03  0.81952518620E+03  0.44594695607E+03 0.  0.
      99925    2    3    3    0    0  0.97504247475E+02  0.73655521184E+01  0.50383145842E+03  0.57669030444E+03  0.26299094873E+03 0.  0.
         25    1    3    3    0    0 -0.97504247475E+02 -0.73655521184E+01  0.18373878758E+03  0.24283488175E+03  0.12509000000E+03 0.  0.
         25    1    4    4    0    0  0.63053305428E+02  0.32502049354E+02  0.31424639725E+03  0.34558704956E+03  0.12509000000E+03 0.  0.
         25    1    4    4    0    0  0.34450942047E+02 -0.25136497235E+02  0.18958506117E+03  0.23110325489E+03  0.12509000000E+03 0.  0.
<mgrwt>
<rscale>  2 0.44594696E+03</rscale>
<asrwt>0</asrwt>
<pdfrwt beam="1">  1       21 0.11081584E+00 0.44594696E+03</pdfrwt>
<pdfrwt beam="2">  1       21 0.97025695E-02 0.44594696E+03</pdfrwt>
<totfact> 0.50314967E+04</totfact>
</mgrwt>
</event>
<event>
 7    0  0.4748297E-002  0.4261989E+03  0.7546771E-02  0.1035067E+00
         21   -1    0    0  502  501  0.00000000000E+00  0.00000000000E+00  0.14126428261E+04  0.14126428261E+04  0.00000000000E+00 0. -1.
         21   -1    0    0  501  502 -0.00000000000E+00 -0.00000000000E+00 -0.32146390545E+02  0.32146390545E+02  0.00000000000E+00 0. -1.
      99926    2    1    2    0    0  0.00000000000E+00 -0.35527136788E-14  0.13804964356E+04  0.14447892166E+04  0.42619886433E+03 0.  0.
      99925    2    3    3    0    0 -0.42923302057E+02  0.28148719788E+02  0.67106876537E+03  0.72259126067E+03  0.26300205676E+03 0.  0.
         25    1    4    4    0    0  0.90484864267E+01 -0.55804084020E+01  0.26582443968E+03  0.29397815717E+03  0.12509000000E+03 0.  0.
         25    1    3    3    0    0  0.42923302057E+02 -0.28148719788E+02  0.70942767019E+03  0.72219795598E+03  0.12509000000E+03 0.  0.
         25    1    4    4    0    0 -0.51971788484E+02  0.33729128190E+02  0.40524432569E+03  0.42861310350E+03  0.12509000000E+03 0.  0.
<mgrwt>
<rscale>  2 0.42619886E+03</rscale>
<asrwt>0</asrwt>
<pdfrwt beam="1">  1       21 0.20774155E+00 0.42619886E+03</pdfrwt>
<pdfrwt beam="2">  1       21 0.47274113E-02 0.42619886E+03</pdfrwt>
<totfact> 0.31681266E+04</totfact>
</mgrwt>
</event>
<event>
 7    0  0.4748297E-002  0.4653435E+03  0.7546771E-02  0.1023243E+00
         21   -1    0    0  502  501  0.00000000000E+00  0.00000000000E+00  0.15600301486E+04  0.15600301486E+04  0.00000000000E+00 0.  1.
         21   -1    0    0  501  502 -0.00000000000E+00 -0.00000000000E+00 -0.34701991238E+02  0.34701991238E+02  0.00000000000E+00 0.  1.
      99926    2    1    2    0    0 -0.22204460493E-14 -0.14210854715E-13  0.15253281574E+04  0.15947321399E+04  0.46534353997E+03 0.  0.
      99925    2    3    3    0    0 -0.99404289741E+00  0.10375525010E+03  0.11751759720E+04  0.12087007926E+04  0.26296939137E+03 0.  0.
         25    1    4    4    0    0  0.23129662943E+02  0.86679013034E+02  0.61600666894E+03  0.63494878288E+03  0.12509000000E+03 0.  0.
         25    1    4    4    0    0 -0.24123705841E+02  0.17076237066E+02  0.55916930309E+03  0.57375200974E+03  0.12509000000E+03 0.  0.
         25    1    3    3    0    0  0.99404289741E+00 -0.10375525010E+03  0.35015218536E+03  0.38603134724E+03  0.12509000000E+03 0.  0.
<mgrwt>
<rscale>  2 0.46534354E+03</rscale>
<asrwt>0</asrwt>
<pdfrwt beam="1">  1       21 0.22941615E+00 0.46534354E+03</pdfrwt>
<pdfrwt beam="2">  1       21 0.51032350E-02 0.46534354E+03</pdfrwt>
<totfact> 0.19902008E+04</totfact>
</mgrwt>
</event>
<event>
 7    0  0.4748297E-002  0.4480172E+03  0.7546771E-02  0.1028315E+00
         21   -1    0    0  502  501  0.00000000000E+00  0.00000000000E+00  0.31959396003E+03  0.31959396003E+03  0.00000000000E+00 0.  1.
         21   -1    0    0  501  502 -0.00000000000E+00 -0.00000000000E+00 -0.15701129653E+03  0.15701129653E+03  0.00000000000E+00 0.  1.
      99926    2    1    2    0    0 -0.71054273576E-14  0.00000000000E+00  0.16258266351E+03  0.47660525656E+03  0.44801724086E+03 0.  0.
      99925    2    3    3    0    0  0.61273852635E+02 -0.13426846524E+02  0.19451667637E+03  0.33307109859E+03  0.26299211796E+03 0.  0.
         25    1    4    4    0    0  0.53600143260E+02  0.26544822359E+02  0.93918291324E+02  0.16746867318E+03  0.12509000000E+03 0.  0.
         25    1    4    4    0    0  0.76737093744E+01 -0.39971668882E+02  0.10059838505E+03  0.16560242541E+03  0.12509000000E+03 0.  0.
         25    1    3    3    0    0 -0.61273852635E+02  0.13426846524E+02 -0.31934012865E+02  0.14353415796E+03  0.12509000000E+03 0.  0.
<mgrwt>
<rscale>  2 0.44801724E+03</rscale>
<asrwt>0</asrwt>
<pdfrwt beam="1">  1       21 0.46999112E-01 0.44801724E+03</pdfrwt>
<pdfrwt beam="2">  1       21 0.23089897E-01 0.44801724E+03</pdfrwt>
<totfact> 0.70791108E+04</totfact>
</mgrwt>
</event>
<event>
 7    0  0.4748297E-002  0.4566907E+03  0.7546771E-02  0.1025745E+00
         21   -1    0    0  502  501  0.00000000000E+00  0.00000000000E+00  0.68423353880E+03  0.68423353880E+03  0.00000000000E+00 0.  1.
         21   -1    0    0  501  502 -0.00000000000E+00 -0.00000000000E+00 -0.76204372765E+02  0.76204372765E+02  0.00000000000E+00 0.  1.
      99926    2    1    2    0    0 -0.14210854715E-13  0.00000000000E+00  0.60802916603E+03  0.76043791156E+03  0.45669065087E+03 0.  0.
      99925    2    3    3    0    0 -0.97495836012E+02  0.59614685573E+02  0.39782643212E+03  0.49045264118E+03  0.26309423099E+03 0.  0.
         25    1    3    3    0    0  0.97495836012E+02 -0.59614685573E+02  0.21020273391E+03  0.26998527038E+03  0.12509000000E+03 0.  0.
         25    1    4    4    0    0 -0.10610590064E+02  0.13643923203E+02  0.15162640374E+03  0.19732413860E+03  0.12509000000E+03 0.  0.
         25    1    4    4    0    0 -0.86885245947E+02  0.45970762369E+02  0.24620002837E+03  0.29312850258E+03  0.12509000000E+03 0.  0.
<mgrwt>
<rscale>  2 0.45669065E+03</rscale>
<asrwt>0</asrwt>
<pdfrwt beam="1">  1       21 0.10062258E+00 0.45669065E+03</pdfrwt>
<pdfrwt beam="2">  1       21 0.11206526E-01 0.45669065E+03</pdfrwt>
<totfact> 0.49082720E+04</totfact>
</mgrwt>
</event>
<event>
 7    0  0.4748297E-002  0.4532045E+03  0.7546771E-02  0.1026771E+00
         21   -1    0    0  502  501  0.00000000000E+00  0.00000000000E+00  0.18701030840E+03  0.18701030840E+03  0.00000000000E+00 0. -1.
         21   -1    0    0  501  502 -0.00000000000E+00 -0.00000000000E+00 -0.27457613919E+03  0.27457613919E+03  0.00000000000E+00 0. -1.
      99926    2    1    2    0    0  0.00000000000E+00  0.00000000000E+00 -0.87565830785E+02  0.46158644759E+03  0.45320445041E+03 0.  0.
      99925    2    3    3    0    0 -0.10061757280E+03  0.17845899499E+02 -0.10048884605E+02  0.28242518746E+03  0.26309814585E+03 0.  0.
         25    1    4    4    0    0 -0.83466272248E+02  0.27737875187E+02 -0.24825706723E+02  0.15491879207E+03  0.12509000000E+03 0.  0.
         25    1    4    4    0    0 -0.17151300548E+02 -0.98919756876E+01  0.14776822118E+02  0.12750639539E+03  0.12509000000E+03 0.  0.
         25    1    3    3    0    0  0.10061757280E+03 -0.17845899499E+02 -0.77516946180E+02  0.17916126012E+03  0.12509000000E+03 0.  0.
<mgrwt>
<rscale>  2 0.45320445E+03</rscale>
<asrwt>0</asrwt>
<pdfrwt beam="1">  1       21 0.27501516E-01 0.45320445E+03</pdfrwt>
<pdfrwt beam="2">  1       21 0.40378844E-01 0.45320445E+03</pdfrwt>
<totfact> 0.69044582E+04</totfact>
</mgrwt>
</event>
<event>
 7    0  0.4748297E-002  0.4566212E+03  0.7546771E-02  0.1025766E+00
         21   -1    0    0  502  501  0.00000000000E+00  0.00000000000E+00  0.34994762446E+03  0.34994762446E+03  0.00000000000E+00 0.  1.
         21   -1    0    0  501  502 -0.00000000000E+00 -0.00000000000E+00 -0.14895296030E+03  0.14895296030E+03  0.00000000000E+00 0.  1.
      99926    2    1    2    0    0  0.00000000000E+00 -0.14210854715E-13  0.20099466416E+03  0.49890058476E+03  0.45662121989E+03 0.  0.
      99925    2    3    3    0    0 -0.20911873871E+02 -0.84308083043E+02  0.20808438295E+03  0.34644425807E+03  0.26301968404E+03 0.  0.
         25    1    4    4    0    0  0.86508662933E+01 -0.72230916708E+02  0.83686066776E+02  0.16716162445E+03  0.12509000000E+03 0.  0.
         25    1    4    4    0    0 -0.29562740164E+02 -0.12077166335E+02  0.12439831617E+03  0.17928263363E+03  0.12509000000E+03 0.  0.
         25    1    3    3    0    0  0.20911873871E+02  0.84308083043E+02 -0.70897187912E+01  0.15245632669E+03  0.12509000000E+03 0.  0.
<mgrwt>
<rscale>  2 0.45662122E+03</rscale>
<asrwt>0</asrwt>
<pdfrwt beam="1">  1       21 0.51462886E-01 0.45662122E+03</pdfrwt>
<pdfrwt beam="2">  1       21 0.21904847E-01 0.45662122E+03</pdfrwt>
<totfact> 0.64513688E+04</totfact>
</mgrwt>
</event>
<event>
 7    0  0.4748297E-002  0.4504540E+03  0.7546771E-02  0.1027587E+00
         21   -1    0    0  502  501  0.00000000000E+00  0.00000000000E+00  0.43796471364E+03  0.43796471364E+03  0.00000000000E+00 0.  1.
         21   -1    0    0  501  502 -0.00000000000E+00 -0.00000000000E+00 -0.11582485559E+03  0.11582485559E+03  0.00000000000E+00 0.  1.
      99926    2    1    2    0    0  0.00000000000E+00  0.18873791419E-14  0.32213985805E+03  0.55378956924E+03  0.45045399193E+03 0.  0.
      99925    2    3    3    0    0 -0.45562319653E+02 -0.55867322977E+00  0.82076360777E+02  0.27928232359E+03  0.26303203262E+03 0.  0.
         25    1    3    3    0    0  0.45562319653E+02  0.55867322977E+00  0.24006349727E+03  0.27450724564E+03  0.12509000000E+03 0.  0.
         25    1    4    4    0    0 -0.53339047051E+02  0.26950980958E+02  0.42060336103E+02  0.14487232064E+03  0.12509000000E+03 0.  0.
         25    1    4    4    0    0  0.77767273979E+01 -0.27509654187E+02  0.40016024673E+02  0.13441000295E+03  0.12509000000E+03 0.  0.
<mgrwt>
<rscale>  2 0.45045399E+03</rscale>
<asrwt>0</asrwt>
<pdfrwt beam="1">  1       21 0.64406575E-01 0.45045399E+03</pdfrwt>
<pdfrwt beam="2">  1       21 0.17033067E-01 0.45045399E+03</pdfrwt>
<totfact> 0.63883466E+04</totfact>
</mgrwt>
</event>
<event>
 7    0  0.4748297E-002  0.4536911E+03  0.7546771E-02  0.1026627E+00
         21   -1    0    0  502  501  0.00000000000E+00  0.00000000000E+00  0.16518158685E+04  0.16518158685E+04  0.00000000000E+00 0.  1.
         21   -1    0    0  501  502 -0.00000000000E+00 -0.00000000000E+00 -0.31152935711E+02  0.31152935711E+02  0.00000000000E+00 0.  1.
      99926    2    1    2    0    0  0.00000000000E+00  0.00000000000E+00  0.16206629328E+04  0.16829688042E+04  0.45369114409E+03 0.  0.
      99925    2    3    3    0    0 -0.10678032770E+03  0.33148384656E+02  0.99973574038E+03  0.10397744789E+04  0.26298015611E+03 0.  0.
         25    1    4    4    0    0 -0.71476514261E+02 -0.17132329325E+02  0.46007555120E+03  0.48241002240E+03  0.12509000000E+03 0.  0.
         25    1    3    3    0    0  0.10678032770E+03 -0.33148384656E+02  0.62092719241E+03  0.64319432535E+03  0.12509000000E+03 0.  0.
         25    1    4    4    0    0 -0.35303813437E+02  0.50280713981E+02  0.53966018918E+03  0.55736445646E+03  0.12509000000E+03 0.  0.
<mgrwt>
<rscale>  2 0.45369114E+03</rscale>
<asrwt>0</asrwt>
<pdfrwt beam="1">  1       21 0.24291404E+00 0.45369114E+03</pdfrwt>
<pdfrwt beam="2">  1       21 0.45813152E-02 0.45369114E+03</pdfrwt>
<totfact> 0.19818926E+04</totfact>
</mgrwt>
</event>
<event>
 7    0  0.4748297E-002  0.4381382E+03  0.7546771E-02  0.1031320E+00
         21   -1    0    0  502  501  0.00000000000E+00  0.00000000000E+00  0.26755217864E+03  0.26755217864E+03  0.00000000000E+00 0.  1.
         21   -1    0    0  501  502 -0.00000000000E+00 -0.00000000000E+00 -0.17937166920E+03  0.17937166920E+03  0.00000000000E+00 0.  1.
      99926    2    1    2    0    0  0.00000000000E+00 -0.71054273576E-14  0.88180509445E+02  0.44692384784E+03  0.43813824704E+03 0.  0.
      99925    2    3    3    0    0 -0.70103360060E+01 -0.55704302622E+02 -0.23259170401E+02  0.27023648416E+03  0.26331474364E+03 0.  0.
         25    1    3    3    0    0  0.70103360060E+01  0.55704302622E+02  0.11143967985E+03  0.17668736368E+03  0.12509000000E+03 0.  0.
         25    1    4    4    0    0  0.29789135035E+01  0.30798687075E+01 -0.38189984476E+02  0.13086001120E+03  0.12509000000E+03 0.  0.
         25    1    4    4    0    0 -0.99892495095E+01 -0.58784171330E+02  0.14930814075E+02  0.13937647296E+03  0.12509000000E+03 0.  0.
<mgrwt>
<rscale>  2 0.43813825E+03</rscale>
<asrwt>0</asrwt>
<pdfrwt beam="1">  1       21 0.39345908E-01 0.43813825E+03</pdfrwt>
<pdfrwt beam="2">  1       21 0.26378187E-01 0.43813825E+03</pdfrwt>
<totfact> 0.79274627E+04</totfact>
</mgrwt>
</event>
<event>
 7    0  0.4748297E-002  0.4558737E+03  0.7546771E-02  0.1025985E+00
         21   -1    0    0  502  501  0.00000000000E+00  0.00000000000E+00  0.26901685763E+03  0.26901685763E+03  0.00000000000E+00 0.  1.
         21   -1    0    0  501  502 -0.00000000000E+00 -0.00000000000E+00 -0.19312997061E+03  0.19312997061E+03  0.00000000000E+00 0.  1.
      99926    2    1    2    0    0  0.00000000000E+00 -0.35527136788E-14  0.75886887016E+02  0.46214682824E+03  0.45587374483E+03 0.  0.
      99925    2    3    3    0    0  0.35042869746E+02 -0.26917614053E+02  0.15415136201E+03  0.30811632212E+03  0.26309782379E+03 0.  0.
         25    1    3    3    0    0 -0.35042869746E+02  0.26917614053E+02 -0.78264474997E+02  0.15403050611E+03  0.12509000000E+03 0.  0.
         25    1    4    4    0    0  0.20494573846E+02  0.25620668319E+02  0.61644543284E+02  0.14326201178E+03  0.12509000000E+03 0.  0.
         25    1    4    4    0    0  0.14548295900E+02 -0.52538282372E+02  0.92506818730E+02  0.16485431035E+03  0.12509000000E+03 0.  0.
<mgrwt>
<rscale>  2 0.45587374E+03</rscale>
<asrwt>0</asrwt>
<pdfrwt beam="1">  1       21 0.39561303E-01 0.45587374E+03</pdfrwt>
<pdfrwt beam="2">  1       21 0.28401466E-01 0.45587374E+03</pdfrwt>
<totfact> 0.67551982E+04</totfact>
</mgrwt>
</event>
<event>
 7    0  0.4748297E-002  0.4580481E+03  0.7546771E-02  0.1025349E+00
         21   -1    0    0  502  501  0.00000000000E+00  0.00000000000E+00  0.34512984442E+03  0.34512984442E+03  0.00000000000E+00 0.  1.
         21   -1    0    0  501  502 -0.00000000000E+00 -0.00000000000E+00 -0.15197761392E+03  0.15197761392E+03  0.00000000000E+00 0.  1.
      99926    2    1    2    0    0  0.00000000000E+00  0.00000000000E+00  0.19315223050E+03  0.49710745834E+03  0.45804807716E+03 0.  0.
      99925    2    3    3    0    0  0.58951246730E+01  0.11461117155E+03  0.14115032233E+03  0.31956259163E+03  0.26272868770E+03 0.  0.
         25    1    4    4    0    0 -0.43555900498E+01  0.32026115074E+02  0.29894904263E+02  0.13261167600E+03  0.12509000000E+03 0.  0.
         25    1    4    4    0    0  0.10250714723E+02  0.82585056481E+02  0.11125541806E+03  0.18695091563E+03  0.12509000000E+03 0.  0.
         25    1    3    3    0    0 -0.58951246730E+01 -0.11461117155E+03  0.52001908174E+02  0.17754486671E+03  0.12509000000E+03 0.  0.
<mgrwt>
<rscale>  2 0.45804808E+03</rscale>
<asrwt>0</asrwt>
<pdfrwt beam="1">  1       21 0.50754389E-01 0.45804808E+03</pdfrwt>
<pdfrwt beam="2">  1       21 0.22349649E-01 0.45804808E+03</pdfrwt>
<totfact> 0.63913760E+04</totfact>
</mgrwt>
</event>
<event>
 7    0  0.4748297E-002  0.4537906E+03  0.7546771E-02  0.1026598E+00
         21   -1    0    0  502  501  0.00000000000E+00  0.00000000000E+00  0.12475471878E+03  0.12475471878E+03  0.00000000000E+00 0. -1.
         21   -1    0    0  501  502 -0.00000000000E+00 -0.00000000000E+00 -0.41266156503E+03  0.41266156503E+03  0.00000000000E+00 0. -1.
      99926    2    1    2    0    0  0.14210854715E-13  0.00000000000E+00 -0.28790684625E+03  0.53741628380E+03  0.45379060147E+03 0.  0.
      99925    2    3    3    0    0 -0.83252948835E+02  0.68421746909E+02 -0.14518631482E+03  0.31917502480E+03  0.26302289160E+03 0.  0.
         25    1    4    4    0    0 -0.27034106176E+02  0.68044789005E+02 -0.54957543051E+02  0.15501217967E+03  0.12509000000E+03 0.  0.
         25    1    4    4    0    0 -0.56218842659E+02  0.37695790365E+00 -0.90228771764E+02  0.16416284513E+03  0.12509000000E+03 0.  0.
         25    1    3    3    0    0  0.83252948835E+02 -0.68421746909E+02 -0.14272053143E+03  0.21824125901E+03  0.12509000000E+03 0.  0.
<mgrwt>
<rscale>  2 0.45379060E+03</rscale>
<asrwt>0</asrwt>
<pdfrwt beam="1">  1       21 0.18346282E-01 0.45379060E+03</pdfrwt>
<pdfrwt beam="2">  1       21 0.60685525E-01 0.45379060E+03</pdfrwt>
<totfact> 0.63309599E+04</totfact>
</mgrwt>
</event>
<event>
 7    0  0.4748297E-002  0.4519715E+03  0.7546771E-02  0.1027136E+00
         21   -1    0    0  502  501  0.00000000000E+00  0.00000000000E+00  0.97205764946E+02  0.97205764946E+02  0.00000000000E+00 0.  1.
         21   -1    0    0  501  502 -0.00000000000E+00 -0.00000000000E+00 -0.52537571755E+03  0.52537571755E+03  0.00000000000E+00 0.  1.
      99926    2    1    2    0    0  0.00000000000E+00  0.00000000000E+00 -0.42816995260E+03  0.62258148250E+03  0.45197145267E+03 0.  0.
      99925    2    3    3    0    0 -0.89121754076E+02  0.56732320664E+02 -0.31951123771E+03  0.42607329518E+03  0.26132313061E+03 0.  0.
         25    1    4    4    0    0 -0.53364374559E+01  0.32315536941E+02 -0.15014565515E+03  0.19815145054E+03  0.12509000000E+03 0.  0.
         25    1    3    3    0    0  0.89121754076E+02 -0.56732320664E+02 -0.10865871490E+03  0.19650818731E+03  0.12509000000E+03 0.  0.
         25    1    4    4    0    0 -0.83785316620E+02  0.24416783723E+02 -0.16936558256E+03  0.22792184464E+03  0.12509000000E+03 0.  0.
<mgrwt>
<rscale>  2 0.45197145E+03</rscale>
<asrwt>0</asrwt>
<pdfrwt beam="1">  1       21 0.14294966E-01 0.45197145E+03</pdfrwt>
<pdfrwt beam="2">  1       21 0.77261134E-01 0.45197145E+03</pdfrwt>
<totfact> 0.58700552E+04</totfact>
</mgrwt>
</event>
<event>
 7    0  0.4748297E-002  0.4512931E+03  0.7546771E-02  0.1027337E+00
         21   -1    0    0  502  501  0.00000000000E+00  0.00000000000E+00  0.21434914738E+03  0.21434914738E+03  0.00000000000E+00 0. -1.
         21   -1    0    0  501  502 -0.00000000000E+00 -0.00000000000E+00 -0.23753934665E+03  0.23753934665E+03  0.00000000000E+00 0. -1.
      99926    2    1    2    0    0  0.00000000000E+00  0.00000000000E+00 -0.23190199274E+02  0.45188849403E+03  0.45129305966E+03 0.  0.
      99925    2    3    3    0    0 -0.61664801391E+02 -0.89718390894E+01 -0.10525718017E+03  0.28982202902E+03  0.26274453924E+03 0.  0.
         25    1    4    4    0    0 -0.61689600237E+02  0.10355916909E+02 -0.31627831290E+02  0.14338995643E+03  0.12509000000E+03 0.  0.
         25    1    4    4    0    0  0.24798846258E-01 -0.19327755999E+02 -0.73629348880E+02  0.14643207259E+03  0.12509000000E+03 0.  0.
         25    1    3    3    0    0  0.61664801391E+02  0.89718390894E+01  0.82066980896E+02  0.16206646501E+03  0.12509000000E+03 0.  0.
<mgrwt>
<rscale>  2 0.45129306E+03</rscale>
<asrwt>0</asrwt>
<pdfrwt beam="1">  1       21 0.31521934E-01 0.45129306E+03</pdfrwt>
<pdfrwt beam="2">  1       21 0.34932256E-01 0.45129306E+03</pdfrwt>
<totfact> 0.70846740E+04</totfact>
</mgrwt>
</event>
<event>
 7    0  0.4748297E-002  0.4575474E+03  0.7546771E-02  0.1025495E+00
         21   -1    0    0  502  501  0.00000000000E+00  0.00000000000E+00  0.14120644585E+04  0.14120644585E+04  0.00000000000E+00 0.  1.
         21   -1    0    0  501  502 -0.00000000000E+00 -0.00000000000E+00 -0.37064456301E+02  0.37064456301E+02  0.00000000000E+00 0.  1.
      99926    2    1    2    0    0  0.00000000000E+00  0.00000000000E+00  0.13750000022E+04  0.14491289148E+04  0.45754738079E+03 0.  0.
      99925    2    3    3    0    0  0.43258714603E+02  0.67325098959E+02  0.11272218410E+04  0.11602595488E+04  0.26300029742E+03 0.  0.
         25    1    4    4    0    0  0.34519366394E+01  0.28669211896E+02  0.39433634102E+03  0.41470772543E+03  0.12509000000E+03 0.  0.
         25    1    3    3    0    0 -0.43258714603E+02 -0.67325098959E+02  0.24777816119E+03  0.28886936598E+03  0.12509000000E+03 0.  0.
         25    1    4    4    0    0  0.39806777963E+02  0.38655887064E+02  0.73288550001E+03  0.74555182342E+03  0.12509000000E+03 0.  0.
<mgrwt>
<rscale>  2 0.45754738E+03</rscale>
<asrwt>0</asrwt>
<pdfrwt beam="1">  1       21 0.20765650E+00 0.45754738E+03</pdfrwt>
<pdfrwt beam="2">  1       21 0.54506563E-02 0.45754738E+03</pdfrwt>
<totfact> 0.24561956E+04</totfact>
</mgrwt>
</event>
<event>
 7    0  0.4748297E-002  0.4227390E+03  0.7546771E-02  0.1036179E+00
         21   -1    0    0  502  501  0.00000000000E+00  0.00000000000E+00  0.27085497275E+03  0.27085497275E+03  0.00000000000E+00 0. -1.
         21   -1    0    0  501  502 -0.00000000000E+00 -0.00000000000E+00 -0.16494826357E+03  0.16494826357E+03  0.00000000000E+00 0. -1.
      99926    2    1    2    0    0  0.17763568394E-14  0.00000000000E+00  0.10590670919E+03  0.43580323632E+03  0.42273896169E+03 0.  0.
      99925    2    3    3    0    0  0.10068515227E+02 -0.52464083647E+02  0.12912378777E+03  0.29781629523E+03  0.26299760088E+03 0.  0.
         25    1    4    4    0    0 -0.17014297809E+02 -0.21511984128E+02  0.10117342600E+03  0.16320484680E+03  0.12509000000E+03 0.  0.
         25    1    3    3    0    0 -0.10068515227E+02  0.52464083647E+02 -0.23217078580E+02  0.13798694108E+03  0.12509000000E+03 0.  0.
         25    1    4    4    0    0  0.27082813037E+02 -0.30952099519E+02  0.27950361771E+02  0.13461144843E+03  0.12509000000E+03 0.  0.
<mgrwt>
<rscale>  2 0.42273896E+03</rscale>
<asrwt>0</asrwt>
<pdfrwt beam="1">  1       21 0.39831614E-01 0.42273896E+03</pdfrwt>
<pdfrwt beam="2">  1       21 0.24257098E-01 0.42273896E+03</pdfrwt>
<totfact> 0.91280687E+04</totfact>
</mgrwt>
</event>
<event>
 7    0  0.4748297E-002  0.4576504E+03  0.7546771E-02  0.1025465E+00
         21   -1    0    0  502  501  0.00000000000E+00  0.00000000000E+00  0.30024485821E+02  0.30024485821E+02  0.00000000000E+00 0. -1.
         21   -1    0    0  501  502 -0.00000000000E+00 -0.00000000000E+00 -0.17439427010E+04  0.17439427010E+04  0.00000000000E+00 0. -1.
      99926    2    1    2    0    0  0.00000000000E+00  0.00000000000E+00 -0.17139182151E+04  0.17739671868E+04  0.45765044695E+03 0.  0.
      99925    2    3    3    0    0  0.97887478125E+02 -0.26832700143E+02 -0.86169858574E+03  0.90665654058E+03  0.26305831625E+03 0.  0.
         25    1    3    3    0    0 -0.97887478125E+02  0.26832700143E+02 -0.85221962941E+03  0.86731064620E+03  0.12509000000E+03 0.  0.
         25    1    4    4    0    0  0.82327002303E+02  0.59419554072E+01 -0.40896523086E+03  0.43556068498E+03  0.12509000000E+03 0.  0.
         25    1    4    4    0    0  0.15560475822E+02 -0.32774655550E+02 -0.45273335487E+03  0.47109585561E+03  0.12509000000E+03 0.  0.
<mgrwt>
<rscale>  2 0.45765045E+03</rscale>
<asrwt>0</asrwt>
<pdfrwt beam="1">  1       21 0.44153648E-02 0.45765045E+03</pdfrwt>
<pdfrwt beam="2">  1       21 0.25646221E+00 0.45765045E+03</pdfrwt>
<totfact> 0.17404173E+04</totfact>
</mgrwt>
</event>
<event>
 7    0  0.4748297E-002  0.4564872E+03  0.7546771E-02  0.1025805E+00
         21   -1    0    0  502  501  0.00000000000E+00  0.00000000000E+00  0.34669497909E+02  0.34669497909E+02  0.00000000000E+00 0. -1.
         21   -1    0    0  501  502 -0.00000000000E+00 -0.00000000000E+00 -0.15026217096E+04  0.15026217096E+04  0.00000000000E+00 0. -1.
      99926    2    1    2    0    0  0.00000000000E+00  0.00000000000E+00 -0.14679522117E+04  0.15372912075E+04  0.45648719684E+03 0.  0.
      99925    2    3    3    0    0  0.30831753122E+02  0.56089615322E+02 -0.60258604655E+03  0.66059128746E+03  0.26301000669E+03 0.  0.
         25    1    3    3    0    0 -0.30831753122E+02 -0.56089615322E+02 -0.86536616517E+03  0.87669992008E+03  0.12509000000E+03 0.  0.
         25    1    4    4    0    0  0.40874962193E+02  0.39826178468E+02 -0.38589078927E+03  0.40965362976E+03  0.12509000000E+03 0.  0.
         25    1    4    4    0    0 -0.10043209071E+02  0.16263436853E+02 -0.21669525727E+03  0.25093765770E+03  0.12509000000E+03 0.  0.
<mgrwt>
<rscale>  2 0.45648720E+03</rscale>
<asrwt>0</asrwt>
<pdfrwt beam="1">  1       21 0.50984554E-02 0.45648720E+03</pdfrwt>
<pdfrwt beam="2">  1       21 0.22097379E+00 0.45648720E+03</pdfrwt>
<totfact> 0.22617435E+04</totfact>
</mgrwt>
</event>
<event>
 7    0  0.4748297E-002  0.4715224E+03  0.7546771E-02  0.1021491E+00
         21   -1    0    0  502  501  0.00000000000E+00  0.00000000000E+00  0.24143679265E+03  0.24143679265E+03  0.00000000000E+00 0. -1.
         21   -1    0    0  501  502 -0.00000000000E+00 -0.00000000000E+00 -0.23021901106E+03  0.23021901106E+03  0.00000000000E+00 0. -1.
      99926    2    1    2    0    0  0.00000000000E+00  0.00000000000E+00  0.11217781589E+02  0.47165580372E+03  0.47152238394E+03 0.  0.
      99925    2    3    3    0    0 -0.44813031206E+02  0.11914347250E+03 -0.59781106051E+01  0.29236112557E+03  0.26312718433E+03 0.  0.
         25    1    4    4    0    0 -0.47873063833E+02  0.94590526863E+02 -0.14182412875E+02  0.16458385993E+03  0.12509000000E+03 0.  0.
         25    1    4    4    0    0  0.30600326273E+01  0.24552945634E+02  0.82043022698E+01  0.12777726564E+03  0.12509000000E+03 0.  0.
         25    1    3    3    0    0  0.44813031206E+02 -0.11914347250E+03  0.17195892194E+02  0.17929467815E+03  0.12509000000E+03 0.  0.
<mgrwt>
<rscale>  2 0.47152238E+03</rscale>
<asrwt>0</asrwt>
<pdfrwt beam="1">  1       21 0.35505411E-01 0.47152238E+03</pdfrwt>
<pdfrwt beam="2">  1       21 0.33855737E-01 0.47152238E+03</pdfrwt>
<totfact> 0.59151316E+04</totfact>
</mgrwt>
</event>
<event>
 7    0  0.4748297E-002  0.4598165E+03  0.7546771E-02  0.1024834E+00
         21   -1    0    0  502  501  0.00000000000E+00  0.00000000000E+00  0.37817414520E+03  0.37817414520E+03  0.00000000000E+00 0.  1.
         21   -1    0    0  501  502 -0.00000000000E+00 -0.00000000000E+00 -0.13977106215E+03  0.13977106215E+03  0.00000000000E+00 0.  1.
      99926    2    1    2    0    0 -0.17763568394E-14  0.00000000000E+00  0.23840308305E+03  0.51794520735E+03  0.45981649362E+03 0.  0.
      99925    2    3    3    0    0 -0.13985330522E+02  0.73462300846E+02  0.47086261461E+02  0.27744170750E+03  0.26299141797E+03 0.  0.
         25    1    4    4    0    0 -0.17060093516E+02  0.10915972393E+02 -0.82915899481E+01  0.12699001460E+03  0.12509000000E+03 0.  0.
         25    1    3    3    0    0  0.13985330522E+02 -0.73462300846E+02  0.19131682159E+03  0.24050349985E+03  0.12509000000E+03 0.  0.
         25    1    4    4    0    0  0.30747629942E+01  0.62546328454E+02  0.55377851409E+02  0.15045169290E+03  0.12509000000E+03 0.  0.
<mgrwt>
<rscale>  2 0.45981649E+03</rscale>
<asrwt>0</asrwt>
<pdfrwt beam="1">  1       21 0.55613845E-01 0.45981649E+03</pdfrwt>
<pdfrwt beam="2">  1       21 0.20554568E-01 0.45981649E+03</pdfrwt>
<totfact> 0.61637838E+04</totfact>
</mgrwt>
</event>
<event>
 7    0  0.4748297E-002  0.4573259E+03  0.7546771E-02  0.1025560E+00
         21   -1    0    0  502  501  0.00000000000E+00  0.00000000000E+00  0.10619402123E+04  0.10619402123E+04  0.00000000000E+00 0.  1.
         21   -1    0    0  501  502 -0.00000000000E+00 -0.00000000000E+00 -0.49236995203E+02  0.49236995203E+02  0.00000000000E+00 0.  1.
      99926    2    1    2    0    0  0.00000000000E+00  0.00000000000E+00  0.10127032170E+04  0.11111772075E+04  0.45732590190E+03 0.  0.
      99925    2    3    3    0    0  0.10147410002E+03  0.45485459984E+02  0.70983493315E+03  0.76513873339E+03  0.26306981765E+03 0.  0.
         25    1    3    3    0    0 -0.10147410002E+03 -0.45485459984E+02  0.30286828390E+03  0.34603847407E+03  0.12509000000E+03 0.  0.
         25    1    4    4    0    0  0.67390860692E+02  0.92397934935E+00  0.44164550585E+03  0.46394034399E+03  0.12509000000E+03 0.  0.
         25    1    4    4    0    0  0.34083239326E+02  0.44561480635E+02  0.26818942731E+03  0.30119838940E+03  0.12509000000E+03 0.  0.
<mgrwt>
<rscale>  2 0.45732590E+03</rscale>
<asrwt>0</asrwt>
<pdfrwt beam="1">  1       21 0.15616766E+00 0.45732590E+03</pdfrwt>
<pdfrwt beam="2">  1       21 0.72407353E-02 0.45732590E+03</pdfrwt>
<totfact> 0.34475778E+04</totfact>
</mgrwt>
</event>
<event>
 7    0  0.4748297E-002  0.4592787E+03  0.7546771E-02  0.1024991E+00
         21   -1    0    0  502  501  0.00000000000E+00  0.00000000000E+00  0.83188491074E+03  0.83188491074E+03  0.00000000000E+00 0. -1.
         21   -1    0    0  501  502 -0.00000000000E+00 -0.00000000000E+00 -0.63391268673E+02  0.63391268673E+02  0.00000000000E+00 0. -1.
      99926    2    1    2    0    0  0.00000000000E+00  0.00000000000E+00  0.76849364207E+03  0.89527617941E+03  0.45927873838E+03 0.  0.
      99925    2    3    3    0    0  0.64873271678E+02  0.81143459164E+02  0.37640273421E+03  0.47080522579E+03  0.26303182311E+03 0.  0.
         25    1    4    4    0    0  0.17434193518E+02  0.70890613152E+02  0.15679161559E+03  0.21344917183E+03  0.12509000000E+03 0.  0.
         25    1    4    4    0    0  0.47439078160E+02  0.10252846012E+02  0.21961111862E+03  0.25735605396E+03  0.12509000000E+03 0.  0.
         25    1    3    3    0    0 -0.64873271678E+02 -0.81143459164E+02  0.39209090786E+03  0.42447095362E+03  0.12509000000E+03 0.  0.
<mgrwt>
<rscale>  2 0.45927874E+03</rscale>
<asrwt>0</asrwt>
<pdfrwt beam="1">  1       21 0.12233601E+00 0.45927874E+03</pdfrwt>
<pdfrwt beam="2">  1       21 0.93222459E-02 0.45927874E+03</pdfrwt>
<totfact> 0.42013211E+04</totfact>
</mgrwt>
</event>
<event>
 7    0  0.4748297E-002  0.4523704E+03  0.7546771E-02  0.1027018E+00
         21   -1    0    0  502  501  0.00000000000E+00  0.00000000000E+00  0.53880455939E+03  0.53880455939E+03  0.00000000000E+00 0. -1.
         21   -1    0    0  501  502 -0.00000000000E+00 -0.00000000000E+00 -0.94950478501E+02  0.94950478501E+02  0.00000000000E+00 0. -1.
      99926    2    1    2    0    0 -0.71054273576E-14 -0.14210854715E-13  0.44385408089E+03  0.63375503789E+03  0.45237042668E+03 0.  0.
      99925    2    3    3    0    0  0.38278223483E+02  0.10383177466E+03  0.27855515800E+03  0.39877099199E+03  0.26301914033E+03 0.  0.
         25    1    4    4    0    0  0.46082511724E+02  0.22066047193E+02  0.11948497668E+03  0.18037371227E+03  0.12509000000E+03 0.  0.
         25    1    3    3    0    0 -0.38278223483E+02 -0.10383177466E+03  0.16529892289E+03  0.23498404591E+03  0.12509000000E+03 0.  0.
         25    1    4    4    0    0 -0.78042882417E+01  0.81765727465E+02  0.15907018132E+03  0.21839727972E+03  0.12509000000E+03 0.  0.
<mgrwt>
<rscale>  2 0.45237043E+03</rscale>
<asrwt>0</asrwt>
<pdfrwt beam="1">  1       21 0.79235963E-01 0.45237043E+03</pdfrwt>
<pdfrwt beam="2">  1       21 0.13963306E-01 0.45237043E+03</pdfrwt>
<totfact> 0.57838331E+04</totfact>
</mgrwt>
</event>
<event>
 7    0  0.4748297E-002  0.4628854E+03  0.7546771E-02  0.1023948E+00
         21   -1    0    0  502  501  0.00000000000E+00  0.00000000000E+00  0.10859754757E+03  0.10859754757E+03  0.00000000000E+00 0. -1.
         21   -1    0    0  501  502 -0.00000000000E+00 -0.00000000000E+00 -0.49324977229E+03  0.49324977229E+03  0.00000000000E+00 0. -1.
      99926    2    1    2    0    0 -0.14210854715E-13 -0.39968028887E-14 -0.38465222473E+03  0.60184731986E+03  0.46288536641E+03 0.  0.
      99925    2    3    3    0    0  0.11774264125E+03  0.39730363643E+01 -0.20827197780E+03  0.35560229109E+03  0.26305257670E+03 0.  0.
         25    1    4    4    0    0  0.34418489323E+02 -0.31223866357E+02 -0.10613760384E+03  0.17050589810E+03  0.12509000000E+03 0.  0.
         25    1    3    3    0    0 -0.11774264125E+03 -0.39730363643E+01 -0.17638024693E+03  0.24624502877E+03  0.12509000000E+03 0.  0.
         25    1    4    4    0    0  0.83324151930E+02  0.35196902721E+02 -0.10213437396E+03  0.18509639300E+03  0.12509000000E+03 0.  0.
<mgrwt>
<rscale>  2 0.46288537E+03</rscale>
<asrwt>0</asrwt>
<pdfrwt beam="1">  1       21 0.15970227E-01 0.46288537E+03</pdfrwt>
<pdfrwt beam="2">  1       21 0.72536732E-01 0.46288537E+03</pdfrwt>
<totfact> 0.55053655E+04</totfact>
</mgrwt>
</event>
<event>
 7    0  0.4748297E-002  0.4527955E+03  0.7546771E-02  0.1026892E+00
         21   -1    0    0  502  501  0.00000000000E+00  0.00000000000E+00  0.19141036488E+03  0.19141036488E+03  0.00000000000E+00 0.  1.
         21   -1    0    0  501  502 -0.00000000000E+00 -0.00000000000E+00 -0.26778042679E+03  0.26778042679E+03  0.00000000000E+00 0.  1.
      99926    2    1    2    0    0  0.00000000000E+00  0.00000000000E+00 -0.76370061907E+02  0.45919079168E+03  0.45279553532E+03 0.  0.
      99925    2    3    3    0    0  0.27671761449E+02  0.71031471074E+02  0.34274781893E+02  0.27561250912E+03  0.26263339134E+03 0.  0.
         25    1    3    3    0    0 -0.27671761449E+02 -0.71031471074E+02 -0.11064484380E+03  0.18357828255E+03  0.12509000000E+03 0.  0.
         25    1    4    4    0    0  0.41979085145E+02  0.44800447696E+02 -0.97297814016E+01  0.13968357258E+03  0.12509000000E+03 0.  0.
         25    1    4    4    0    0 -0.14307323696E+02  0.26231023378E+02  0.44004563294E+02  0.13592893654E+03  0.12509000000E+03 0.  0.
<mgrwt>
<rscale>  2 0.45279554E+03</rscale>
<asrwt>0</asrwt>
<pdfrwt beam="1">  1       21 0.28148583E-01 0.45279554E+03</pdfrwt>
<pdfrwt beam="2">  1       21 0.39379474E-01 0.45279554E+03</pdfrwt>
<totfact> 0.69452405E+04</totfact>
</mgrwt>
</event>
<event>
 7    0  0.4748297E-002  0.4604330E+03  0.7546771E-02  0.1024656E+00
         21   -1    0    0  502  501  0.00000000000E+00  0.00000000000E+00  0.29843963746E+03  0.29843963746E+03  0.00000000000E+00 0. -1.
         21   -1    0    0  501  502 -0.00000000000E+00 -0.00000000000E+00 -0.17758910536E+03  0.17758910536E+03  0.00000000000E+00 0. -1.
      99926    2    1    2    0    0  0.71054273576E-14  0.00000000000E+00  0.12085053211E+03  0.47602874282E+03  0.46043296242E+03 0.  0.
      99925    2    3    3    0    0 -0.34262962640E+02 -0.11156764062E+03  0.10118906528E+03  0.30382139564E+03  0.26162363134E+03 0.  0.
         25    1    4    4    0    0 -0.46557717648E+02 -0.33185610881E+02  0.37329524407E+02  0.14251283218E+03  0.12509000000E+03 0.  0.
         25    1    4    4    0    0  0.12294755009E+02 -0.78382029743E+02  0.63859540878E+02  0.16130856347E+03  0.12509000000E+03 0.  0.
         25    1    3    3    0    0  0.34262962640E+02  0.11156764062E+03  0.19661466824E+02  0.17220734717E+03  0.12509000000E+03 0.  0.
<mgrwt>
<rscale>  2 0.46043296E+03</rscale>
<asrwt>0</asrwt>
<pdfrwt beam="1">  1       21 0.43888182E-01 0.46043296E+03</pdfrwt>
<pdfrwt beam="2">  1       21 0.26116045E-01 0.46043296E+03</pdfrwt>
<totfact> 0.64178719E+04</totfact>
</mgrwt>
</event>
<event>
 7    0  0.4748297E-002  0.4540297E+03  0.7546771E-02  0.1026527E+00
         21   -1    0    0  502  501  0.00000000000E+00  0.00000000000E+00  0.61706322191E+02  0.61706322191E+02  0.00000000000E+00 0.  1.
         21   -1    0    0  501  502 -0.00000000000E+00 -0.00000000000E+00 -0.83517783585E+03  0.83517783585E+03  0.00000000000E+00 0.  1.
      99926    2    1    2    0    0  0.00000000000E+00 -0.14210854715E-13 -0.77347151366E+03  0.89688415804E+03  0.45402974627E+03 0.  0.
      99925    2    3    3    0    0  0.84616715706E+02 -0.71293572701E+02 -0.43779816732E+03  0.52196167854E+03  0.26178998544E+03 0.  0.
         25    1    3    3    0    0 -0.84616715706E+02  0.71293572701E+02 -0.33567334634E+03  0.37492247949E+03  0.12509000000E+03 0.  0.
         25    1    4    4    0    0  0.29112775306E+02 -0.55292330277E+02 -0.16452505665E+03  0.21591849814E+03  0.12509000000E+03 0.  0.
         25    1    4    4    0    0  0.55503940399E+02 -0.16001242424E+02 -0.27327311067E+03  0.30604318041E+03  0.12509000000E+03 0.  0.
<mgrwt>
<rscale>  2 0.45402975E+03</rscale>
<asrwt>0</asrwt>
<pdfrwt beam="1">  1       21 0.90744593E-02 0.45402975E+03</pdfrwt>
<pdfrwt beam="2">  1       21 0.12282027E+00 0.45402975E+03</pdfrwt>
<totfact> 0.43699714E+04</totfact>
</mgrwt>
</event>
<event>
 7    0  0.4748297E-002  0.4550882E+03  0.7546771E-02  0.1026215E+00
         21   -1    0    0  502  501  0.00000000000E+00  0.00000000000E+00  0.14555437393E+03  0.14555437393E+03  0.00000000000E+00 0.  1.
         21   -1    0    0  501  502 -0.00000000000E+00 -0.00000000000E+00 -0.35571812338E+03  0.35571812338E+03  0.00000000000E+00 0.  1.
      99926    2    1    2    0    0  0.00000000000E+00  0.00000000000E+00 -0.21016374945E+03  0.50127249731E+03  0.45508824966E+03 0.  0.
      99925    2    3    3    0    0  0.62719648132E+02  0.88562480963E+02 -0.97657547437E+02  0.30106705062E+03  0.26330078826E+03 0.  0.
         25    1    4    4    0    0  0.65761642138E+01  0.55562106333E+02 -0.15633966393E+02  0.13792143634E+03  0.12509000000E+03 0.  0.
         25    1    4    4    0    0  0.56143483918E+02  0.33000374630E+02 -0.82023581044E+02  0.16314561428E+03  0.12509000000E+03 0.  0.
         25    1    3    3    0    0 -0.62719648132E+02 -0.88562480963E+02 -0.11250620201E+03  0.20020544670E+03  0.12509000000E+03 0.  0.
<mgrwt>
<rscale>  2 0.45508825E+03</rscale>
<asrwt>0</asrwt>
<pdfrwt beam="1">  1       21 0.21405055E-01 0.45508825E+03</pdfrwt>
<pdfrwt beam="2">  1       21 0.52311488E-01 0.45508825E+03</pdfrwt>
<totfact> 0.65135717E+04</totfact>
</mgrwt>
</event>
<event>
 7    0  0.4748297E-002  0.4549417E+03  0.7546771E-02  0.1026259E+00
         21   -1    0    0  502  501  0.00000000000E+00  0.00000000000E+00  0.48027978486E+03  0.48027978486E+03  0.00000000000E+00 0. -1.
         21   -1    0    0  501  502 -0.00000000000E+00 -0.00000000000E+00 -0.10773509145E+03  0.10773509145E+03  0.00000000000E+00 0. -1.
      99926    2    1    2    0    0  0.00000000000E+00  0.00000000000E+00  0.37254469341E+03  0.58801487632E+03  0.45494169536E+03 0.  0.
      99925    2    3    3    0    0 -0.40229682805E+02 -0.91532987004E+02  0.16605054205E+03  0.32670269188E+03  0.26299268294E+03 0.  0.
         25    1    4    4    0    0 -0.24622485717E+02 -0.54401941203E+02  0.39189200147E+02  0.14404561610E+03  0.12509000000E+03 0.  0.
         25    1    3    3    0    0  0.40229682805E+02  0.91532987004E+02  0.20649415136E+03  0.26131218444E+03  0.12509000000E+03 0.  0.
         25    1    4    4    0    0 -0.15607197088E+02 -0.37131045800E+02  0.12686134190E+03  0.18265707578E+03  0.12509000000E+03 0.  0.
<mgrwt>
<rscale>  2 0.45494170E+03</rscale>
<asrwt>0</asrwt>
<pdfrwt beam="1">  1       21 0.70629379E-01 0.45494170E+03</pdfrwt>
<pdfrwt beam="2">  1       21 0.15843396E-01 0.45494170E+03</pdfrwt>
<totfact> 0.59449504E+04</totfact>
</mgrwt>
</event>
<event>
 7    0  0.4748297E-002  0.4560340E+03  0.7546771E-02  0.1025938E+00
         21   -1    0    0  502  501  0.00000000000E+00  0.00000000000E+00  0.25960533250E+03  0.25960533250E+03  0.00000000000E+00 0. -1.
         21   -1    0    0  501  502 -0.00000000000E+00 -0.00000000000E+00 -0.20027227625E+03  0.20027227625E+03  0.00000000000E+00 0. -1.
      99926    2    1    2    0    0  0.17763568394E-14  0.00000000000E+00  0.59333056251E+02  0.45987760874E+03  0.45603399375E+03 0.  0.
      99925    2    3    3    0    0 -0.13068829006E+02  0.16564068006E+02 -0.75828909490E+02  0.27450925189E+03  0.26298316147E+03 0.  0.
         25    1    4    4    0    0 -0.38401393812E+02  0.31729639248E+02 -0.29111980005E+02  0.13775504540E+03  0.12509000000E+03 0.  0.
         25    1    3    3    0    0  0.13068829006E+02 -0.16564068006E+02  0.13516196574E+03  0.18536835686E+03  0.12509000000E+03 0.  0.
         25    1    4    4    0    0  0.25332564807E+02 -0.15165571242E+02 -0.46716929485E+02  0.13675420648E+03  0.12509000000E+03 0.  0.
<mgrwt>
<rscale>  2 0.45603399E+03</rscale>
<asrwt>0</asrwt>
<pdfrwt beam="1">  1       21 0.38177255E-01 0.45603399E+03</pdfrwt>
<pdfrwt beam="2">  1       21 0.29451805E-01 0.45603399E+03</pdfrwt>
<totfact> 0.67630079E+04</totfact>
</mgrwt>
</event>
<event>
 7    0  0.4748297E-002  0.4324848E+03  0.7546771E-02  0.1033078E+00
         21   -1    0    0  502  501  0.00000000000E+00  0.00000000000E+00  0.63878829190E+02  0.63878829190E+02  0.00000000000E+00 0.  1.
         21   -1    0    0  501  502 -0.00000000000E+00 -0.00000000000E+00 -0.73202288871E+03  0.73202288871E+03  0.00000000000E+00 0.  1.
      99926    2    1    2    0    0  0.00000000000E+00  0.00000000000E+00 -0.66814405952E+03  0.79590171790E+03  0.43248475151E+03 0.  0.
      99925    2    3    3    0    0  0.16730258634E+02  0.71091344462E+02 -0.33318947755E+03  0.43096890094E+03  0.26341048729E+03 0.  0.
         25    1    3    3    0    0 -0.16730258634E+02 -0.71091344462E+02 -0.33495458197E+03  0.36493281696E+03  0.12509000000E+03 0.  0.
         25    1    4    4    0    0 -0.70857289949E+01  0.32520741676E+02 -0.10436634159E+03  0.16627581770E+03  0.12509000000E+03 0.  0.
         25    1    4    4    0    0  0.23815987629E+02  0.38570602786E+02 -0.22882313596E+03  0.26469308324E+03  0.12509000000E+03 0.  0.
<mgrwt>
<rscale>  2 0.43248475E+03</rscale>
<asrwt>0</asrwt>
<pdfrwt beam="1">  1       21 0.93939455E-02 0.43248475E+03</pdfrwt>
<pdfrwt beam="2">  1       21 0.10765042E+00 0.43248475E+03</pdfrwt>
<totfact> 0.57464930E+04</totfact>
</mgrwt>
</event>
<event>
 7    0  0.4748297E-002  0.4551010E+03  0.7546771E-02  0.1026212E+00
         21   -1    0    0  502  501  0.00000000000E+00  0.00000000000E+00  0.23020841278E+03  0.23020841278E+03  0.00000000000E+00 0. -1.
         21   -1    0    0  501  502 -0.00000000000E+00 -0.00000000000E+00 -0.22492323622E+03  0.22492323622E+03  0.00000000000E+00 0. -1.
      99926    2    1    2    0    0  0.00000000000E+00 -0.71054273576E-14  0.52851765563E+01  0.45513164900E+03  0.45510096114E+03 0.  0.
      99925    2    3    3    0    0 -0.82375715797E+02 -0.50417515791E+02  0.62270124885E+02  0.28713618213E+03  0.26313862162E+03 0.  0.
         25    1    4    4    0    0 -0.34239133770E+02 -0.65618851094E+02  0.35374402442E+02  0.14958946603E+03  0.12509000000E+03 0.  0.
         25    1    3    3    0    0  0.82375715797E+02  0.50417515791E+02 -0.56984948328E+02  0.16799546687E+03  0.12509000000E+03 0.  0.
         25    1    4    4    0    0 -0.48136582026E+02  0.15201335303E+02  0.26895722443E+02  0.13754671610E+03  0.12509000000E+03 0.  0.
<mgrwt>
<rscale>  2 0.45510096E+03</rscale>
<asrwt>0</asrwt>
<pdfrwt beam="1">  1       21 0.33854179E-01 0.45510096E+03</pdfrwt>
<pdfrwt beam="2">  1       21 0.33076946E-01 0.45510096E+03</pdfrwt>
<totfact> 0.68480965E+04</totfact>
</mgrwt>
</event>
<event>
 7    0  0.4748297E-002  0.4542621E+03  0.7546771E-02  0.1026459E+00
         21   -1    0    0  502  501  0.00000000000E+00  0.00000000000E+00  0.82474149654E+02  0.82474149654E+02  0.00000000000E+00 0.  1.
         21   -1    0    0  501  502 -0.00000000000E+00 -0.00000000000E+00 -0.62551136759E+03  0.62551136759E+03  0.00000000000E+00 0.  1.
      99926    2    1    2    0    0  0.00000000000E+00  0.00000000000E+00 -0.54303721793E+03  0.70798551724E+03  0.45426211878E+03 0.  0.
      99925    2    3    3    0    0  0.69514415158E+01  0.69434151024E+02 -0.20441772930E+03  0.34031706598E+03  0.26298226837E+03 0.  0.
         25    1    4    4    0    0 -0.13095819773E+02  0.62068301392E+02 -0.74936097425E+02  0.15901855656E+03  0.12509000000E+03 0.  0.
         25    1    4    4    0    0  0.20047261289E+02  0.73658496316E+01 -0.12948163187E+03  0.18129850942E+03  0.12509000000E+03 0.  0.
         25    1    3    3    0    0 -0.69514415158E+01 -0.69434151024E+02 -0.33861948864E+03  0.36766845126E+03  0.12509000000E+03 0.  0.
<mgrwt>
<rscale>  2 0.45426212E+03</rscale>
<asrwt>0</asrwt>
<pdfrwt beam="1">  1       21 0.12128551E-01 0.45426212E+03</pdfrwt>
<pdfrwt beam="2">  1       21 0.91986966E-01 0.45426212E+03</pdfrwt>
<totfact> 0.52777286E+04</totfact>
</mgrwt>
</event>
<event>
 7    0  0.4748297E-002  0.4469432E+03  0.7546771E-02  0.1028638E+00
         21   -1    0    0  502  501  0.00000000000E+00  0.00000000000E+00  0.34270952560E+02  0.34270952560E+02  0.00000000000E+00 0.  1.
         21   -1    0    0  501  502 -0.00000000000E+00 -0.00000000000E+00 -0.14571977297E+04  0.14571977297E+04  0.00000000000E+00 0.  1.
      99926    2    1    2    0    0  0.71054273576E-14  0.00000000000E+00 -0.14229267772E+04  0.14914686823E+04  0.44694319221E+03 0.  0.
      99925    2    3    3    0    0  0.55729163394E+02  0.47787018104E+02 -0.64912811131E+03  0.70419412908E+03  0.26293103236E+03 0.  0.
         25    1    4    4    0    0  0.46850582124E+01  0.39958327065E+02 -0.39493986792E+03  0.41622544978E+03  0.12509000000E+03 0.  0.
         25    1    3    3    0    0 -0.55729163394E+02 -0.47787018104E+02 -0.77379866584E+03  0.78727455320E+03  0.12509000000E+03 0.  0.
         25    1    4    4    0    0  0.51044105182E+02  0.78286910391E+01 -0.25418824339E+03  0.28796867930E+03  0.12509000000E+03 0.  0.
<mgrwt>
<rscale>  2 0.44694319E+03</rscale>
<asrwt>0</asrwt>
<pdfrwt beam="1">  1       21 0.50398459E-02 0.44694319E+03</pdfrwt>
<pdfrwt beam="2">  1       21 0.21429379E+00 0.44694319E+03</pdfrwt>
<totfact> 0.25551021E+04</totfact>
</mgrwt>
</event>
<event>
 7    0  0.4748297E-002  0.4493357E+03  0.7546771E-02  0.1027920E+00
         21   -1    0    0  502  501  0.00000000000E+00  0.00000000000E+00  0.55810156278E+03  0.55810156278E+03  0.00000000000E+00 0. -1.
         21   -1    0    0  501  502 -0.00000000000E+00 -0.00000000000E+00 -0.90441660081E+02  0.90441660081E+02  0.00000000000E+00 0. -1.
      99926    2    1    2    0    0  0.00000000000E+00 -0.88817841970E-15  0.46765990270E+03  0.64854322286E+03  0.44933565108E+03 0.  0.
      99925    2    3    3    0    0  0.10643182281E+03 -0.75082806679E+00  0.31934765020E+03  0.42724629792E+03  0.26311248686E+03 0.  0.
         25    1    4    4    0    0  0.84744142275E+02 -0.28544172883E+02  0.16751391536E+03  0.22738680568E+03  0.12509000000E+03 0.  0.
         25    1    3    3    0    0 -0.10643182281E+03  0.75082806679E+00  0.14831225250E+03  0.22129692495E+03  0.12509000000E+03 0.  0.
         25    1    4    4    0    0  0.21687680536E+02  0.27793344817E+02  0.15183373484E+03  0.19985949224E+03  0.12509000000E+03 0.  0.
<mgrwt>
<rscale>  2 0.44933565E+03</rscale>
<asrwt>0</asrwt>
<pdfrwt beam="1">  1       21 0.82073757E-01 0.44933565E+03</pdfrwt>
<pdfrwt beam="2">  1       21 0.13300244E-01 0.44933565E+03</pdfrwt>
<totfact> 0.58349498E+04</totfact>
</mgrwt>
</event>
<event>
 7    0  0.4748297E-002  0.4579018E+03  0.7546771E-02  0.1025392E+00
         21   -1    0    0  502  501  0.00000000000E+00  0.00000000000E+00  0.22078353779E+03  0.22078353779E+03  0.00000000000E+00 0.  1.
         21   -1    0    0  501  502 -0.00000000000E+00 -0.00000000000E+00 -0.23742035014E+03  0.23742035014E+03  0.00000000000E+00 0.  1.
      99926    2    1    2    0    0  0.00000000000E+00  0.00000000000E+00 -0.16636812348E+02  0.45820388793E+03  0.45790175736E+03 0.  0.
      99925    2    3    3    0    0  0.11260113501E+03  0.24540493850E+02  0.27404145568E+01  0.28701908584E+03  0.26285203884E+03 0.  0.
         25    1    3    3    0    0 -0.11260113501E+03 -0.24540493850E+02 -0.19377226905E+02  0.17118480209E+03  0.12509000000E+03 0.  0.
         25    1    4    4    0    0  0.82184735495E+02  0.34570951109E+02 -0.23081367278E+02  0.15533750038E+03  0.12509000000E+03 0.  0.
         25    1    4    4    0    0  0.30416399520E+02 -0.10030457259E+02  0.25821781834E+02  0.13168158546E+03  0.12509000000E+03 0.  0.
<mgrwt>
<rscale>  2 0.45790176E+03</rscale>
<asrwt>0</asrwt>
<pdfrwt beam="1">  1       21 0.32468167E-01 0.45790176E+03</pdfrwt>
<pdfrwt beam="2">  1       21 0.34914757E-01 0.45790176E+03</pdfrwt>
<totfact> 0.66752772E+04</totfact>
</mgrwt>
</event>
<event>
 7    0  0.4748297E-002  0.4883387E+03  0.7546771E-02  0.1016868E+00
         21   -1    0    0  502  501  0.00000000000E+00  0.00000000000E+00  0.28039736763E+03  0.28039736763E+03  0.00000000000E+00 0. -1.
         21   -1    0    0  501  502 -0.00000000000E+00 -0.00000000000E+00 -0.21262205181E+03  0.21262205181E+03  0.00000000000E+00 0. -1.
      99926    2    1    2    0    0  0.00000000000E+00  0.14210854715E-13  0.67775315812E+02  0.49301941944E+03  0.48833866784E+03 0.  0.
      99925    2    3    3    0    0 -0.43475038542E+02  0.10551429315E+03  0.12707711293E+03  0.31361051142E+03  0.26302018023E+03 0.  0.
         25    1    4    4    0    0  0.19046437893E+02  0.55740810140E+02  0.62395222658E+02  0.15169204535E+03  0.12509000000E+03 0.  0.
         25    1    4    4    0    0 -0.62521476434E+02  0.49773483006E+02  0.64681890277E+02  0.16191846607E+03  0.12509000000E+03 0.  0.
         25    1    3    3    0    0  0.43475038542E+02 -0.10551429315E+03 -0.59301797123E+02  0.17940890802E+03  0.12509000000E+03 0.  0.
<mgrwt>
<rscale>  2 0.48833867E+03</rscale>
<asrwt>0</asrwt>
<pdfrwt beam="1">  1       21 0.41234907E-01 0.48833867E+03</pdfrwt>
<pdfrwt beam="2">  1       21 0.31267949E-01 0.48833867E+03</pdfrwt>
<totfact> 0.50893906E+04</totfact>
</mgrwt>
</event>
<event>
 7    0  0.4748297E-002  0.4479677E+03  0.7546771E-02  0.1028330E+00
         21   -1    0    0  502  501  0.00000000000E+00  0.00000000000E+00  0.14717790575E+02  0.14717790575E+02  0.00000000000E+00 0. -1.
         21   -1    0    0  501  502 -0.00000000000E+00 -0.00000000000E+00 -0.34087162626E+04  0.34087162626E+04  0.00000000000E+00 0. -1.
      99926    2    1    2    0    0  0.00000000000E+00  0.00000000000E+00 -0.33939984720E+04  0.34234340531E+04  0.44796773134E+03 0.  0.
      99925    2    3    3    0    0  0.74965096247E+02  0.31441014779E+02 -0.16247153304E+04  0.16478725515E+04  0.26301280943E+03 0.  0.
         25    1    4    4    0    0 -0.12129287070E+01  0.45809245407E+01 -0.66589333172E+03  0.67755729898E+03  0.12509000000E+03 0.  0.
         25    1    3    3    0    0 -0.74965096247E+02 -0.31441014779E+02 -0.17692831416E+04  0.17755615017E+04  0.12509000000E+03 0.  0.
         25    1    4    4    0    0  0.76178024954E+02  0.26860090239E+02 -0.95882199871E+03  0.97031525250E+03  0.12509000000E+03 0.  0.
<mgrwt>
<rscale>  2 0.44796773E+03</rscale>
<asrwt>0</asrwt>
<pdfrwt beam="1">  1       21 0.21643781E-02 0.44796773E+03</pdfrwt>
<pdfrwt beam="2">  1       21 0.50128246E+00 0.44796773E+03</pdfrwt>
<totfact> 0.15815275E+03</totfact>
</mgrwt>
</event>
<event>
 7    0  0.4748297E-002  0.4409314E+03  0.7546771E-02  0.1030461E+00
         21   -1    0    0  502  501  0.00000000000E+00  0.00000000000E+00  0.24421031816E+03  0.24421031816E+03  0.00000000000E+00 0.  1.
         21   -1    0    0  501  502 -0.00000000000E+00 -0.00000000000E+00 -0.19902978755E+03  0.19902978755E+03  0.00000000000E+00 0.  1.
      99926    2    1    2    0    0  0.00000000000E+00  0.00000000000E+00  0.45180530615E+02  0.44324010571E+03  0.44093141299E+03 0.  0.
      99925    2    3    3    0    0 -0.66363399780E+02 -0.53806690747E+02 -0.20209615008E+02  0.27824725724E+03  0.26403379864E+03 0.  0.
         25    1    3    3    0    0  0.66363399780E+02  0.53806690747E+02  0.65390145623E+02  0.16499284846E+03  0.12509000000E+03 0.  0.
         25    1    4    4    0    0 -0.10858598746E+02 -0.31483048828E+02 -0.45673062361E+02  0.13726845324E+03  0.12509000000E+03 0.  0.
         25    1    4    4    0    0 -0.55504801034E+02 -0.22323641919E+02  0.25463447353E+02  0.14097880400E+03  0.12509000000E+03 0.  0.
<mgrwt>
<rscale>  2 0.44093141E+03</rscale>
<asrwt>0</asrwt>
<pdfrwt beam="1">  1       21 0.35913282E-01 0.44093141E+03</pdfrwt>
<pdfrwt beam="2">  1       21 0.29269086E-01 0.44093141E+03</pdfrwt>
<totfact> 0.77787543E+04</totfact>
</mgrwt>
</event>
<event>
 7    0  0.4748297E-002  0.4518829E+03  0.7546771E-02  0.1027162E+00
         21   -1    0    0  502  501  0.00000000000E+00  0.00000000000E+00  0.32560228519E+03  0.32560228519E+03  0.00000000000E+00 0.  1.
         21   -1    0    0  501  502 -0.00000000000E+00 -0.00000000000E+00 -0.15678495664E+03  0.15678495664E+03  0.00000000000E+00 0.  1.
      99926    2    1    2    0    0  0.35527136788E-14  0.35527136788E-14  0.16881732856E+03  0.48238724183E+03  0.45188290591E+03 0.  0.
      99925    2    3    3    0    0  0.17860149208E+02 -0.17044535413E+02 -0.81903628179E+01  0.26423882441E+03  0.26295545852E+03 0.  0.
         25    1    3    3    0    0 -0.17860149208E+02  0.17044535413E+02  0.17700769137E+03  0.21814841742E+03  0.12509000000E+03 0.  0.
         25    1    4    4    0    0  0.30948145340E+02 -0.36763442949E+02  0.14981415643E+02  0.13483801153E+03  0.12509000000E+03 0.  0.
         25    1    4    4    0    0 -0.13087996132E+02  0.19718907536E+02 -0.23171778461E+02  0.12940081288E+03  0.12509000000E+03 0.  0.
<mgrwt>
<rscale>  2 0.45188291E+03</rscale>
<asrwt>0</asrwt>
<pdfrwt beam="1">  1       21 0.47882689E-01 0.45188291E+03</pdfrwt>
<pdfrwt beam="2">  1       21 0.23056611E-01 0.45188291E+03</pdfrwt>
<totfact> 0.68198705E+04</totfact>
</mgrwt>
</event>
<event>
 7    0  0.4748297E-002  0.4114510E+03  0.7546771E-02  0.1039885E+00
         21   -1    0    0  502  501  0.00000000000E+00  0.00000000000E+00  0.21440653778E+03  0.21440653778E+03  0.00000000000E+00 0. -1.
         21   -1    0    0  501  502 -0.00000000000E+00 -0.00000000000E+00 -0.19739597791E+03  0.19739597791E+03  0.00000000000E+00 0. -1.
      99926    2    1    2    0    0  0.71054273576E-14  0.33306690739E-15  0.17010559868E+02  0.41180251568E+03  0.41145103327E+03 0.  0.
      99925    2    3    3    0    0  0.54762134237E+02  0.41114621435E+00  0.45031216169E+02  0.27240479093E+03  0.26301615788E+03 0.  0.
         25    1    4    4    0    0  0.64751574614E+02 -0.92875319951E+01  0.38760702505E+02  0.14638621801E+03  0.12509000000E+03 0.  0.
         25    1    3    3    0    0 -0.54762134237E+02 -0.41114621435E+00 -0.28020656301E+02  0.13939772476E+03  0.12509000000E+03 0.  0.
         25    1    4    4    0    0 -0.99894403771E+01  0.96986782095E+01  0.62705136646E+01  0.12601857292E+03  0.12509000000E+03 0.  0.
<mgrwt>
<rscale>  2 0.41145103E+03</rscale>
<asrwt>0</asrwt>
<pdfrwt beam="1">  1       21 0.31530373E-01 0.41145103E+03</pdfrwt>
<pdfrwt beam="2">  1       21 0.29028820E-01 0.41145103E+03</pdfrwt>
<totfact> 0.10333746E+05</totfact>
</mgrwt>
</event>
<event>
 7    0  0.4748297E-002  0.4591448E+03  0.7546771E-02  0.1025030E+00
         21   -1    0    0  502  501  0.00000000000E+00  0.00000000000E+00  0.84420615180E+02  0.84420615180E+02  0.00000000000E+00 0.  1.
         21   -1    0    0  501  502 -0.00000000000E+00 -0.00000000000E+00 -0.62429636554E+03  0.62429636554E+03  0.00000000000E+00 0.  1.
      99926    2    1    2    0    0  0.00000000000E+00  0.00000000000E+00 -0.53987575036E+03  0.70871698072E+03  0.45914478428E+03 0.  0.
      99925    2    3    3    0    0  0.77962684653E+02  0.75985230225E+02 -0.40460148423E+03  0.49471097475E+03  0.26302975515E+03 0.  0.
         25    1    4    4    0    0  0.40281435002E+01  0.19118518283E+02 -0.21082992956E+03  0.24592379100E+03  0.12509000000E+03 0.  0.
         25    1    3    3    0    0 -0.77962684653E+02 -0.75985230225E+02 -0.13527426613E+03  0.21400600596E+03  0.12509000000E+03 0.  0.
         25    1    4    4    0    0  0.73934541153E+02  0.56866711942E+02 -0.19377155467E+03  0.24878718376E+03  0.12509000000E+03 0.  0.
<mgrwt>
<rscale>  2 0.45914478E+03</rscale>
<asrwt>0</asrwt>
<pdfrwt beam="1">  1       21 0.12414796E-01 0.45914478E+03</pdfrwt>
<pdfrwt beam="2">  1       21 0.91808291E-01 0.45914478E+03</pdfrwt>
<totfact> 0.50756638E+04</totfact>
</mgrwt>
</event>
<event>
 7    0  0.4748297E-002  0.4429844E+03  0.7546771E-02  0.1029835E+00
         21   -1    0    0  502  501  0.00000000000E+00  0.00000000000E+00  0.88247643653E+02  0.88247643653E+02  0.00000000000E+00 0. -1.
         21   -1    0    0  501  502 -0.00000000000E+00 -0.00000000000E+00 -0.55592196644E+03  0.55592196644E+03  0.00000000000E+00 0. -1.
      99926    2    1    2    0    0  0.00000000000E+00  0.00000000000E+00 -0.46767432278E+03  0.64416961009E+03  0.44298444033E+03 0.  0.
      99925    2    3    3    0    0 -0.15811484461E+02  0.25496055426E+02 -0.43851370876E+03  0.51226850549E+03  0.26310586666E+03 0.  0.
         25    1    3    3    0    0  0.15811484461E+02 -0.25496055426E+02 -0.29160614028E+02  0.13190110460E+03  0.12509000000E+03 0.  0.
         25    1    4    4    0    0 -0.14944463612E+02  0.52156317829E+02 -0.24286235254E+03  0.27851974591E+03  0.12509000000E+03 0.  0.
         25    1    4    4    0    0 -0.86702084834E+00 -0.26660262403E+02 -0.19565135622E+03  0.23374875958E+03  0.12509000000E+03 0.  0.
<mgrwt>
<rscale>  2 0.44298444E+03</rscale>
<asrwt>0</asrwt>
<pdfrwt beam="1">  1       21 0.12977595E-01 0.44298444E+03</pdfrwt>
<pdfrwt beam="2">  1       21 0.81753229E-01 0.44298444E+03</pdfrwt>
<totfact> 0.61681259E+04</totfact>
</mgrwt>
</event>
<event>
 7    0  0.4748297E-002  0.4560869E+03  0.7546771E-02  0.1025922E+00
         21   -1    0    0  502  501  0.00000000000E+00  0.00000000000E+00  0.15679321262E+03  0.15679321262E+03  0.00000000000E+00 0.  1.
         21   -1    0    0  501  502 -0.00000000000E+00 -0.00000000000E+00 -0.33167134901E+03  0.33167134901E+03  0.00000000000E+00 0.  1.
      99926    2    1    2    0    0  0.00000000000E+00  0.00000000000E+00 -0.17487813639E+03  0.48846456163E+03  0.45608690551E+03 0.  0.
      99925    2    3    3    0    0 -0.65157308830E+02  0.28851124093E+02 -0.20545944798E+03  0.34128920033E+03  0.26303397355E+03 0.  0.
         25    1    4    4    0    0 -0.88608359141E+01  0.42211101268E+02 -0.12314803233E+03  0.18075739943E+03  0.12509000000E+03 0.  0.
         25    1    3    3    0    0  0.65157308830E+02 -0.28851124093E+02  0.30581311585E+02  0.14717536130E+03  0.12509000000E+03 0.  0.
         25    1    4    4    0    0 -0.56296472915E+02 -0.13359977175E+02 -0.82311415652E+02  0.16053180090E+03  0.12509000000E+03 0.  0.
<mgrwt>
<rscale>  2 0.45608691E+03</rscale>
<asrwt>0</asrwt>
<pdfrwt beam="1">  1       21 0.23057825E-01 0.45608691E+03</pdfrwt>
<pdfrwt beam="2">  1       21 0.48775199E-01 0.45608691E+03</pdfrwt>
<totfact> 0.65521731E+04</totfact>
</mgrwt>
</event>
<event>
 7    0  0.4748297E-002  0.4581299E+03  0.7546771E-02  0.1025325E+00
         21   -1    0    0  502  501  0.00000000000E+00  0.00000000000E+00  0.86227003108E+02  0.86227003108E+02  0.00000000000E+00 0.  1.
         21   -1    0    0  501  502 -0.00000000000E+00 -0.00000000000E+00 -0.60851873379E+03  0.60851873379E+03  0.00000000000E+00 0.  1.
      99926    2    1    2    0    0  0.00000000000E+00  0.00000000000E+00 -0.52229173068E+03  0.69474573690E+03  0.45812988005E+03 0.  0.
      99925    2    3    3    0    0  0.89196221178E+02  0.36911702934E+02 -0.42557655014E+03  0.50948976821E+03  0.26295624008E+03 0.  0.
         25    1    4    4    0    0  0.76419711201E+02  0.20637748040E+02 -0.17947036406E+03  0.23264352254E+03  0.12509000000E+03 0.  0.
         25    1    4    4    0    0  0.12776509977E+02  0.16273954895E+02 -0.24610618609E+03  0.27684624568E+03  0.12509000000E+03 0.  0.
         25    1    3    3    0    0 -0.89196221178E+02 -0.36911702934E+02 -0.96715180536E+02  0.18525596868E+03  0.12509000000E+03 0.  0.
<mgrwt>
<rscale>  2 0.45812988E+03</rscale>
<asrwt>0</asrwt>
<pdfrwt beam="1">  1       21 0.12680442E-01 0.45812988E+03</pdfrwt>
<pdfrwt beam="2">  1       21 0.89488049E-01 0.45812988E+03</pdfrwt>
<totfact> 0.51898782E+04</totfact>
</mgrwt>
</event>
<event>
 7    0  0.4748297E-002  0.4493216E+03  0.7546771E-02  0.1027925E+00
         21   -1    0    0  502  501  0.00000000000E+00  0.00000000000E+00  0.36368687701E+03  0.36368687701E+03  0.00000000000E+00 0.  1.
         21   -1    0    0  501  502 -0.00000000000E+00 -0.00000000000E+00 -0.13878000070E+03  0.13878000070E+03  0.00000000000E+00 0.  1.
      99926    2    1    2    0    0  0.71054273576E-14  0.00000000000E+00  0.22490687632E+03  0.50246687771E+03  0.44932155544E+03 0.  0.
      99925    2    3    3    0    0 -0.50401499609E+02  0.34745721751E+02  0.43064604132E+02  0.27342169353E+03  0.26297772913E+03 0.  0.
         25    1    4    4    0    0 -0.63824662510E+02  0.43685338281E+01  0.18974543681E+02  0.14177522012E+03  0.12509000000E+03 0.  0.
         25    1    3    3    0    0  0.50401499609E+02 -0.34745721751E+02  0.18184227218E+03  0.22904518418E+03  0.12509000000E+03 0.  0.
         25    1    4    4    0    0  0.13423162902E+02  0.30377187923E+02  0.24090060452E+02  0.13164647341E+03  0.12509000000E+03 0.  0.
<mgrwt>
<rscale>  2 0.44932156E+03</rscale>
<asrwt>0</asrwt>
<pdfrwt beam="1">  1       21 0.53483364E-01 0.44932156E+03</pdfrwt>
<pdfrwt beam="2">  1       21 0.20408824E-01 0.44932156E+03</pdfrwt>
<totfact> 0.68116367E+04</totfact>
</mgrwt>
</event>
<event>
 7    0  0.4748297E-002  0.4589940E+03  0.7546771E-02  0.1025073E+00
         21   -1    0    0  502  501  0.00000000000E+00  0.00000000000E+00  0.78174017141E+03  0.78174017141E+03  0.00000000000E+00 0. -1.
         21   -1    0    0  501  502 -0.00000000000E+00 -0.00000000000E+00 -0.67373875088E+02  0.67373875088E+02  0.00000000000E+00 0. -1.
      99926    2    1    2    0    0  0.00000000000E+00  0.00000000000E+00  0.71436629633E+03  0.84911404650E+03  0.45899396362E+03 0.  0.
      99925    2    3    3    0    0 -0.48521137764E+02 -0.10438411130E+03  0.48580387157E+03  0.56426560678E+03  0.26294472777E+03 0.  0.
         25    1    4    4    0    0 -0.59504843228E+02 -0.41044204171E+02  0.21354419997E+03  0.25782569016E+03  0.12509000000E+03 0.  0.
         25    1    4    4    0    0  0.10983705463E+02 -0.63339907129E+02  0.27225967160E+03  0.30643991663E+03  0.12509000000E+03 0.  0.
         25    1    3    3    0    0  0.48521137764E+02  0.10438411130E+03  0.22856242475E+03  0.28484843972E+03  0.12509000000E+03 0.  0.
<mgrwt>
<rscale>  2 0.45899396E+03</rscale>
<asrwt>0</asrwt>
<pdfrwt beam="1">  1       21 0.11496178E+00 0.45899396E+03</pdfrwt>
<pdfrwt beam="2">  1       21 0.99079233E-02 0.45899396E+03</pdfrwt>
<totfact> 0.44081580E+04</totfact>
</mgrwt>
</event>
<event>
 7    0  0.4748297E-002  0.4516459E+03  0.7546771E-02  0.1027232E+00
         21   -1    0    0  502  501  0.00000000000E+00  0.00000000000E+00  0.49639545489E+02  0.49639545489E+02  0.00000000000E+00 0. -1.
         21   -1    0    0  501  502 -0.00000000000E+00 -0.00000000000E+00 -0.10273259655E+04  0.10273259655E+04  0.00000000000E+00 0. -1.
      99926    2    1    2    0    0  0.00000000000E+00  0.00000000000E+00 -0.97768642002E+03  0.10769655110E+04  0.45164585240E+03 0.  0.
      99925    2    3    3    0    0 -0.44330575375E+02 -0.10023595571E+03 -0.63862430427E+03  0.69931081002E+03  0.26302501835E+03 0.  0.
         25    1    3    3    0    0  0.44330575375E+02  0.10023595571E+03 -0.33906211575E+03  0.37765470098E+03  0.12509000000E+03 0.  0.
         25    1    4    4    0    0  0.11374926424E+02 -0.25605138751E+02 -0.31446973232E+03  0.33959348158E+03  0.12509000000E+03 0.  0.
         25    1    4    4    0    0 -0.55705501799E+02 -0.74630816962E+02 -0.32415457195E+03  0.35971732845E+03  0.12509000000E+03 0.  0.
<mgrwt>
<rscale>  2 0.45164585E+03</rscale>
<asrwt>0</asrwt>
<pdfrwt beam="1">  1       21 0.72999324E-02 0.45164585E+03</pdfrwt>
<pdfrwt beam="2">  1       21 0.15107736E+00 0.45164585E+03</pdfrwt>
<totfact> 0.37269141E+04</totfact>
</mgrwt>
</event>
<event>
 7    0  0.5166323E-002  0.4230077E+03  0.7546771E-02  0.1036092E+00
         21   -1    0    0  502  501  0.00000000000E+00  0.00000000000E+00  0.85752775544E+02  0.85752775544E+02  0.00000000000E+00 0. -1.
         21   -1    0    0  501  502 -0.00000000000E+00 -0.00000000000E+00 -0.52166108119E+03  0.52166108119E+03  0.00000000000E+00 0. -1.
      99926    2    1    2    0    0  0.35527136788E-14  0.00000000000E+00 -0.43590830564E+03  0.60741385673E+03  0.42300773329E+03 0.  0.
      99925    2    3    3    0    0  0.29570233693E+02  0.71379001468E+02 -0.31071155416E+03  0.41430483246E+03  0.26294003830E+03 0.  0.
         25    1    4    4    0    0  0.35816163515E+02  0.62793959852E+02 -0.20128664651E+03  0.24776945156E+03  0.12509000000E+03 0.  0.
         25    1    4    4    0    0 -0.62459298221E+01  0.85850416156E+01 -0.10942490765E+03  0.16653538090E+03  0.12509000000E+03 0.  0.
         25    1    3    3    0    0 -0.29570233693E+02 -0.71379001468E+02 -0.12519675149E+03  0.19310902427E+03  0.12509000000E+03 0.  0.
<mgrwt>
<rscale>  2 0.42300773E+03</rscale>
<asrwt>0</asrwt>
<pdfrwt beam="1">  1       21 0.12610703E-01 0.42300773E+03</pdfrwt>
<pdfrwt beam="2">  1       21 0.76714861E-01 0.42300773E+03</pdfrwt>
<totfact> 0.75586511E+04</totfact>
</mgrwt>
</event>
<event>
 7    0  0.4748297E-002  0.4278781E+03  0.7546771E-02  0.1034532E+00
         21   -1    0    0  502  501  0.00000000000E+00  0.00000000000E+00  0.44417740923E+03  0.44417740923E+03  0.00000000000E+00 0.  1.
         21   -1    0    0  501  502 -0.00000000000E+00 -0.00000000000E+00 -0.10304423431E+03  0.10304423431E+03  0.00000000000E+00 0.  1.
      99926    2    1    2    0    0  0.00000000000E+00 -0.17763568394E-14  0.34113317492E+03  0.54722164354E+03  0.42787811831E+03 0.  0.
      99925    2    3    3    0    0 -0.22081971449E+01  0.14977448083E+02  0.32776173283E+03  0.42051132963E+03  0.26300727130E+03 0.  0.
         25    1    3    3    0    0  0.22081971449E+01 -0.14977448083E+02  0.13371442088E+02  0.12671031390E+03  0.12509000000E+03 0.  0.
         25    1    4    4    0    0 -0.32198008872E+02 -0.16689652265E+02  0.14689490339E+03  0.19631830533E+03  0.12509000000E+03 0.  0.
         25    1    4    4    0    0  0.29989811727E+02  0.31667100349E+02  0.18086682944E+03  0.22419302430E+03  0.12509000000E+03 0.  0.
<mgrwt>
<rscale>  2 0.42787812E+03</rscale>
<asrwt>0</asrwt>
<pdfrwt beam="1">  1       21 0.65320206E-01 0.42787812E+03</pdfrwt>
<pdfrwt beam="2">  1       21 0.15153564E-01 0.42787812E+03</pdfrwt>
<totfact> 0.77363142E+04</totfact>
</mgrwt>
</event>
<event>
 7    0  0.4748297E-002  0.4583947E+03  0.7546771E-02  0.1025248E+00
         21   -1    0    0  502  501  0.00000000000E+00  0.00000000000E+00  0.15771527165E+03  0.15771527165E+03  0.00000000000E+00 0.  1.
         21   -1    0    0  501  502 -0.00000000000E+00 -0.00000000000E+00 -0.33307767934E+03  0.33307767934E+03  0.00000000000E+00 0.  1.
      99926    2    1    2    0    0  0.00000000000E+00  0.00000000000E+00 -0.17536240769E+03  0.49079295099E+03  0.45839474987E+03 0.  0.
      99925    2    3    3    0    0 -0.76689191623E+02 -0.81623182155E+02 -0.76330724889E+02  0.29586127507E+03  0.26299037729E+03 0.  0.
         25    1    4    4    0    0 -0.63260900506E+01 -0.57674309477E+02 -0.56471024472E+02  0.14900614113E+03  0.12509000000E+03 0.  0.
         25    1    3    3    0    0  0.76689191623E+02  0.81623182155E+02 -0.99031682801E+02  0.19493167592E+03  0.12509000000E+03 0.  0.
         25    1    4    4    0    0 -0.70363101573E+02 -0.23948872678E+02 -0.19859700417E+02  0.14685513395E+03  0.12509000000E+03 0.  0.
<mgrwt>
<rscale>  2 0.45839475E+03</rscale>
<asrwt>0</asrwt>
<pdfrwt beam="1">  1       21 0.23193423E-01 0.45839475E+03</pdfrwt>
<pdfrwt beam="2">  1       21 0.48982011E-01 0.45839475E+03</pdfrwt>
<totfact> 0.64175424E+04</totfact>
</mgrwt>
</event>
<event>
 7    0  0.4748297E-002  0.4687818E+03  0.7546771E-02  0.1022265E+00
         21   -1    0    0  502  501  0.00000000000E+00  0.00000000000E+00  0.18858648705E+04  0.18858648705E+04  0.00000000000E+00 0. -1.
         21   -1    0    0  501  502 -0.00000000000E+00 -0.00000000000E+00 -0.29132039386E+02  0.29132039386E+02  0.00000000000E+00 0. -1.
      99926    2    1    2    0    0  0.00000000000E+00  0.00000000000E+00  0.18567328311E+04  0.19149969099E+04  0.46878178157E+03 0.  0.
      99925    2    3    3    0    0 -0.64139261972E+02  0.10399694596E+03  0.12739277890E+04  0.13065246961E+04  0.26303148161E+03 0.  0.
         25    1    4    4    0    0 -0.57221082297E+02  0.85104469792E+02  0.78099229339E+03  0.79756723445E+03  0.12509000000E+03 0.  0.
         25    1    3    3    0    0  0.64139261972E+02 -0.10399694596E+03  0.58280504209E+03  0.60847221373E+03  0.12509000000E+03 0.  0.
         25    1    4    4    0    0 -0.69181796753E+01  0.18892476171E+02  0.49293549561E+03  0.50895746168E+03  0.12509000000E+03 0.  0.
<mgrwt>
<rscale>  2 0.46878178E+03</rscale>
<asrwt>0</asrwt>
<pdfrwt beam="1">  1       21 0.27733299E+00 0.46878178E+03</pdfrwt>
<pdfrwt beam="2">  1       21 0.42841247E-02 0.46878178E+03</pdfrwt>
<totfact> 0.13630325E+04</totfact>
</mgrwt>
</event>
<event>
 7    0  0.4748297E-002  0.4441873E+03  0.7546771E-02  0.1029470E+00
         21   -1    0    0  502  501  0.00000000000E+00  0.00000000000E+00  0.10353346323E+04  0.10353346323E+04  0.00000000000E+00 0.  1.
         21   -1    0    0  501  502 -0.00000000000E+00 -0.00000000000E+00 -0.47642168409E+02  0.47642168409E+02  0.00000000000E+00 0.  1.
      99926    2    1    2    0    0 -0.14210854715E-13  0.00000000000E+00  0.98769246390E+03  0.10829768007E+04  0.44418728893E+03 0.  0.
      99925    2    3    3    0    0 -0.96892271328E+02 -0.33628870191E+02  0.61444976064E+03  0.67618860424E+03  0.26298955684E+03 0.  0.
         25    1    3    3    0    0  0.96892271328E+02  0.33628870191E+02  0.37324270327E+03  0.40678819648E+03  0.12509000000E+03 0.  0.
         25    1    4    4    0    0 -0.55253002177E+02 -0.13375413344E+01  0.39656357952E+03  0.41948166106E+03  0.12509000000E+03 0.  0.
         25    1    4    4    0    0 -0.41639269151E+02 -0.32291328856E+02  0.21788618112E+03  0.25670694318E+03  0.12509000000E+03 0.  0.
<mgrwt>
<rscale>  2 0.44418729E+03</rscale>
<asrwt>0</asrwt>
<pdfrwt beam="1">  1       21 0.15225508E+00 0.44418729E+03</pdfrwt>
<pdfrwt beam="2">  1       21 0.70062019E-02 0.44418729E+03</pdfrwt>
<totfact> 0.39302688E+04</totfact>
</mgrwt>
</event>
<event>
 7    0  0.4748297E-002  0.4363236E+03  0.7546771E-02  0.1031881E+00
         21   -1    0    0  502  501  0.00000000000E+00  0.00000000000E+00  0.27294479707E+02  0.27294479707E+02  0.00000000000E+00 0.  1.
         21   -1    0    0  501  502 -0.00000000000E+00 -0.00000000000E+00 -0.17437438651E+04  0.17437438651E+04  0.00000000000E+00 0.  1.
      99926    2    1    2    0    0  0.17763568394E-14  0.71054273576E-14 -0.17164493854E+04  0.17710383448E+04  0.43632364841E+03 0.  0.
      99925    2    3    3    0    0 -0.90891967484E+01 -0.32390492054E+02 -0.14587727999E+04  0.14826350018E+04  0.26278643271E+03 0.  0.
         25    1    3    3    0    0  0.90891967484E+01  0.32390492054E+02 -0.25767658547E+03  0.28840334303E+03  0.12509000000E+03 0.  0.
         25    1    4    4    0    0  0.63913108958E+01 -0.54825230996E+02 -0.78057140663E+03  0.79245560365E+03  0.12509000000E+03 0.  0.
         25    1    4    4    0    0 -0.15480507644E+02  0.22434738942E+02 -0.67820139327E+03  0.69017939810E+03  0.12509000000E+03 0.  0.
<mgrwt>
<rscale>  2 0.43632365E+03</rscale>
<asrwt>0</asrwt>
<pdfrwt beam="1">  1       21 0.40138953E-02 0.43632365E+03</pdfrwt>
<pdfrwt beam="2">  1       21 0.25643284E+00 0.43632365E+03</pdfrwt>
<totfact> 0.20658995E+04</totfact>
</mgrwt>
</event>
<event>
 7    0  0.4748297E-002  0.4551151E+03  0.7546771E-02  0.1026208E+00
         21   -1    0    0  502  501  0.00000000000E+00  0.00000000000E+00  0.90140275665E+03  0.90140275665E+03  0.00000000000E+00 0.  1.
         21   -1    0    0  501  502 -0.00000000000E+00 -0.00000000000E+00 -0.57446517677E+02  0.57446517677E+02  0.00000000000E+00 0.  1.
      99926    2    1    2    0    0  0.00000000000E+00  0.00000000000E+00  0.84395623897E+03  0.95884927432E+03  0.45511514760E+03 0.  0.
      99925    2    3    3    0    0 -0.65545838691E+02 -0.75965681724E+02  0.64144664476E+03  0.70053805580E+03  0.26312112758E+03 0.  0.
         25    1    4    4    0    0 -0.21437458042E+01 -0.59612238556E+02  0.35760667029E+03  0.38352086432E+03  0.12509000000E+03 0.  0.
         25    1    4    4    0    0 -0.63402092887E+02 -0.16353443168E+02  0.28383997447E+03  0.31701719148E+03  0.12509000000E+03 0.  0.
         25    1    3    3    0    0  0.65545838691E+02  0.75965681724E+02  0.20250959421E+03  0.25831121853E+03  0.12509000000E+03 0.  0.
<mgrwt>
<rscale>  2 0.45511515E+03</rscale>
<asrwt>0</asrwt>
<pdfrwt beam="1">  1       21 0.13255922E+00 0.45511515E+03</pdfrwt>
<pdfrwt beam="2">  1       21 0.84480179E-02 0.45511515E+03</pdfrwt>
<totfact> 0.40747863E+04</totfact>
</mgrwt>
</event>
<event>
 7    0  0.4748297E-002  0.4533647E+03  0.7546771E-02  0.1026723E+00
         21   -1    0    0  502  501  0.00000000000E+00  0.00000000000E+00  0.11693198468E+04  0.11693198468E+04  0.00000000000E+00 0. -1.
         21   -1    0    0  501  502 -0.00000000000E+00 -0.00000000000E+00 -0.43944256369E+02  0.43944256369E+02  0.00000000000E+00 0. -1.
      99926    2    1    2    0    0  0.00000000000E+00  0.00000000000E+00  0.11253755904E+04  0.12132641032E+04  0.45336471466E+03 0.  0.
      99925    2    3    3    0    0 -0.93179089675E+02  0.40863313397E+02  0.58696186010E+03  0.65122406345E+03  0.26309010334E+03 0.  0.
         25    1    4    4    0    0 -0.63204914601E+02  0.59078740698E+02  0.30930593648E+03  0.34467786304E+03  0.12509000000E+03 0.  0.
         25    1    3    3    0    0  0.93179089675E+02 -0.40863313397E+02  0.53841373033E+03  0.56204003972E+03  0.12509000000E+03 0.  0.
         25    1    4    4    0    0 -0.29974175074E+02 -0.18215427301E+02  0.27765592362E+03  0.30654620041E+03  0.12509000000E+03 0.  0.
<mgrwt>
<rscale>  2 0.45336471E+03</rscale>
<asrwt>0</asrwt>
<pdfrwt beam="1">  1       21 0.17195878E+00 0.45336471E+03</pdfrwt>
<pdfrwt beam="2">  1       21 0.64623914E-02 0.45336471E+03</pdfrwt>
<totfact> 0.32145857E+04</totfact>
</mgrwt>
</event>
<event>
 7    0  0.4748297E-002  0.4553053E+03  0.7546771E-02  0.1026152E+00
         21   -1    0    0  502  501  0.00000000000E+00  0.00000000000E+00  0.70693856197E+02  0.70693856197E+02  0.00000000000E+00 0.  1.
         21   -1    0    0  501  502 -0.00000000000E+00 -0.00000000000E+00 -0.73310084416E+03  0.73310084416E+03  0.00000000000E+00 0.  1.
      99926    2    1    2    0    0  0.00000000000E+00  0.00000000000E+00 -0.66240698796E+03  0.80379470036E+03  0.45530528508E+03 0.  0.
      99925    2    3    3    0    0 -0.92128466110E+02 -0.16945230117E+02 -0.52952467290E+03  0.59866056656E+03  0.26310321103E+03 0.  0.
         25    1    4    4    0    0 -0.78484952425E+02 -0.62756892467E+00 -0.22948294122E+03  0.27289230479E+03  0.12509000000E+03 0.  0.
         25    1    3    3    0    0  0.92128466110E+02  0.16945230117E+02 -0.13288231507E+03  0.20513413380E+03  0.12509000000E+03 0.  0.
         25    1    4    4    0    0 -0.13643513685E+02 -0.16317661192E+02 -0.30004173168E+03  0.32576826178E+03  0.12509000000E+03 0.  0.
<mgrwt>
<rscale>  2 0.45530529E+03</rscale>
<asrwt>0</asrwt>
<pdfrwt beam="1">  1       21 0.10396155E-01 0.45530529E+03</pdfrwt>
<pdfrwt beam="2">  1       21 0.10780895E+00 0.45530529E+03</pdfrwt>
<totfact> 0.47467984E+04</totfact>
</mgrwt>
</event>
<event>
 7    0  0.4748297E-002  0.4537052E+03  0.7546771E-02  0.1026623E+00
         21   -1    0    0  502  501  0.00000000000E+00  0.00000000000E+00  0.25557286977E+03  0.25557286977E+03  0.00000000000E+00 0.  1.
         21   -1    0    0  501  502 -0.00000000000E+00 -0.00000000000E+00 -0.20135983610E+03  0.20135983610E+03  0.00000000000E+00 0.  1.
      99926    2    1    2    0    0  0.00000000000E+00  0.00000000000E+00  0.54213033666E+02  0.45693270587E+03  0.45370523985E+03 0.  0.
      99925    2    3    3    0    0  0.64869891011E+02 -0.77840113035E+02  0.82552677307E+02  0.29347681133E+03  0.26276702286E+03 0.  0.
         25    1    3    3    0    0 -0.64869891011E+02  0.77840113035E+02 -0.28339643641E+02  0.16345589454E+03  0.12509000000E+03 0.  0.
         25    1    4    4    0    0  0.37089442079E+02 -0.59228761452E+01  0.14072627320E+02  0.13136306222E+03  0.12509000000E+03 0.  0.
         25    1    4    4    0    0  0.27780448932E+02 -0.71917236890E+02  0.68480049986E+02  0.16211374911E+03  0.12509000000E+03 0.  0.
<mgrwt>
<rscale>  2 0.45370524E+03</rscale>
<asrwt>0</asrwt>
<pdfrwt beam="1">  1       21 0.37584246E-01 0.45370524E+03</pdfrwt>
<pdfrwt beam="2">  1       21 0.29611741E-01 0.45370524E+03</pdfrwt>
<totfact> 0.69115537E+04</totfact>
</mgrwt>
</event>
<event>
 7    0  0.4748297E-002  0.4577299E+03  0.7546771E-02  0.1025442E+00
         21   -1    0    0  502  501  0.00000000000E+00  0.00000000000E+00  0.96172333553E+02  0.96172333553E+02  0.00000000000E+00 0.  1.
         21   -1    0    0  501  502 -0.00000000000E+00 -0.00000000000E+00 -0.54463850245E+03  0.54463850245E+03  0.00000000000E+00 0.  1.
      99926    2    1    2    0    0  0.00000000000E+00  0.00000000000E+00 -0.44846616890E+03  0.64081083600E+03  0.45772985799E+03 0.  0.
      99925    2    3    3    0    0 -0.75675033511E+02  0.87534587859E+02 -0.28283486896E+03  0.40317613655E+03  0.26299509351E+03 0.  0.
         25    1    3    3    0    0  0.75675033511E+02 -0.87534587859E+02 -0.16563129994E+03  0.23763469946E+03  0.12509000000E+03 0.  0.
         25    1    4    4    0    0 -0.25740905410E+02  0.33492100172E+01 -0.11182388451E+03  0.16978192091E+03  0.12509000000E+03 0.  0.
         25    1    4    4    0    0 -0.49934128101E+02  0.84185377842E+02 -0.17101098445E+03  0.23339421564E+03  0.12509000000E+03 0.  0.
<mgrwt>
<rscale>  2 0.45772986E+03</rscale>
<asrwt>0</asrwt>
<pdfrwt beam="1">  1       21 0.14142990E-01 0.45772986E+03</pdfrwt>
<pdfrwt beam="2">  1       21 0.80093896E-01 0.45772986E+03</pdfrwt>
<totfact> 0.55038705E+04</totfact>
</mgrwt>
</event>
<event>
 7    0  0.4748297E-002  0.4552540E+03  0.7546771E-02  0.1026167E+00
         21   -1    0    0  502  501  0.00000000000E+00  0.00000000000E+00  0.37412605655E+03  0.37412605655E+03  0.00000000000E+00 0.  1.
         21   -1    0    0  501  502 -0.00000000000E+00 -0.00000000000E+00 -0.13849354254E+03  0.13849354254E+03  0.00000000000E+00 0.  1.
      99926    2    1    2    0    0  0.00000000000E+00  0.14210854715E-13  0.23563251400E+03  0.51261959909E+03  0.45525396397E+03 0.  0.
      99925    2    3    3    0    0  0.30292662644E+02  0.10912436967E+03  0.15486957000E+03  0.32554759506E+03  0.26300357312E+03 0.  0.
         25    1    4    4    0    0  0.11890049203E+02  0.29241448899E+02  0.34437722736E+02  0.13352865030E+03  0.12509000000E+03 0.  0.
         25    1    4    4    0    0  0.18402613441E+02  0.79882920773E+02  0.12043184726E+03  0.19201894476E+03  0.12509000000E+03 0.  0.
         25    1    3    3    0    0 -0.30292662644E+02 -0.10912436967E+03  0.80762944006E+02  0.18707200403E+03  0.12509000000E+03 0.  0.
<mgrwt>
<rscale>  2 0.45525396E+03</rscale>
<asrwt>0</asrwt>
<pdfrwt beam="1">  1       21 0.55018537E-01 0.45525396E+03</pdfrwt>
<pdfrwt beam="2">  1       21 0.20366698E-01 0.45525396E+03</pdfrwt>
<totfact> 0.64263269E+04</totfact>
</mgrwt>
</event>
<event>
 7    0  0.4748297E-002  0.4481634E+03  0.7546771E-02  0.1028271E+00
         21   -1    0    0  502  501  0.00000000000E+00  0.00000000000E+00  0.25404047137E+03  0.25404047137E+03  0.00000000000E+00 0. -1.
         21   -1    0    0  501  502 -0.00000000000E+00 -0.00000000000E+00 -0.19765593885E+03  0.19765593885E+03  0.00000000000E+00 0. -1.
      99926    2    1    2    0    0 -0.35527136788E-14  0.00000000000E+00  0.56384532519E+02  0.45169641022E+03  0.44816339821E+03 0.  0.
      99925    2    3    3    0    0 -0.26638093262E+02  0.83399542371E+02  0.97241329635E+02  0.29363990877E+03  0.26287534717E+03 0.  0.
         25    1    4    4    0    0  0.25841282708E+02  0.35881600007E+02  0.36552635418E+02  0.13761854660E+03  0.12509000000E+03 0.  0.
         25    1    4    4    0    0 -0.52479375970E+02  0.47517942364E+02  0.60688694216E+02  0.15602136217E+03  0.12509000000E+03 0.  0.
         25    1    3    3    0    0  0.26638093262E+02 -0.83399542371E+02 -0.40856797115E+02  0.15805650145E+03  0.12509000000E+03 0.  0.
<mgrwt>
<rscale>  2 0.44816340E+03</rscale>
<asrwt>0</asrwt>
<pdfrwt beam="1">  1       21 0.37358893E-01 0.44816340E+03</pdfrwt>
<pdfrwt beam="2">  1       21 0.29067050E-01 0.44816340E+03</pdfrwt>
<totfact> 0.72672032E+04</totfact>
</mgrwt>
</event>
<event>
 7    0  0.4748297E-002  0.4449445E+03  0.7546771E-02  0.1029240E+00
         21   -1    0    0  502  501  0.00000000000E+00  0.00000000000E+00  0.58606189405E+03  0.58606189405E+03  0.00000000000E+00 0.  1.
         21   -1    0    0  501  502 -0.00000000000E+00 -0.00000000000E+00 -0.84451661499E+02  0.84451661499E+02  0.00000000000E+00 0.  1.
      99926    2    1    2    0    0  0.00000000000E+00  0.00000000000E+00  0.50161023255E+03  0.67051355555E+03  0.44494449404E+03 0.  0.
      99925    2    3    3    0    0  0.60272080414E+01 -0.10085718689E+03  0.35190679425E+03  0.45081574736E+03  0.26303601815E+03 0.  0.
         25    1    4    4    0    0  0.70476617697E+01 -0.38329088229E+02  0.10858814215E+03  0.17016956619E+03  0.12509000000E+03 0.  0.
         25    1    4    4    0    0 -0.10204537283E+01 -0.62528098656E+02  0.24331865210E+03  0.28064618118E+03  0.12509000000E+03 0.  0.
         25    1    3    3    0    0 -0.60272080414E+01  0.10085718689E+03  0.14970343830E+03  0.21969780819E+03  0.12509000000E+03 0.  0.
<mgrwt>
<rscale>  2 0.44494449E+03</rscale>
<asrwt>0</asrwt>
<pdfrwt beam="1">  1       21 0.86185571E-01 0.44494449E+03</pdfrwt>
<pdfrwt beam="2">  1       21 0.12419362E-01 0.44494449E+03</pdfrwt>
<totfact> 0.59075792E+04</totfact>
</mgrwt>
</event>
<event>
 7    0  0.4748297E-002  0.4570066E+03  0.7546771E-02  0.1025653E+00
         21   -1    0    0  502  501  0.00000000000E+00  0.00000000000E+00  0.10157470725E+03  0.10157470725E+03  0.00000000000E+00 0. -1.
         21   -1    0    0  501  502 -0.00000000000E+00 -0.00000000000E+00 -0.51404281533E+03  0.51404281533E+03  0.00000000000E+00 0. -1.
      99926    2    1    2    0    0  0.00000000000E+00 -0.71054273576E-14 -0.41246810808E+03  0.61561752258E+03  0.45700655786E+03 0.  0.
      99925    2    3    3    0    0  0.80238440573E+02 -0.56427931387E+02 -0.34012270570E+03  0.44096448329E+03  0.26295228048E+03 0.  0.
         25    1    4    4    0    0  0.32954700884E+02 -0.64665099204E+02 -0.14987366401E+03  0.20827196314E+03  0.12509000000E+03 0.  0.
         25    1    3    3    0    0 -0.80238440573E+02  0.56427931387E+02 -0.72345402380E+02  0.17465303929E+03  0.12509000000E+03 0.  0.
         25    1    4    4    0    0  0.47283739690E+02  0.82371678166E+01 -0.19024904169E+03  0.23269252016E+03  0.12509000000E+03 0.  0.
<mgrwt>
<rscale>  2 0.45700656E+03</rscale>
<asrwt>0</asrwt>
<pdfrwt beam="1">  1       21 0.14937457E-01 0.45700656E+03</pdfrwt>
<pdfrwt beam="2">  1       21 0.75594531E-01 0.45700656E+03</pdfrwt>
<totfact> 0.56821299E+04</totfact>
</mgrwt>
</event>
<event>
 7    0  0.4748297E-002  0.4886060E+03  0.7546771E-02  0.1016796E+00
         21   -1    0    0  502  501  0.00000000000E+00  0.00000000000E+00  0.35234054713E+03  0.35234054713E+03  0.00000000000E+00 0. -1.
         21   -1    0    0  501  502 -0.00000000000E+00 -0.00000000000E+00 -0.16939281994E+03  0.16939281994E+03  0.00000000000E+00 0. -1.
      99926    2    1    2    0    0  0.00000000000E+00  0.00000000000E+00  0.18294772720E+03  0.52173336707E+03  0.48860601248E+03 0.  0.
      99925    2    3    3    0    0  0.99034680591E+02  0.10106418138E+03  0.12605500670E+03  0.32448700725E+03  0.26340105627E+03 0.  0.
         25    1    3    3    0    0 -0.99034680591E+02 -0.10106418138E+03  0.56892720494E+02  0.19724635982E+03  0.12509000000E+03 0.  0.
         25    1    4    4    0    0  0.25427620797E+02  0.74972075862E+02  0.38399825311E+02  0.15293603481E+03  0.12509000000E+03 0.  0.
         25    1    4    4    0    0  0.73607059794E+02  0.26092105514E+02  0.87655181391E+02  0.17155097244E+03  0.12509000000E+03 0.  0.
<mgrwt>
<rscale>  2 0.48860601E+03</rscale>
<asrwt>0</asrwt>
<pdfrwt beam="1">  1       21 0.51814786E-01 0.48860601E+03</pdfrwt>
<pdfrwt beam="2">  1       21 0.24910709E-01 0.48860601E+03</pdfrwt>
<totfact> 0.49259225E+04</totfact>
</mgrwt>
</event>
<event>
 7    0  0.4748297E-002  0.4433283E+03  0.7546771E-02  0.1029730E+00
         21   -1    0    0  502  501  0.00000000000E+00  0.00000000000E+00  0.23246289270E+03  0.23246289270E+03  0.00000000000E+00 0. -1.
         21   -1    0    0  501  502 -0.00000000000E+00 -0.00000000000E+00 -0.21136709519E+03  0.21136709519E+03  0.00000000000E+00 0. -1.
      99926    2    1    2    0    0  0.00000000000E+00  0.14210854715E-13  0.21095797514E+02  0.44382998789E+03  0.44332834951E+03 0.  0.
      99925    2    3    3    0    0  0.28711593780E+02  0.88956638016E+02  0.53921962071E+02  0.28425961394E+03  0.26297967803E+03 0.  0.
         25    1    4    4    0    0 -0.13093574463E+02  0.74102643670E+02  0.20699821520E+02  0.14744027334E+03  0.12509000000E+03 0.  0.
         25    1    3    3    0    0 -0.28711593780E+02 -0.88956638016E+02 -0.32826164557E+02  0.15957037395E+03  0.12509000000E+03 0.  0.
         25    1    4    4    0    0  0.41805168243E+02  0.14853994346E+02  0.33222140551E+02  0.13681934060E+03  0.12509000000E+03 0.  0.
<mgrwt>
<rscale>  2 0.44332835E+03</rscale>
<asrwt>0</asrwt>
<pdfrwt beam="1">  1       21 0.34185719E-01 0.44332835E+03</pdfrwt>
<pdfrwt beam="2">  1       21 0.31083396E-01 0.44332835E+03</pdfrwt>
<totfact> 0.76227262E+04</totfact>
</mgrwt>
</event>
<event>
 7    0  0.4748297E-002  0.4511745E+03  0.7546771E-02  0.1027372E+00
         21   -1    0    0  502  501  0.00000000000E+00  0.00000000000E+00  0.11347202129E+03  0.11347202129E+03  0.00000000000E+00 0.  1.
         21   -1    0    0  501  502 -0.00000000000E+00 -0.00000000000E+00 -0.44847723421E+03  0.44847723421E+03  0.00000000000E+00 0.  1.
      99926    2    1    2    0    0  0.00000000000E+00  0.14210854715E-13 -0.33500521292E+03  0.56194925550E+03  0.45117454835E+03 0.  0.
      99925    2    3    3    0    0 -0.31879807111E+02  0.86541238661E+02 -0.13772596800E+03  0.31080723062E+03  0.26292011002E+03 0.  0.
         25    1    3    3    0    0  0.31879807111E+02 -0.86541238661E+02 -0.19727924491E+03  0.25114202489E+03  0.12509000000E+03 0.  0.
         25    1    4    4    0    0 -0.45777600911E+02  0.68670947954E+02 -0.91239779776E+02  0.17545225377E+03  0.12509000000E+03 0.  0.
         25    1    4    4    0    0  0.13897793800E+02  0.17870290707E+02 -0.46486188225E+02  0.13535497685E+03  0.12509000000E+03 0.  0.
<mgrwt>
<rscale>  2 0.45117455E+03</rscale>
<asrwt>0</asrwt>
<pdfrwt beam="1">  1       21 0.16687062E-01 0.45117455E+03</pdfrwt>
<pdfrwt beam="2">  1       21 0.65952535E-01 0.45117455E+03</pdfrwt>
<totfact> 0.62967428E+04</totfact>
</mgrwt>
</event>
<event>
 7    0  0.4748297E-002  0.4540305E+03  0.7546771E-02  0.1026527E+00
         21   -1    0    0  502  501  0.00000000000E+00  0.00000000000E+00  0.33918477208E+03  0.33918477208E+03  0.00000000000E+00 0.  1.
         21   -1    0    0  501  502 -0.00000000000E+00 -0.00000000000E+00 -0.15194057086E+03  0.15194057086E+03  0.00000000000E+00 0.  1.
      99926    2    1    2    0    0  0.00000000000E+00  0.00000000000E+00  0.18724420122E+03  0.49112534294E+03  0.45403051834E+03 0.  0.
      99925    2    3    3    0    0  0.59343828760E+02  0.43594798475E+02  0.20956812410E+03  0.34426465351E+03  0.26301550630E+03 0.  0.
         25    1    4    4    0    0  0.43266017478E+02 -0.70218464394E+01  0.13526174130E+03  0.18937925271E+03  0.12509000000E+03 0.  0.
         25    1    3    3    0    0 -0.59343828760E+02 -0.43594798475E+02 -0.22323922879E+02  0.14686068943E+03  0.12509000000E+03 0.  0.
         25    1    4    4    0    0  0.16077811282E+02  0.50616644914E+02  0.74306382800E+02  0.15488540081E+03  0.12509000000E+03 0.  0.
<mgrwt>
<rscale>  2 0.45403052E+03</rscale>
<asrwt>0</asrwt>
<pdfrwt beam="1">  1       21 0.49880113E-01 0.45403052E+03</pdfrwt>
<pdfrwt beam="2">  1       21 0.22344202E-01 0.45403052E+03</pdfrwt>
<totfact> 0.66408373E+04</totfact>
</mgrwt>
</event>
<event>
 7    0  0.4748297E-002  0.4514018E+03  0.7546771E-02  0.1027305E+00
         21   -1    0    0  502  501  0.00000000000E+00  0.00000000000E+00  0.49002004962E+03  0.49002004962E+03  0.00000000000E+00 0.  1.
         21   -1    0    0  501  502 -0.00000000000E+00 -0.00000000000E+00 -0.10395676027E+03  0.10395676027E+03  0.00000000000E+00 0.  1.
      99926    2    1    2    0    0 -0.71054273576E-14  0.00000000000E+00  0.38606328935E+03  0.59397680990E+03  0.45140180251E+03 0.  0.
      99925    2    3    3    0    0  0.47177502025E+02  0.96741133771E+02  0.21581252488E+03  0.35687473364E+03  0.26305886405E+03 0.  0.
         25    1    4    4    0    0  0.56901305536E+01  0.11087560863E+02  0.11320169501E+03  0.16916691002E+03  0.12509000000E+03 0.  0.
         25    1    4    4    0    0  0.41487371471E+02  0.85653572909E+02  0.10261082986E+03  0.18770782362E+03  0.12509000000E+03 0.  0.
         25    1    3    3    0    0 -0.47177502025E+02 -0.96741133771E+02  0.17025076448E+03  0.23710207626E+03  0.12509000000E+03 0.  0.
<mgrwt>
<rscale>  2 0.45140180E+03</rscale>
<asrwt>0</asrwt>
<pdfrwt beam="1">  1       21 0.72061771E-01 0.45140180E+03</pdfrwt>
<pdfrwt beam="2">  1       21 0.15287759E-01 0.45140180E+03</pdfrwt>
<totfact> 0.60759900E+04</totfact>
</mgrwt>
</event>
<event>
 6    0  0.4748297E-002  0.4535960E+03  0.7546771E-02  0.1026655E+00
         21   -1    0    0  502  501  0.00000000000E+00  0.00000000000E+00  0.34383970515E+02  0.34383970515E+02  0.00000000000E+00 0.  1.
         21   -1    0    0  501  502 -0.00000000000E+00 -0.00000000000E+00 -0.14959686662E+04  0.14959686662E+04  0.00000000000E+00 0.  1.
      99926    2    1    2    0    0  0.00000000000E+00 -0.17763568394E-14 -0.14615846957E+04  0.15303526368E+04  0.45359604280E+03 0.  0.
         25    1    3    3    0    0  0.51544020500E+02  0.10514711257E+02 -0.86183744205E+03  0.87245551739E+03  0.12509000000E+03 0.  0.
         25    1    3    3    0    0  0.18261997611E+02 -0.92782898022E+01 -0.29986055284E+03  0.32555098904E+03  0.12509000000E+03 0.  0.
         25    1    3    3    0    0 -0.69806018111E+02 -0.12364214549E+01 -0.29988670085E+03  0.33234613033E+03  0.12509000000E+03 0.  0.
<mgrwt>
<rscale>  2 0.45359604E+03</rscale>
<asrwt>0</asrwt>
<pdfrwt beam="1">  1       21 0.50564653E-02 0.45359604E+03</pdfrwt>
<pdfrwt beam="2">  1       21 0.21999543E+00 0.45359604E+03</pdfrwt>
<totfact> 0.23297943E+04</totfact>
</mgrwt>
</event>
<event>
 7    0  0.4748297E-002  0.4521309E+03  0.7546771E-02  0.1027088E+00
         21   -1    0    0  502  501  0.00000000000E+00  0.00000000000E+00  0.85944085161E+03  0.85944085161E+03  0.00000000000E+00 0. -1.
         21   -1    0    0  501  502 -0.00000000000E+00 -0.00000000000E+00 -0.59463770473E+02  0.59463770473E+02  0.00000000000E+00 0. -1.
      99926    2    1    2    0    0  0.00000000000E+00  0.00000000000E+00  0.79997708114E+03  0.91890462208E+03  0.45213092589E+03 0.  0.
      99925    2    3    3    0    0  0.10601091943E+03 -0.24234463180E+02  0.54384405030E+03  0.61381895898E+03  0.26302421773E+03 0.  0.
         25    1    4    4    0    0  0.95241349689E+02 -0.31792910405E+01  0.29432014232E+03  0.33369578489E+03  0.12509000000E+03 0.  0.
         25    1    4    4    0    0  0.10769569743E+02 -0.21055172140E+02  0.24952390798E+03  0.28012317409E+03  0.12509000000E+03 0.  0.
         25    1    3    3    0    0 -0.10601091943E+03  0.24234463180E+02  0.25613303084E+03  0.30508566310E+03  0.12509000000E+03 0.  0.
<mgrwt>
<rscale>  2 0.45213093E+03</rscale>
<asrwt>0</asrwt>
<pdfrwt beam="1">  1       21 0.12638835E+00 0.45213093E+03</pdfrwt>
<pdfrwt beam="2">  1       21 0.87446726E-02 0.45213093E+03</pdfrwt>
<totfact> 0.43392064E+04</totfact>
</mgrwt>
</event>
<event>
 7    0  0.4748297E-002  0.4313738E+03  0.7546771E-02  0.1033427E+00
         21   -1    0    0  502  501  0.00000000000E+00  0.00000000000E+00  0.19690791007E+03  0.19690791007E+03  0.00000000000E+00 0.  1.
         21   -1    0    0  501  502 -0.00000000000E+00 -0.00000000000E+00 -0.23625682965E+03  0.23625682965E+03  0.00000000000E+00 0.  1.
      99926    2    1    2    0    0  0.00000000000E+00  0.00000000000E+00 -0.39348919578E+02  0.43316473973E+03  0.43137379878E+03 0.  0.
      99925    2    3    3    0    0  0.21804781541E+02 -0.69935225493E+01 -0.11177354562E+03  0.28681860068E+03  0.26314867725E+03 0.  0.
         25    1    4    4    0    0  0.21962978012E+02  0.18993628438E+02 -0.90975350810E+02  0.15737583321E+03  0.12509000000E+03 0.  0.
         25    1    4    4    0    0 -0.15819647086E+00 -0.25987150988E+02 -0.20798194813E+02  0.12944276747E+03  0.12509000000E+03 0.  0.
         25    1    3    3    0    0 -0.21804781541E+02  0.69935225493E+01  0.72424626045E+02  0.14634613905E+03  0.12509000000E+03 0.  0.
<mgrwt>
<rscale>  2 0.43137380E+03</rscale>
<asrwt>0</asrwt>
<pdfrwt beam="1">  1       21 0.28957046E-01 0.43137380E+03</pdfrwt>
<pdfrwt beam="2">  1       21 0.34743651E-01 0.43137380E+03</pdfrwt>
<totfact> 0.85126049E+04</totfact>
</mgrwt>
</event>
<event>
 7    0  0.4748297E-002  0.4587002E+03  0.7546771E-02  0.1025159E+00
         21   -1    0    0  502  501  0.00000000000E+00  0.00000000000E+00  0.28279514739E+03  0.28279514739E+03  0.00000000000E+00 0.  1.
         21   -1    0    0  501  502 -0.00000000000E+00 -0.00000000000E+00 -0.18600553359E+03  0.18600553359E+03  0.00000000000E+00 0.  1.
      99926    2    1    2    0    0  0.00000000000E+00  0.71054273576E-14  0.96789613793E+02  0.46880068098E+03  0.45870017348E+03 0.  0.
      99925    2    3    3    0    0 -0.10227885446E+03 -0.44778339703E+02  0.94767449515E+02  0.30111746469E+03  0.26310605139E+03 0.  0.
         25    1    3    3    0    0  0.10227885446E+03  0.44778339703E+02  0.20221642779E+01  0.16768321629E+03  0.12509000000E+03 0.  0.
         25    1    4    4    0    0 -0.49999864072E+02  0.64785493372E+01  0.76434804830E+02  0.15502175814E+03  0.12509000000E+03 0.  0.
         25    1    4    4    0    0 -0.52278990387E+02 -0.51256889040E+02  0.18332644685E+02  0.14609570655E+03  0.12509000000E+03 0.  0.
<mgrwt>
<rscale>  2 0.45870017E+03</rscale>
<asrwt>0</asrwt>
<pdfrwt beam="1">  1       21 0.41587522E-01 0.45870017E+03</pdfrwt>
<pdfrwt beam="2">  1       21 0.27353755E-01 0.45870017E+03</pdfrwt>
<totfact> 0.65578910E+04</totfact>
</mgrwt>
</event>
<event>
 7    0  0.4748297E-002  0.4570780E+03  0.7546771E-02  0.1025632E+00
         21   -1    0    0  502  501  0.00000000000E+00  0.00000000000E+00  0.26392210912E+03  0.26392210912E+03  0.00000000000E+00 0.  1.
         21   -1    0    0  501  502 -0.00000000000E+00 -0.00000000000E+00 -0.19789957795E+03  0.19789957795E+03  0.00000000000E+00 0.  1.
      99926    2    1    2    0    0  0.71054273576E-14  0.00000000000E+00  0.66022531173E+02  0.46182168707E+03  0.45707799775E+03 0.  0.
      99925    2    3    3    0    0 -0.41397891265E+02 -0.66874918165E+02 -0.43375067802E+02  0.27797016316E+03  0.26305888128E+03 0.  0.
         25    1    4    4    0    0 -0.25452492002E+02 -0.62311385456E+02  0.67126920011E+01  0.14220796898E+03  0.12509000000E+03 0.  0.
         25    1    3    3    0    0  0.41397891265E+02  0.66874918165E+02  0.10939759897E+03  0.18385152391E+03  0.12509000000E+03 0.  0.
         25    1    4    4    0    0 -0.15945399263E+02 -0.45635327087E+01 -0.50087759803E+02  0.13576219419E+03  0.12509000000E+03 0.  0.
<mgrwt>
<rscale>  2 0.45707800E+03</rscale>
<asrwt>0</asrwt>
<pdfrwt beam="1">  1       21 0.38812075E-01 0.45707800E+03</pdfrwt>
<pdfrwt beam="2">  1       21 0.29102879E-01 0.45707800E+03</pdfrwt>
<totfact> 0.66931964E+04</totfact>
</mgrwt>
</event>
<event>
 7    0  0.4748297E-002  0.4533334E+03  0.7546771E-02  0.1026733E+00
         21   -1    0    0  502  501  0.00000000000E+00  0.00000000000E+00  0.75108767920E+03  0.75108767920E+03  0.00000000000E+00 0. -1.
         21   -1    0    0  501  502 -0.00000000000E+00 -0.00000000000E+00 -0.68404509938E+02  0.68404509938E+02  0.00000000000E+00 0. -1.
      99926    2    1    2    0    0  0.00000000000E+00 -0.88817841970E-15  0.68268316926E+03  0.81949218914E+03  0.45333336350E+03 0.  0.
      99925    2    3    3    0    0 -0.32707491987E+02  0.69744987109E+01  0.62269049198E+03  0.67678601165E+03  0.26301603204E+03 0.  0.
         25    1    4    4    0    0 -0.20224524364E+02 -0.17649891841E+01  0.41438729142E+03  0.43333183816E+03  0.12509000000E+03 0.  0.
         25    1    3    3    0    0  0.32707491987E+02 -0.69744987109E+01  0.59992677286E+02  0.14270617748E+03  0.12509000000E+03 0.  0.
         25    1    4    4    0    0 -0.12482967624E+02  0.87394878950E+01  0.20830320055E+03  0.24345417349E+03  0.12509000000E+03 0.  0.
<mgrwt>
<rscale>  2 0.45333336E+03</rscale>
<asrwt>0</asrwt>
<pdfrwt beam="1">  1       21 0.11045407E+00 0.45333336E+03</pdfrwt>
<pdfrwt beam="2">  1       21 0.10059487E-01 0.45333336E+03</pdfrwt>
<totfact> 0.47453958E+04</totfact>
</mgrwt>
</event>
<event>
 7    0  0.4748297E-002  0.4584158E+03  0.7546771E-02  0.1025242E+00
         21   -1    0    0  502  501  0.00000000000E+00  0.00000000000E+00  0.10542402270E+04  0.10542402270E+04  0.00000000000E+00 0.  1.
         21   -1    0    0  501  502 -0.00000000000E+00 -0.00000000000E+00 -0.49833299012E+02  0.49833299012E+02  0.00000000000E+00 0.  1.
      99926    2    1    2    0    0  0.00000000000E+00  0.00000000000E+00  0.10044069280E+04  0.11040735260E+04  0.45841583071E+03 0.  0.
      99925    2    3    3    0    0 -0.13346975783E+02 -0.27899735552E+02  0.90033279240E+03  0.93843696361E+03  0.26288450048E+03 0.  0.
         25    1    4    4    0    0 -0.12962654072E+02  0.31607319884E+00  0.31405166269E+03  0.33829585460E+03  0.12509000000E+03 0.  0.
         25    1    3    3    0    0  0.13346975783E+02  0.27899735552E+02  0.10407413559E+03  0.16563656241E+03  0.12509000000E+03 0.  0.
         25    1    4    4    0    0 -0.38432171141E+00 -0.28215808751E+02  0.58628112971E+03  0.60014110901E+03  0.12509000000E+03 0.  0.
<mgrwt>
<rscale>  2 0.45841583E+03</rscale>
<asrwt>0</asrwt>
<pdfrwt beam="1">  1       21 0.15503531E+00 0.45841583E+03</pdfrwt>
<pdfrwt beam="2">  1       21 0.73284270E-02 0.45841583E+03</pdfrwt>
<totfact> 0.34426735E+04</totfact>
</mgrwt>
</event>
<event>
 7    0  0.4748297E-002  0.4543878E+03  0.7546771E-02  0.1026422E+00
         21   -1    0    0  502  501  0.00000000000E+00  0.00000000000E+00  0.19492639317E+03  0.19492639317E+03  0.00000000000E+00 0.  1.
         21   -1    0    0  501  502 -0.00000000000E+00 -0.00000000000E+00 -0.26480289466E+03  0.26480289466E+03  0.00000000000E+00 0.  1.
      99926    2    1    2    0    0  0.00000000000E+00 -0.35527136788E-14 -0.69876501489E+02  0.45972928782E+03  0.45438782182E+03 0.  0.
      99925    2    3    3    0    0 -0.10470103541E+03 -0.29407954490E+02 -0.74060000825E+02  0.29392173561E+03  0.26282687903E+03 0.  0.
         25    1    4    4    0    0 -0.90056981014E+02 -0.10107659382E+02 -0.20947688026E+02  0.15588052586E+03  0.12509000000E+03 0.  0.
         25    1    3    3    0    0  0.10470103541E+03  0.29407954490E+02  0.41834993359E+01  0.16580755221E+03  0.12509000000E+03 0.  0.
         25    1    4    4    0    0 -0.14644054393E+02 -0.19300295108E+02 -0.53112312799E+02  0.13804120976E+03  0.12509000000E+03 0.  0.
<mgrwt>
<rscale>  2 0.45438782E+03</rscale>
<asrwt>0</asrwt>
<pdfrwt beam="1">  1       21 0.28665646E-01 0.45438782E+03</pdfrwt>
<pdfrwt beam="2">  1       21 0.38941602E-01 0.45438782E+03</pdfrwt>
<totfact> 0.68534257E+04</totfact>
</mgrwt>
</event>
<event>
 7    0  0.4748297E-002  0.4527226E+03  0.7546771E-02  0.1026913E+00
         21   -1    0    0  502  501  0.00000000000E+00  0.00000000000E+00  0.54918817204E+03  0.54918817204E+03  0.00000000000E+00 0.  1.
         21   -1    0    0  501  502 -0.00000000000E+00 -0.00000000000E+00 -0.93300332552E+02  0.93300332552E+02  0.00000000000E+00 0.  1.
      99926    2    1    2    0    0  0.00000000000E+00  0.00000000000E+00  0.45588783949E+03  0.64248850459E+03  0.45272260418E+03 0.  0.
      99925    2    3    3    0    0  0.16223873109E+02  0.10849011781E+03  0.26193830398E+03  0.38695523837E+03  0.26284855276E+03 0.  0.
         25    1    3    3    0    0 -0.16223873109E+02 -0.10849011781E+03  0.19394953550E+03  0.25553326622E+03  0.12509000000E+03 0.  0.
         25    1    4    4    0    0  0.50365582744E+01  0.76260934404E+02  0.91494669230E+02  0.17280011468E+03  0.12509000000E+03 0.  0.
         25    1    4    4    0    0  0.11187314835E+02  0.32229183410E+02  0.17044363475E+03  0.21415512369E+03  0.12509000000E+03 0.  0.
<mgrwt>
<rscale>  2 0.45272260E+03</rscale>
<asrwt>0</asrwt>
<pdfrwt beam="1">  1       21 0.80762965E-01 0.45272260E+03</pdfrwt>
<pdfrwt beam="2">  1       21 0.13720637E-01 0.45272260E+03</pdfrwt>
<totfact> 0.57156532E+04</totfact>
</mgrwt>
</event>
<event>
 7    0  0.4748297E-002  0.4364104E+03  0.7546771E-02  0.1031854E+00
         21   -1    0    0  502  501  0.00000000000E+00  0.00000000000E+00  0.44975148299E+02  0.44975148299E+02  0.00000000000E+00 0. -1.
         21   -1    0    0  501  502 -0.00000000000E+00 -0.00000000000E+00 -0.10586627184E+04  0.10586627184E+04  0.00000000000E+00 0. -1.
      99926    2    1    2    0    0 -0.14210854715E-13  0.00000000000E+00 -0.10136875701E+04  0.11036378667E+04  0.43641041581E+03 0.  0.
      99925    2    3    3    0    0 -0.64195044908E+02  0.68929277780E+02 -0.62797054782E+03  0.68734784939E+03  0.26311177855E+03 0.  0.
         25    1    3    3    0    0  0.64195044908E+02 -0.68929277780E+02 -0.38571702225E+03  0.41629001727E+03  0.12509000000E+03 0.  0.
         25    1    4    4    0    0 -0.41384754890E+02  0.23748480171E+01 -0.24192109179E+03  0.27548441080E+03  0.12509000000E+03 0.  0.
         25    1    4    4    0    0 -0.22810290018E+02  0.66554429763E+02 -0.38604945603E+03  0.41186343860E+03  0.12509000000E+03 0.  0.
<mgrwt>
<rscale>  2 0.43641042E+03</rscale>
<asrwt>0</asrwt>
<pdfrwt beam="1">  1       21 0.66139933E-02 0.43641042E+03</pdfrwt>
<pdfrwt beam="2">  1       21 0.15568567E+00 0.43641042E+03</pdfrwt>
<totfact> 0.40996400E+04</totfact>
</mgrwt>
</event>
<event>
 7    0  0.4748297E-002  0.4521835E+03  0.7546771E-02  0.1027073E+00
         21   -1    0    0  502  501  0.00000000000E+00  0.00000000000E+00  0.81823161544E+03  0.81823161544E+03  0.00000000000E+00 0.  1.
         21   -1    0    0  501  502 -0.00000000000E+00 -0.00000000000E+00 -0.62473119384E+02  0.62473119384E+02  0.00000000000E+00 0.  1.
      99926    2    1    2    0    0  0.00000000000E+00  0.00000000000E+00  0.75575849605E+03  0.88070473482E+03  0.45218350874E+03 0.  0.
      99925    2    3    3    0    0 -0.35815102423E+02  0.33684955556E+02  0.28409288522E+03  0.39026273587E+03  0.26301870235E+03 0.  0.
         25    1    3    3    0    0  0.35815102423E+02 -0.33684955556E+02  0.47166561084E+03  0.49044199896E+03  0.12509000000E+03 0.  0.
         25    1    4    4    0    0 -0.19049658309E+02  0.27792328228E+02  0.86652960574E+02  0.15585745624E+03  0.12509000000E+03 0.  0.
         25    1    4    4    0    0 -0.16765444114E+02  0.58926273275E+01  0.19743992464E+03  0.23440527962E+03  0.12509000000E+03 0.  0.
<mgrwt>
<rscale>  2 0.45218351E+03</rscale>
<asrwt>0</asrwt>
<pdfrwt beam="1">  1       21 0.12032817E+00 0.45218351E+03</pdfrwt>
<pdfrwt beam="2">  1       21 0.91872239E-02 0.45218351E+03</pdfrwt>
<totfact> 0.45064337E+04</totfact>
</mgrwt>
</event>
<event>
 7    0  0.4748297E-002  0.4532307E+03  0.7546771E-02  0.1026763E+00
         21   -1    0    0  502  501  0.00000000000E+00  0.00000000000E+00  0.13558592666E+03  0.13558592666E+03  0.00000000000E+00 0.  1.
         21   -1    0    0  501  502 -0.00000000000E+00 -0.00000000000E+00 -0.37876001398E+03  0.37876001398E+03  0.00000000000E+00 0.  1.
      99926    2    1    2    0    0  0.00000000000E+00  0.00000000000E+00 -0.24317408732E+03  0.51434594064E+03  0.45323074687E+03 0.  0.
      99925    2    3    3    0    0  0.51083984205E+02 -0.69291143877E+02 -0.23377231968E+03  0.36220542205E+03  0.26293047418E+03 0.  0.
         25    1    4    4    0    0  0.47503521624E+02 -0.23562959627E+01 -0.98728456253E+02  0.16630379692E+03  0.12509000000E+03 0.  0.
         25    1    3    3    0    0 -0.51083984205E+02  0.69291143877E+02 -0.94017676377E+01  0.15214051859E+03  0.12509000000E+03 0.  0.
         25    1    4    4    0    0  0.35804625809E+01 -0.66934847914E+02 -0.13504386343E+03  0.19590162513E+03  0.12509000000E+03 0.  0.
<mgrwt>
<rscale>  2 0.45323075E+03</rscale>
<asrwt>0</asrwt>
<pdfrwt beam="1">  1       21 0.19939107E-01 0.45323075E+03</pdfrwt>
<pdfrwt beam="2">  1       21 0.55700002E-01 0.45323075E+03</pdfrwt>
<totfact> 0.65184449E+04</totfact>
</mgrwt>
</event>
<event>
 7    0  0.4748297E-002  0.4577016E+03  0.7546771E-02  0.1025450E+00
         21   -1    0    0  502  501  0.00000000000E+00  0.00000000000E+00  0.11537149031E+04  0.11537149031E+04  0.00000000000E+00 0.  1.
         21   -1    0    0  501  502 -0.00000000000E+00 -0.00000000000E+00 -0.45394823222E+02  0.45394823222E+02  0.00000000000E+00 0.  1.
      99926    2    1    2    0    0  0.00000000000E+00  0.00000000000E+00  0.11083200799E+04  0.11991097263E+04  0.45770157996E+03 0.  0.
      99925    2    3    3    0    0  0.34806701064E+02 -0.10690644937E+03  0.62456499677E+03  0.68695058710E+03  0.26301935018E+03 0.  0.
         25    1    3    3    0    0 -0.34806701064E+02  0.10690644937E+03  0.48375508312E+03  0.51215913923E+03  0.12509000000E+03 0.  0.
         25    1    4    4    0    0 -0.20196106232E+02 -0.66625390881E+02  0.33167263611E+03  0.36124931980E+03  0.12509000000E+03 0.  0.
         25    1    4    4    0    0  0.55002807296E+02 -0.40281058487E+02  0.29289236066E+03  0.32570126730E+03  0.12509000000E+03 0.  0.
<mgrwt>
<rscale>  2 0.45770158E+03</rscale>
<asrwt>0</asrwt>
<pdfrwt beam="1">  1       21 0.16966394E+00 0.45770158E+03</pdfrwt>
<pdfrwt beam="2">  1       21 0.66757100E-02 0.45770158E+03</pdfrwt>
<totfact> 0.31515676E+04</totfact>
</mgrwt>
</event>
<event>
 7    0  0.4748297E-002  0.4562017E+03  0.7546771E-02  0.1025889E+00
         21   -1    0    0  502  501  0.00000000000E+00  0.00000000000E+00  0.13104643316E+03  0.13104643316E+03  0.00000000000E+00 0.  1.
         21   -1    0    0  501  502 -0.00000000000E+00 -0.00000000000E+00 -0.39703489815E+03  0.39703489815E+03  0.00000000000E+00 0.  1.
      99926    2    1    2    0    0 -0.88817841970E-15  0.00000000000E+00 -0.26598846500E+03  0.52808133131E+03  0.45620174152E+03 0.  0.
      99925    2    3    3    0    0  0.70819991823E+01 -0.82567262475E+02 -0.76192445557E+02  0.28613599732E+03  0.26306085352E+03 0.  0.
         25    1    4    4    0    0 -0.13751712137E+02 -0.40131271448E+02  0.28269787351E+00  0.13208791221E+03  0.12509000000E+03 0.  0.
         25    1    3    3    0    0 -0.70819991823E+01  0.82567262475E+02 -0.18979601944E+03  0.24194533399E+03  0.12509000000E+03 0.  0.
         25    1    4    4    0    0  0.20833711319E+02 -0.42435991027E+02 -0.76475143431E+02  0.15404808510E+03  0.12509000000E+03 0.  0.
<mgrwt>
<rscale>  2 0.45620174E+03</rscale>
<asrwt>0</asrwt>
<pdfrwt beam="1">  1       21 0.19271534E-01 0.45620174E+03</pdfrwt>
<pdfrwt beam="2">  1       21 0.58387485E-01 0.45620174E+03</pdfrwt>
<totfact> 0.62736857E+04</totfact>
</mgrwt>
</event>
<event>
 7    0  0.4748297E-002  0.4546016E+03  0.7546771E-02  0.1026359E+00
         21   -1    0    0  502  501  0.00000000000E+00  0.00000000000E+00  0.25830245177E+03  0.25830245177E+03  0.00000000000E+00 0. -1.
         21   -1    0    0  501  502 -0.00000000000E+00 -0.00000000000E+00 -0.20001994954E+03  0.20001994954E+03  0.00000000000E+00 0. -1.
      99926    2    1    2    0    0  0.00000000000E+00 -0.71054273576E-14  0.58282502231E+02  0.45832240131E+03  0.45460155464E+03 0.  0.
      99925    2    3    3    0    0  0.15340681877E+02 -0.54291405944E+02 -0.61776390552E+02  0.27599155061E+03  0.26300593206E+03 0.  0.
         25    1    4    4    0    0  0.44760533720E+02 -0.24555927216E+02 -0.47977630364E+02  0.14337314970E+03  0.12509000000E+03 0.  0.
         25    1    3    3    0    0 -0.15340681877E+02  0.54291405944E+02  0.12005889278E+03  0.18233085070E+03  0.12509000000E+03 0.  0.
         25    1    4    4    0    0 -0.29419851842E+02 -0.29735478727E+02 -0.13798760188E+02  0.13261840091E+03  0.12509000000E+03 0.  0.
<mgrwt>
<rscale>  2 0.45460155E+03</rscale>
<asrwt>0</asrwt>
<pdfrwt beam="1">  1       21 0.37985654E-01 0.45460155E+03</pdfrwt>
<pdfrwt beam="2">  1       21 0.29414699E-01 0.45460155E+03</pdfrwt>
<totfact> 0.68520449E+04</totfact>
</mgrwt>
</event>
<event>
 7    0  0.4748297E-002  0.4566783E+03  0.7546771E-02  0.1025749E+00
         21   -1    0    0  502  501  0.00000000000E+00  0.00000000000E+00  0.17729165455E+04  0.17729165455E+04  0.00000000000E+00 0. -1.
         21   -1    0    0  501  502 -0.00000000000E+00 -0.00000000000E+00 -0.29408467386E+02  0.29408467386E+02  0.00000000000E+00 0. -1.
      99926    2    1    2    0    0  0.71054273576E-14  0.00000000000E+00  0.17435080781E+04  0.18023250129E+04  0.45667826051E+03 0.  0.
      99925    2    3    3    0    0  0.50366523408E+02  0.50518912554E+02  0.14501969768E+04  0.14755715011E+04  0.26296584600E+03 0.  0.
         25    1    3    3    0    0 -0.50366523408E+02 -0.50518912554E+02  0.29331110136E+03  0.32675351182E+03  0.12509000000E+03 0.  0.
         25    1    4    4    0    0 -0.14679335820E+02  0.34229626886E+02  0.68487439137E+03  0.69719982094E+03  0.12509000000E+03 0.  0.
         25    1    4    4    0    0  0.65045859228E+02  0.16289285668E+02  0.76532258539E+03  0.77837168014E+03  0.12509000000E+03 0.  0.
<mgrwt>
<rscale>  2 0.45667826E+03</rscale>
<asrwt>0</asrwt>
<pdfrwt beam="1">  1       21 0.26072295E+00 0.45667826E+03</pdfrwt>
<pdfrwt beam="2">  1       21 0.43247758E-02 0.45667826E+03</pdfrwt>
<totfact> 0.16992351E+04</totfact>
</mgrwt>
</event>
<event>
 7    0  0.4748297E-002  0.4469822E+03  0.7546771E-02  0.1028626E+00
         21   -1    0    0  502  501  0.00000000000E+00  0.00000000000E+00  0.13881614662E+03  0.13881614662E+03  0.00000000000E+00 0.  1.
         21   -1    0    0  501  502 -0.00000000000E+00 -0.00000000000E+00 -0.35981593954E+03  0.35981593954E+03  0.00000000000E+00 0.  1.
      99926    2    1    2    0    0 -0.88817841970E-15  0.00000000000E+00 -0.22099979292E+03  0.49863208616E+03  0.44698215723E+03 0.  0.
      99925    2    3    3    0    0 -0.47777790054E+01 -0.96187073149E+02 -0.18807889554E+03  0.33736809825E+03  0.26299958661E+03 0.  0.
         25    1    3    3    0    0  0.47777790054E+01  0.96187073149E+02 -0.32920897378E+02  0.16126398791E+03  0.12509000000E+03 0.  0.
         25    1    4    4    0    0 -0.17601165202E+02 -0.74574159423E+02 -0.66260573195E+02  0.16096297068E+03  0.12509000000E+03 0.  0.
         25    1    4    4    0    0  0.12823386196E+02 -0.21612913726E+02 -0.12181832234E+03  0.17640512757E+03  0.12509000000E+03 0.  0.
<mgrwt>
<rscale>  2 0.44698216E+03</rscale>
<asrwt>0</asrwt>
<pdfrwt beam="1">  1       21 0.20414140E-01 0.44698216E+03</pdfrwt>
<pdfrwt beam="2">  1       21 0.52914107E-01 0.44698216E+03</pdfrwt>
<totfact> 0.69698100E+04</totfact>
</mgrwt>
</event>
<event>
 7    0  0.4748297E-002  0.4443062E+03  0.7546771E-02  0.1029434E+00
         21   -1    0    0  502  501  0.00000000000E+00  0.00000000000E+00  0.15708911375E+03  0.15708911375E+03  0.00000000000E+00 0.  1.
         21   -1    0    0  501  502 -0.00000000000E+00 -0.00000000000E+00 -0.31416568737E+03  0.31416568737E+03  0.00000000000E+00 0.  1.
      99926    2    1    2    0    0  0.00000000000E+00  0.00000000000E+00 -0.15707657362E+03  0.47125480112E+03  0.44430624303E+03 0.  0.
      99925    2    3    3    0    0  0.24197582690E+01  0.90692123106E+02 -0.48284967877E+02  0.28227322000E+03  0.26289887063E+03 0.  0.
         25    1    4    4    0    0  0.35619081249E+02  0.52352883993E+02 -0.45017727201E+02  0.14725368340E+03  0.12509000000E+03 0.  0.
         25    1    4    4    0    0 -0.33199322980E+02  0.38339239113E+02 -0.32672406753E+01  0.13501953660E+03  0.12509000000E+03 0.  0.
         25    1    3    3    0    0 -0.24197582690E+01 -0.90692123106E+02 -0.10879160574E+03  0.18898158112E+03  0.12509000000E+03 0.  0.
<mgrwt>
<rscale>  2 0.44430624E+03</rscale>
<asrwt>0</asrwt>
<pdfrwt beam="1">  1       21 0.23101341E-01 0.44430624E+03</pdfrwt>
<pdfrwt beam="2">  1       21 0.46200835E-01 0.44430624E+03</pdfrwt>
<totfact> 0.73374952E+04</totfact>
</mgrwt>
</event>
<event>
 7    0  0.4748297E-002  0.4562683E+03  0.7546771E-02  0.1025869E+00
         21   -1    0    0  502  501  0.00000000000E+00  0.00000000000E+00  0.86220657037E+03  0.86220657037E+03  0.00000000000E+00 0. -1.
         21   -1    0    0  501  502 -0.00000000000E+00 -0.00000000000E+00 -0.60362779647E+02  0.60362779647E+02  0.00000000000E+00 0. -1.
      99926    2    1    2    0    0 -0.71054273576E-14 -0.71054273576E-14  0.80184379073E+03  0.92256935002E+03  0.45626827730E+03 0.  0.
      99925    2    3    3    0    0  0.51046013554E+02  0.42688683413E+02  0.31600423221E+03  0.41649069614E+03  0.26301674093E+03 0.  0.
         25    1    4    4    0    0  0.47855693992E+01 -0.13387504180E+02  0.16231533397E+03  0.20541641289E+03  0.12509000000E+03 0.  0.
         25    1    4    4    0    0  0.46260444155E+02  0.56076187594E+02  0.15368889824E+03  0.21107428325E+03  0.12509000000E+03 0.  0.
         25    1    3    3    0    0 -0.51046013554E+02 -0.42688683413E+02  0.48583955852E+03  0.50607865388E+03  0.12509000000E+03 0.  0.
<mgrwt>
<rscale>  2 0.45626828E+03</rscale>
<asrwt>0</asrwt>
<pdfrwt beam="1">  1       21 0.12679508E+00 0.45626828E+03</pdfrwt>
<pdfrwt beam="2">  1       21 0.88768799E-02 0.45626828E+03</pdfrwt>
<totfact> 0.41855269E+04</totfact>
</mgrwt>
</event>
<event>
 7    0  0.4748297E-002  0.4541320E+03  0.7546771E-02  0.1026497E+00
         21   -1    0    0  502  501  0.00000000000E+00  0.00000000000E+00  0.80553192013E+03  0.80553192013E+03  0.00000000000E+00 0.  1.
         21   -1    0    0  501  502 -0.00000000000E+00 -0.00000000000E+00 -0.64006125942E+02  0.64006125942E+02  0.00000000000E+00 0.  1.
      99926    2    1    2    0    0  0.71054273576E-14  0.00000000000E+00  0.74152579419E+03  0.86953804607E+03  0.45413204040E+03 0.  0.
      99925    2    3    3    0    0 -0.43988722367E+02 -0.71483559053E+02  0.61013277343E+03  0.66964672331E+03  0.26290649654E+03 0.  0.
         25    1    3    3    0    0  0.43988722367E+02  0.71483559053E+02  0.13139302076E+03  0.19989132276E+03  0.12509000000E+03 0.  0.
         25    1    4    4    0    0 -0.44141611828E+02 -0.18363030990E+01  0.28261740090E+03  0.31220499243E+03  0.12509000000E+03 0.  0.
         25    1    4    4    0    0  0.15288946141E+00 -0.69647255954E+02  0.32751537253E+03  0.35744173088E+03  0.12509000000E+03 0.  0.
<mgrwt>
<rscale>  2 0.45413204E+03</rscale>
<asrwt>0</asrwt>
<pdfrwt beam="1">  1       21 0.11846057E+00 0.45413204E+03</pdfrwt>
<pdfrwt beam="2">  1       21 0.94126660E-02 0.45413204E+03</pdfrwt>
<totfact> 0.44881343E+04</totfact>
</mgrwt>
</event>
<event>
 7    0  0.4748297E-002  0.4680499E+03  0.7546771E-02  0.1022472E+00
         21   -1    0    0  502  501  0.00000000000E+00  0.00000000000E+00  0.50254128349E+03  0.50254128349E+03  0.00000000000E+00 0.  1.
         21   -1    0    0  501  502 -0.00000000000E+00 -0.00000000000E+00 -0.10898146546E+03  0.10898146546E+03  0.00000000000E+00 0.  1.
      99926    2    1    2    0    0  0.00000000000E+00  0.00000000000E+00  0.39355981802E+03  0.61152274895E+03  0.46804993549E+03 0.  0.
      99925    2    3    3    0    0  0.20490372784E+02  0.54287384587E+02  0.10017483201E+03  0.28734805280E+03  0.26299606647E+03 0.  0.
         25    1    3    3    0    0 -0.20490372784E+02 -0.54287384587E+02  0.29338498601E+03  0.32417469615E+03  0.12509000000E+03 0.  0.
         25    1    4    4    0    0 -0.46834245104E+01  0.44106710850E+02  0.14931373193E+02  0.13355819111E+03  0.12509000000E+03 0.  0.
         25    1    4    4    0    0  0.25173797295E+02  0.10180673738E+02  0.85243458816E+02  0.15378986169E+03  0.12509000000E+03 0.  0.
<mgrwt>
<rscale>  2 0.46804994E+03</rscale>
<asrwt>0</asrwt>
<pdfrwt beam="1">  1       21 0.73903129E-01 0.46804994E+03</pdfrwt>
<pdfrwt beam="2">  1       21 0.16026686E-01 0.46804994E+03</pdfrwt>
<totfact> 0.52364272E+04</totfact>
</mgrwt>
</event>
<event>
 7    0  0.4748297E-002  0.4561492E+03  0.7546771E-02  0.1025904E+00
         21   -1    0    0  502  501  0.00000000000E+00  0.00000000000E+00  0.34128732079E+03  0.34128732079E+03  0.00000000000E+00 0.  1.
         21   -1    0    0  501  502 -0.00000000000E+00 -0.00000000000E+00 -0.15241711188E+03  0.15241711188E+03  0.00000000000E+00 0.  1.
      99926    2    1    2    0    0 -0.71054273576E-14 -0.14210854715E-13  0.18887020891E+03  0.49370443267E+03  0.45614922013E+03 0.  0.
      99925    2    3    3    0    0  0.46377641591E+02  0.10326962989E+03  0.13346793057E+03  0.31613072222E+03  0.26326686639E+03 0.  0.
         25    1    4    4    0    0  0.49641916722E+02  0.81675766524E+02  0.93061426777E+02  0.18287478773E+03  0.12509000000E+03 0.  0.
         25    1    3    3    0    0 -0.46377641591E+02 -0.10326962989E+03  0.55402278331E+02  0.17757371045E+03  0.12509000000E+03 0.  0.
         25    1    4    4    0    0 -0.32642751309E+01  0.21593863369E+02  0.40406503798E+02  0.13325593449E+03  0.12509000000E+03 0.  0.
<mgrwt>
<rscale>  2 0.45614922E+03</rscale>
<asrwt>0</asrwt>
<pdfrwt beam="1">  1       21 0.50189312E-01 0.45614922E+03</pdfrwt>
<pdfrwt beam="2">  1       21 0.22414281E-01 0.45614922E+03</pdfrwt>
<totfact> 0.65119112E+04</totfact>
</mgrwt>
</event>
<event>
 7    0  0.4748297E-002  0.4578277E+03  0.7546771E-02  0.1025413E+00
         21   -1    0    0  502  501  0.00000000000E+00  0.00000000000E+00  0.19577302983E+03  0.19577302983E+03  0.00000000000E+00 0.  1.
         21   -1    0    0  501  502 -0.00000000000E+00 -0.00000000000E+00 -0.26766475302E+03  0.26766475302E+03  0.00000000000E+00 0.  1.
      99926    2    1    2    0    0  0.00000000000E+00  0.00000000000E+00 -0.71891723192E+02  0.46343778285E+03  0.45782765176E+03 0.  0.
      99925    2    3    3    0    0 -0.81027551887E+02 -0.58154085767E+02 -0.10480719333E+03  0.30010285661E+03  0.26292549309E+03 0.  0.
         25    1    4    4    0    0 -0.34312639313E+02 -0.57175413574E+01 -0.14628962530E+02  0.13065818819E+03  0.12509000000E+03 0.  0.
         25    1    4    4    0    0 -0.46714912575E+02 -0.52436544409E+02 -0.90178230801E+02  0.16944466842E+03  0.12509000000E+03 0.  0.
         25    1    3    3    0    0  0.81027551887E+02  0.58154085767E+02  0.32915470139E+02  0.16333492624E+03  0.12509000000E+03 0.  0.
<mgrwt>
<rscale>  2 0.45782765E+03</rscale>
<asrwt>0</asrwt>
<pdfrwt beam="1">  1       21 0.28790152E-01 0.45782765E+03</pdfrwt>
<pdfrwt beam="2">  1       21 0.39362463E-01 0.45782765E+03</pdfrwt>
<totfact> 0.66420312E+04</totfact>
</mgrwt>
</event>
<event>
 7    0  0.4748297E-002  0.4534339E+03  0.7546771E-02  0.1026703E+00
         21   -1    0    0  502  501  0.00000000000E+00  0.00000000000E+00  0.61218849699E+02  0.61218849699E+02  0.00000000000E+00 0.  1.
         21   -1    0    0  501  502 -0.00000000000E+00 -0.00000000000E+00 -0.83961990253E+03  0.83961990253E+03  0.00000000000E+00 0.  1.
      99926    2    1    2    0    0  0.00000000000E+00  0.13322676296E-14 -0.77840105283E+03  0.90083875222E+03  0.45343385236E+03 0.  0.
      99925    2    3    3    0    0 -0.10649192354E+03  0.20357466581E+01 -0.55749823786E+03  0.62553848742E+03  0.26296281101E+03 0.  0.
         25    1    3    3    0    0  0.10649192354E+03 -0.20357466581E+01 -0.22090281496E+03  0.27530026481E+03  0.12509000000E+03 0.  0.
         25    1    4    4    0    0 -0.41974369197E+02  0.24847110573E+02 -0.33913697269E+03  0.36474733847E+03  0.12509000000E+03 0.  0.
         25    1    4    4    0    0 -0.64517554347E+02 -0.22811363915E+02 -0.21836126517E+03  0.26079114895E+03  0.12509000000E+03 0.  0.
<mgrwt>
<rscale>  2 0.45343385E+03</rscale>
<asrwt>0</asrwt>
<pdfrwt beam="1">  1       21 0.90027724E-02 0.45343385E+03</pdfrwt>
<pdfrwt beam="2">  1       21 0.12347351E+00 0.45343385E+03</pdfrwt>
<totfact> 0.43731214E+04</totfact>
</mgrwt>
</event>
<event>
 7    0  0.4748297E-002  0.4545666E+03  0.7546771E-02  0.1026369E+00
         21   -1    0    0  502  501  0.00000000000E+00  0.00000000000E+00  0.82964532417E+03  0.82964532417E+03  0.00000000000E+00 0.  1.
         21   -1    0    0  501  502 -0.00000000000E+00 -0.00000000000E+00 -0.62264804979E+02  0.62264804979E+02  0.00000000000E+00 0.  1.
      99926    2    1    2    0    0  0.00000000000E+00  0.00000000000E+00  0.76738051919E+03  0.89191012915E+03  0.45456662575E+03 0.  0.
      99925    2    3    3    0    0  0.33821543420E+02 -0.46898160859E+02  0.67300101451E+03  0.72488218749E+03  0.26302183544E+03 0.  0.
         25    1    3    3    0    0 -0.33821543420E+02  0.46898160859E+02  0.94379504679E+02  0.16702794166E+03  0.12509000000E+03 0.  0.
         25    1    4    4    0    0  0.57083124715E+02 -0.17497796847E+02  0.33628734928E+03  0.36373251904E+03  0.12509000000E+03 0.  0.
         25    1    4    4    0    0 -0.23261581295E+02 -0.29400364013E+02  0.33671366523E+03  0.36114966845E+03  0.12509000000E+03 0.  0.
<mgrwt>
<rscale>  2 0.45456663E+03</rscale>
<asrwt>0</asrwt>
<pdfrwt beam="1">  1       21 0.12200666E+00 0.45456663E+03</pdfrwt>
<pdfrwt beam="2">  1       21 0.91565895E-02 0.45456663E+03</pdfrwt>
<totfact> 0.43733535E+04</totfact>
</mgrwt>
</event>
<event>
 7    0  0.4748297E-002  0.4618907E+03  0.7546771E-02  0.1024234E+00
         21   -1    0    0  502  501  0.00000000000E+00  0.00000000000E+00  0.68496984142E+02  0.68496984142E+02  0.00000000000E+00 0. -1.
         21   -1    0    0  501  502 -0.00000000000E+00 -0.00000000000E+00 -0.77865838785E+03  0.77865838785E+03  0.00000000000E+00 0. -1.
      99926    2    1    2    0    0  0.35527136788E-14  0.00000000000E+00 -0.71016140371E+03  0.84715537199E+03  0.46189068510E+03 0.  0.
      99925    2    3    3    0    0 -0.29167787180E+02  0.76523376045E+02 -0.60382194957E+03  0.66368282773E+03  0.26299688621E+03 0.  0.
         25    1    4    4    0    0 -0.39722393740E+02  0.25352757343E+02 -0.36999059914E+03  0.39339697816E+03  0.12509000000E+03 0.  0.
         25    1    4    4    0    0  0.10554606561E+02  0.51170618703E+02 -0.23383135043E+03  0.27028584958E+03  0.12509000000E+03 0.  0.
         25    1    3    3    0    0  0.29167787180E+02 -0.76523376045E+02 -0.10633945414E+03  0.18347254426E+03  0.12509000000E+03 0.  0.
<mgrwt>
<rscale>  2 0.46189069E+03</rscale>
<asrwt>0</asrwt>
<pdfrwt beam="1">  1       21 0.10073086E-01 0.46189069E+03</pdfrwt>
<pdfrwt beam="2">  1       21 0.11450858E+00 0.46189069E+03</pdfrwt>
<totfact> 0.43184704E+04</totfact>
</mgrwt>
</event>
<event>
 7    0  0.4748297E-002  0.4477514E+03  0.7546771E-02  0.1028395E+00
         21   -1    0    0  502  501  0.00000000000E+00  0.00000000000E+00  0.16947647668E+03  0.16947647668E+03  0.00000000000E+00 0. -1.
         21   -1    0    0  501  502 -0.00000000000E+00 -0.00000000000E+00 -0.29573614513E+03  0.29573614513E+03  0.00000000000E+00 0. -1.
      99926    2    1    2    0    0  0.00000000000E+00  0.17763568394E-14 -0.12625966845E+03  0.46521262181E+03  0.44775135914E+03 0.  0.
      99925    2    3    3    0    0  0.69493112009E+02  0.15422562690E+02 -0.16171108751E+03  0.31698489407E+03  0.26317636518E+03 0.  0.
         25    1    3    3    0    0 -0.69493112009E+02 -0.15422562690E+02  0.35451419061E+02  0.14822772774E+03  0.12509000000E+03 0.  0.
         25    1    4    4    0    0  0.61710350339E+02 -0.78424589949E+01 -0.52891359783E+02  0.14938097450E+03  0.12509000000E+03 0.  0.
         25    1    4    4    0    0  0.77827616700E+01  0.23265021685E+02 -0.10881972773E+03  0.16760391957E+03  0.12509000000E+03 0.  0.
<mgrwt>
<rscale>  2 0.44775136E+03</rscale>
<asrwt>0</asrwt>
<pdfrwt beam="1">  1       21 0.24923011E-01 0.44775136E+03</pdfrwt>
<pdfrwt beam="2">  1       21 0.43490609E-01 0.44775136E+03</pdfrwt>
<totfact> 0.71836376E+04</totfact>
</mgrwt>
</event>
<event>
 7    0  0.4748297E-002  0.4433610E+03  0.7546771E-02  0.1029721E+00
         21   -1    0    0  502  501  0.00000000000E+00  0.00000000000E+00  0.52715478429E+03  0.52715478429E+03  0.00000000000E+00 0.  1.
         21   -1    0    0  501  502 -0.00000000000E+00 -0.00000000000E+00 -0.93221645653E+02  0.93221645653E+02  0.00000000000E+00 0.  1.
      99926    2    1    2    0    0 -0.35527136788E-14  0.00000000000E+00  0.43393313863E+03  0.62037642994E+03  0.44336096583E+03 0.  0.
      99925    2    3    3    0    0  0.26274692681E+02 -0.90707778748E+02  0.32984179659E+03  0.43222549003E+03  0.26287830426E+03 0.  0.
         25    1    3    3    0    0 -0.26274692681E+02  0.90707778748E+02  0.10409134204E+03  0.18815093991E+03  0.12509000000E+03 0.  0.
         25    1    4    4    0    0 -0.53590559349E+01 -0.48604020034E+02  0.21939855605E+03  0.25724366803E+03  0.12509000000E+03 0.  0.
         25    1    4    4    0    0  0.31633748616E+02 -0.42103758715E+02  0.11044324054E+03  0.17498182200E+03  0.12509000000E+03 0.  0.
<mgrwt>
<rscale>  2 0.44336097E+03</rscale>
<asrwt>0</asrwt>
<pdfrwt beam="1">  1       21 0.77522761E-01 0.44336097E+03</pdfrwt>
<pdfrwt beam="2">  1       21 0.13709066E-01 0.44336097E+03</pdfrwt>
<totfact> 0.63037731E+04</totfact>
</mgrwt>
</event>
<event>
 7    0  0.4748297E-002  0.4541687E+03  0.7546771E-02  0.1026486E+00
         21   -1    0    0  502  501  0.00000000000E+00  0.00000000000E+00  0.20249074956E+03  0.20249074956E+03  0.00000000000E+00 0.  1.
         21   -1    0    0  501  502 -0.00000000000E+00 -0.00000000000E+00 -0.25466502224E+03  0.25466502224E+03  0.00000000000E+00 0.  1.
      99926    2    1    2    0    0  0.00000000000E+00  0.14210854715E-13 -0.52174272681E+02  0.45715577179E+03  0.45416874062E+03 0.  0.
      99925    2    3    3    0    0 -0.26518022380E+02 -0.10056656284E+03 -0.75869009142E+02  0.29276055377E+03  0.26293686738E+03 0.  0.
         25    1    4    4    0    0 -0.49308386425E+02 -0.71531330305E+02 -0.38544358039E+02  0.15710259012E+03  0.12509000000E+03 0.  0.
         25    1    4    4    0    0  0.22790364045E+02 -0.29035232533E+02 -0.37324651104E+02  0.13565796365E+03  0.12509000000E+03 0.  0.
         25    1    3    3    0    0  0.26518022380E+02  0.10056656284E+03  0.23694736461E+02  0.16439521802E+03  0.12509000000E+03 0.  0.
<mgrwt>
<rscale>  2 0.45416874E+03</rscale>
<asrwt>0</asrwt>
<pdfrwt beam="1">  1       21 0.29778051E-01 0.45416874E+03</pdfrwt>
<pdfrwt beam="2">  1       21 0.37450739E-01 0.45416874E+03</pdfrwt>
<totfact> 0.68843516E+04</totfact>
</mgrwt>
</event>
<event>
 7    0  0.4748297E-002  0.4547801E+03  0.7546771E-02  0.1026306E+00
         21   -1    0    0  502  501  0.00000000000E+00  0.00000000000E+00  0.32434063706E+02  0.32434063706E+02  0.00000000000E+00 0.  1.
         21   -1    0    0  501  502 -0.00000000000E+00 -0.00000000000E+00 -0.15941954022E+04  0.15941954022E+04  0.00000000000E+00 0.  1.
      99926    2    1    2    0    0  0.00000000000E+00  0.00000000000E+00 -0.15617613385E+04  0.16266294659E+04  0.45478010174E+03 0.  0.
      99925    2    3    3    0    0 -0.71421091507E+02  0.34717542863E+02 -0.12704442590E+04  0.12997970486E+04  0.26294005445E+03 0.  0.
         25    1    4    4    0    0  0.39449823211E+01  0.53418794447E+01 -0.61711247948E+03  0.62969787914E+03  0.12509000000E+03 0.  0.
         25    1    3    3    0    0  0.71421091507E+02 -0.34717542863E+02 -0.29131707948E+03  0.32683241729E+03  0.12509000000E+03 0.  0.
         25    1    4    4    0    0 -0.75366073828E+02  0.29375663418E+02 -0.65333177952E+03  0.67009916946E+03  0.12509000000E+03 0.  0.
<mgrwt>
<rscale>  2 0.45478010E+03</rscale>
<asrwt>0</asrwt>
<pdfrwt beam="1">  1       21 0.47697179E-02 0.45478010E+03</pdfrwt>
<pdfrwt beam="2">  1       21 0.23444037E+00 0.45478010E+03</pdfrwt>
<totfact> 0.20870279E+04</totfact>
</mgrwt>
</event>
<event>
 7    0  0.4748297E-002  0.4508071E+03  0.7546771E-02  0.1027482E+00
         21   -1    0    0  502  501  0.00000000000E+00  0.00000000000E+00  0.84441715477E+03  0.84441715477E+03  0.00000000000E+00 0.  1.
         21   -1    0    0  501  502 -0.00000000000E+00 -0.00000000000E+00 -0.60167851527E+02  0.60167851527E+02  0.00000000000E+00 0.  1.
      99926    2    1    2    0    0  0.00000000000E+00 -0.35527136788E-14  0.78424930324E+03  0.90458500629E+03  0.45080712503E+03 0.  0.
      99925    2    3    3    0    0  0.94420869395E+02 -0.19539428123E+02  0.39120471872E+03  0.48099482304E+03  0.26271238649E+03 0.  0.
         25    1    4    4    0    0  0.64065722631E+02 -0.39085177932E+02  0.16709707096E+03  0.22181300046E+03  0.12509000000E+03 0.  0.
         25    1    3    3    0    0 -0.94420869395E+02  0.19539428123E+02  0.39304458452E+03  0.42359018326E+03  0.12509000000E+03 0.  0.
         25    1    4    4    0    0  0.30355146764E+02  0.19545749809E+02  0.22410764776E+03  0.25918182258E+03  0.12509000000E+03 0.  0.
<mgrwt>
<rscale>  2 0.45080713E+03</rscale>
<asrwt>0</asrwt>
<pdfrwt beam="1">  1       21 0.12417899E+00 0.45080713E+03</pdfrwt>
<pdfrwt beam="2">  1       21 0.88482140E-02 0.45080713E+03</pdfrwt>
<totfact> 0.44477928E+04</totfact>
</mgrwt>
</event>
<event>
 7    0  0.4748297E-002  0.4634761E+03  0.7546771E-02  0.1023778E+00
         21   -1    0    0  502  501  0.00000000000E+00  0.00000000000E+00  0.10192508197E+04  0.10192508197E+04  0.00000000000E+00 0.  1.
         21   -1    0    0  501  502 -0.00000000000E+00 -0.00000000000E+00 -0.52688224964E+02  0.52688224964E+02  0.00000000000E+00 0.  1.
      99926    2    1    2    0    0  0.00000000000E+00  0.00000000000E+00  0.96656259475E+03  0.10719390447E+04  0.46347606835E+03 0.  0.
      99925    2    3    3    0    0  0.89011112202E+02  0.72965201502E+02  0.51761009031E+03  0.59188409150E+03  0.26298226833E+03 0.  0.
         25    1    3    3    0    0 -0.89011112202E+02 -0.72965201502E+02  0.44895250444E+03  0.48005495318E+03  0.12509000000E+03 0.  0.
         25    1    4    4    0    0  0.71609484008E+02  0.47575959775E+02  0.34126477071E+03  0.37349771348E+03  0.12509000000E+03 0.  0.
         25    1    4    4    0    0  0.17401628194E+02  0.25389241727E+02  0.17634531960E+03  0.21838637802E+03  0.12509000000E+03 0.  0.
<mgrwt>
<rscale>  2 0.46347607E+03</rscale>
<asrwt>0</asrwt>
<pdfrwt beam="1">  1       21 0.14988981E+00 0.46347607E+03</pdfrwt>
<pdfrwt beam="2">  1       21 0.77482690E-02 0.46347607E+03</pdfrwt>
<totfact> 0.34166119E+04</totfact>
</mgrwt>
</event>
<event>
 7    0  0.4748297E-002  0.4610730E+03  0.7546771E-02  0.1024470E+00
         21   -1    0    0  502  501  0.00000000000E+00  0.00000000000E+00  0.16129426483E+04  0.16129426483E+04  0.00000000000E+00 0. -1.
         21   -1    0    0  501  502 -0.00000000000E+00 -0.00000000000E+00 -0.32950383823E+02  0.32950383823E+02  0.00000000000E+00 0. -1.
      99926    2    1    2    0    0  0.00000000000E+00  0.44408920985E-15  0.15799922645E+04  0.16458930321E+04  0.46107300657E+03 0.  0.
      99925    2    3    3    0    0 -0.11309049287E+03  0.28985979958E+01  0.11134577204E+04  0.11498085127E+04  0.26357856403E+03 0.  0.
         25    1    3    3    0    0  0.11309049287E+03 -0.28985979958E+01  0.46653454408E+03  0.49608451938E+03  0.12509000000E+03 0.  0.
         25    1    4    4    0    0 -0.68016150746E+02 -0.37570469494E+02  0.60945716402E+03  0.62699543843E+03  0.12509000000E+03 0.  0.
         25    1    4    4    0    0 -0.45074342126E+02  0.40469067490E+02  0.50400055638E+03  0.52281307432E+03  0.12509000000E+03 0.  0.
<mgrwt>
<rscale>  2 0.46107301E+03</rscale>
<asrwt>0</asrwt>
<pdfrwt beam="1">  1       21 0.23719740E+00 0.46107301E+03</pdfrwt>
<pdfrwt beam="2">  1       21 0.48456458E-02 0.46107301E+03</pdfrwt>
<totfact> 0.19477563E+04</totfact>
</mgrwt>
</event>
<event>
 7    0  0.4748297E-002  0.4525055E+03  0.7546771E-02  0.1026978E+00
         21   -1    0    0  502  501  0.00000000000E+00  0.00000000000E+00  0.42717062326E+02  0.42717062326E+02  0.00000000000E+00 0.  1.
         21   -1    0    0  501  502 -0.00000000000E+00 -0.00000000000E+00 -0.11983571504E+04  0.11983571504E+04  0.00000000000E+00 0.  1.
      99926    2    1    2    0    0  0.00000000000E+00  0.00000000000E+00 -0.11556400880E+04  0.12410742127E+04  0.45250545668E+03 0.  0.
      99925    2    3    3    0    0  0.43834646050E+02 -0.22526084295E+02 -0.10010340374E+04  0.10361853656E+04  0.26302484140E+03 0.  0.
         25    1    4    4    0    0  0.16834029998E+02 -0.10893779267E+02 -0.65326894498E+03  0.66543961527E+03  0.12509000000E+03 0.  0.
         25    1    3    3    0    0 -0.43834646050E+02  0.22526084295E+02 -0.15460605066E+03  0.20488884711E+03  0.12509000000E+03 0.  0.
         25    1    4    4    0    0  0.27000616051E+02 -0.11632305027E+02 -0.34776509240E+03  0.37074575032E+03  0.12509000000E+03 0.  0.
<mgrwt>
<rscale>  2 0.45250546E+03</rscale>
<asrwt>0</asrwt>
<pdfrwt beam="1">  1       21 0.62819207E-02 0.45250546E+03</pdfrwt>
<pdfrwt beam="2">  1       21 0.17622900E+00 0.45250546E+03</pdfrwt>
<totfact> 0.31482137E+04</totfact>
</mgrwt>
</event>
<event>
 7    0  0.4748297E-002  0.4475244E+03  0.7546771E-02  0.1028463E+00
         21   -1    0    0  502  501  0.00000000000E+00  0.00000000000E+00  0.37547338843E+03  0.37547338843E+03  0.00000000000E+00 0. -1.
         21   -1    0    0  501  502 -0.00000000000E+00 -0.00000000000E+00 -0.13335036985E+03  0.13335036985E+03  0.00000000000E+00 0. -1.
      99926    2    1    2    0    0 -0.35527136788E-14  0.00000000000E+00  0.24212301858E+03  0.50882375828E+03  0.44752436902E+03 0.  0.
      99925    2    3    3    0    0 -0.23037171751E+02 -0.72731197420E+02  0.23671023254E+03  0.36220403003E+03  0.26332391996E+03 0.  0.
         25    1    4    4    0    0  0.15275548034E+02 -0.16300381076E+02  0.78806730337E+02  0.14952275291E+03  0.12509000000E+03 0.  0.
         25    1    3    3    0    0  0.23037171751E+02  0.72731197420E+02  0.54127860374E+01  0.14661972825E+03  0.12509000000E+03 0.  0.
         25    1    4    4    0    0 -0.38312719784E+02 -0.56430816345E+02  0.15790350220E+03  0.21268127712E+03  0.12509000000E+03 0.  0.
<mgrwt>
<rscale>  2 0.44752437E+03</rscale>
<asrwt>0</asrwt>
<pdfrwt beam="1">  1       21 0.55216674E-01 0.44752437E+03</pdfrwt>
<pdfrwt beam="2">  1       21 0.19610349E-01 0.44752437E+03</pdfrwt>
<totfact> 0.68637403E+04</totfact>
</mgrwt>
</event>
<event>
 7    0  0.4748297E-002  0.4458010E+03  0.7546771E-02  0.1028982E+00
         21   -1    0    0  502  501  0.00000000000E+00  0.00000000000E+00  0.13398906522E+04  0.13398906522E+04  0.00000000000E+00 0. -1.
         21   -1    0    0  501  502 -0.00000000000E+00 -0.00000000000E+00 -0.37081113009E+02  0.37081113009E+02  0.00000000000E+00 0. -1.
      99926    2    1    2    0    0  0.00000000000E+00  0.71054273576E-14  0.13028095391E+04  0.13769717652E+04  0.44580101701E+03 0.  0.
      99925    2    3    3    0    0 -0.94047200496E+02  0.44892906674E+02  0.85949148928E+03  0.90470208539E+03  0.26248808389E+03 0.  0.
         25    1    3    3    0    0  0.94047200496E+02 -0.44892906674E+02  0.44331804986E+03  0.47226967977E+03  0.12509000000E+03 0.  0.
         25    1    4    4    0    0 -0.39447930632E+02 -0.17344483257E+02  0.41525272862E+03  0.43582026921E+03  0.12509000000E+03 0.  0.
         25    1    4    4    0    0 -0.54599269864E+02  0.62237389931E+02  0.44423876066E+03  0.46888181618E+03  0.12509000000E+03 0.  0.
<mgrwt>
<rscale>  2 0.44580102E+03</rscale>
<asrwt>0</asrwt>
<pdfrwt beam="1">  1       21 0.19704271E+00 0.44580102E+03</pdfrwt>
<pdfrwt beam="2">  1       21 0.54531057E-02 0.44580102E+03</pdfrwt>
<totfact> 0.28968637E+04</totfact>
</mgrwt>
</event>
<event>
 7    0  0.4748297E-002  0.4603400E+03  0.7546771E-02  0.1024683E+00
         21   -1    0    0  502  501  0.00000000000E+00  0.00000000000E+00  0.84392032297E+02  0.84392032297E+02  0.00000000000E+00 0. -1.
         21   -1    0    0  501  502 -0.00000000000E+00 -0.00000000000E+00 -0.62776340891E+03  0.62776340891E+03  0.00000000000E+00 0. -1.
      99926    2    1    2    0    0  0.00000000000E+00  0.00000000000E+00 -0.54337137661E+03  0.71215544120E+03  0.46034000425E+03 0.  0.
      99925    2    3    3    0    0  0.21688974719E+02  0.60827556738E+02 -0.49319495180E+03  0.56270449611E+03  0.26310584596E+03 0.  0.
         25    1    4    4    0    0 -0.61693369188E+00  0.76002844962E+01 -0.16851238500E+03  0.21000494501E+03  0.12509000000E+03 0.  0.
         25    1    4    4    0    0  0.22305908411E+02  0.53227272242E+02 -0.32468256680E+03  0.35269955109E+03  0.12509000000E+03 0.  0.
         25    1    3    3    0    0 -0.21688974719E+02 -0.60827556738E+02 -0.50176424813E+02  0.14945094510E+03  0.12509000000E+03 0.  0.
<mgrwt>
<rscale>  2 0.46034000E+03</rscale>
<asrwt>0</asrwt>
<pdfrwt beam="1">  1       21 0.12410593E-01 0.46034000E+03</pdfrwt>
<pdfrwt beam="2">  1       21 0.92318146E-01 0.46034000E+03</pdfrwt>
<totfact> 0.50109387E+04</totfact>
</mgrwt>
</event>
<event>
 7    0  0.4748297E-002  0.4683284E+03  0.7546771E-02  0.1022393E+00
         21   -1    0    0  502  501  0.00000000000E+00  0.00000000000E+00  0.20432356039E+03  0.20432356039E+03  0.00000000000E+00 0.  1.
         21   -1    0    0  501  502 -0.00000000000E+00 -0.00000000000E+00 -0.26836294756E+03  0.26836294756E+03  0.00000000000E+00 0.  1.
      99926    2    1    2    0    0  0.00000000000E+00  0.00000000000E+00 -0.64039387172E+02  0.47268650796E+03  0.46832840155E+03 0.  0.
      99925    2    3    3    0    0 -0.33346375121E+02  0.11548685370E+03 -0.75330911074E+02  0.29883542017E+03  0.26301837973E+03 0.  0.
         25    1    4    4    0    0 -0.13116157114E+01  0.57124019626E+02  0.17304748803E+01  0.13753318362E+03  0.12509000000E+03 0.  0.
         25    1    4    4    0    0 -0.32034759410E+02  0.58362834072E+02 -0.77061385954E+02  0.16130223655E+03  0.12509000000E+03 0.  0.
         25    1    3    3    0    0  0.33346375121E+02 -0.11548685370E+03  0.11291523901E+02  0.17385108778E+03  0.12509000000E+03 0.  0.
<mgrwt>
<rscale>  2 0.46832840E+03</rscale>
<asrwt>0</asrwt>
<pdfrwt beam="1">  1       21 0.30047582E-01 0.46832840E+03</pdfrwt>
<pdfrwt beam="2">  1       21 0.39465139E-01 0.46832840E+03</pdfrwt>
<totfact> 0.60567264E+04</totfact>
</mgrwt>
</event>
<event>
 7    0  0.4748297E-002  0.4537968E+03  0.7546771E-02  0.1026596E+00
         21   -1    0    0  502  501  0.00000000000E+00  0.00000000000E+00  0.16533686745E+03  0.16533686745E+03  0.00000000000E+00 0.  1.
         21   -1    0    0  501  502 -0.00000000000E+00 -0.00000000000E+00 -0.31138171972E+03  0.31138171972E+03  0.00000000000E+00 0.  1.
      99926    2    1    2    0    0  0.71054273576E-14 -0.14210854715E-13 -0.14604485228E+03  0.47671858717E+03  0.45379677442E+03 0.  0.
      99925    2    3    3    0    0 -0.58367134548E+02  0.95500524548E+02 -0.86572242581E+02  0.29864115460E+03  0.26299185055E+03 0.  0.
         25    1    3    3    0    0  0.58367134548E+02 -0.95500524548E+02 -0.59472609697E+02  0.17807743256E+03  0.12509000000E+03 0.  0.
         25    1    4    4    0    0 -0.59194967544E+02  0.22490720149E+02 -0.53558810873E+02  0.15008641177E+03  0.12509000000E+03 0.  0.
         25    1    4    4    0    0  0.82783299577E+00  0.73009804400E+02 -0.33013431707E+02  0.14855474284E+03  0.12509000000E+03 0.  0.
<mgrwt>
<rscale>  2 0.45379677E+03</rscale>
<asrwt>0</asrwt>
<pdfrwt beam="1">  1       21 0.24314246E-01 0.45379677E+03</pdfrwt>
<pdfrwt beam="2">  1       21 0.45791428E-01 0.45379677E+03</pdfrwt>
<totfact> 0.67582833E+04</totfact>
</mgrwt>
</event>
<event>
 7    0  0.4748297E-002  0.4524554E+03  0.7546771E-02  0.1026992E+00
         21   -1    0    0  502  501  0.00000000000E+00  0.00000000000E+00  0.13932747892E+03  0.13932747892E+03  0.00000000000E+00 0.  1.
         21   -1    0    0  501  502 -0.00000000000E+00 -0.00000000000E+00 -0.36732870009E+03  0.36732870009E+03  0.00000000000E+00 0.  1.
      99926    2    1    2    0    0  0.00000000000E+00  0.00000000000E+00 -0.22800122118E+03  0.50665617901E+03  0.45245544186E+03 0.  0.
      99925    2    3    3    0    0  0.16756363887E+02 -0.10921681536E+03 -0.15278339691E+03  0.32358701810E+03  0.26297662144E+03 0.  0.
         25    1    3    3    0    0 -0.16756363887E+02  0.10921681536E+03 -0.75217824265E+02  0.18306916091E+03  0.12509000000E+03 0.  0.
         25    1    4    4    0    0  0.18578334986E+01 -0.97393990004E+02 -0.79344507488E+02  0.17729100316E+03  0.12509000000E+03 0.  0.
         25    1    4    4    0    0  0.14898530388E+02 -0.11822825353E+02 -0.73438889424E+02  0.14629601494E+03  0.12509000000E+03 0.  0.
<mgrwt>
<rscale>  2 0.45245544E+03</rscale>
<asrwt>0</asrwt>
<pdfrwt beam="1">  1       21 0.20489335E-01 0.45245544E+03</pdfrwt>
<pdfrwt beam="2">  1       21 0.54018927E-01 0.45245544E+03</pdfrwt>
<totfact> 0.66131011E+04</totfact>
</mgrwt>
</event>
<event>
 7    0  0.4748297E-002  0.4440582E+03  0.7546771E-02  0.1029509E+00
         21   -1    0    0  502  501  0.00000000000E+00  0.00000000000E+00  0.31481481321E+02  0.31481481321E+02  0.00000000000E+00 0. -1.
         21   -1    0    0  501  502 -0.00000000000E+00 -0.00000000000E+00 -0.15659024493E+04  0.15659024493E+04  0.00000000000E+00 0. -1.
      99926    2    1    2    0    0  0.00000000000E+00  0.00000000000E+00 -0.15344209680E+04  0.15973839306E+04  0.44405823361E+03 0.  0.
      99925    2    3    3    0    0 -0.99763093983E+02 -0.11556129864E+02 -0.10521211084E+04  0.10891055800E+04  0.26288004602E+03 0.  0.
         25    1    4    4    0    0 -0.34845577888E+02  0.19086421285E+02 -0.39115291688E+03  0.41258528604E+03  0.12509000000E+03 0.  0.
         25    1    3    3    0    0  0.99763093983E+02  0.11556129864E+02 -0.48229985958E+03  0.50827835062E+03  0.12509000000E+03 0.  0.
         25    1    4    4    0    0 -0.64917516095E+02 -0.30642551149E+02 -0.66096819155E+03  0.67652029398E+03  0.12509000000E+03 0.  0.
<mgrwt>
<rscale>  2 0.44405823E+03</rscale>
<asrwt>0</asrwt>
<pdfrwt beam="1">  1       21 0.46296288E-02 0.44405823E+03</pdfrwt>
<pdfrwt beam="2">  1       21 0.23027981E+00 0.44405823E+03</pdfrwt>
<totfact> 0.23416213E+04</totfact>
</mgrwt>
</event>
<event>
 7    0  0.4748297E-002  0.4433688E+03  0.7546771E-02  0.1029718E+00
         21   -1    0    0  502  501  0.00000000000E+00  0.00000000000E+00  0.50616065550E+03  0.50616065550E+03  0.00000000000E+00 0.  1.
         21   -1    0    0  501  502 -0.00000000000E+00 -0.00000000000E+00 -0.97091641471E+02  0.97091641471E+02  0.00000000000E+00 0.  1.
      99926    2    1    2    0    0  0.00000000000E+00  0.00000000000E+00  0.40906901402E+03  0.60325229697E+03  0.44336878054E+03 0.  0.
      99925    2    3    3    0    0  0.80962859072E+02  0.56935522425E+02  0.22723755483E+03  0.36137045408E+03  0.26297349771E+03 0.  0.
         25    1    3    3    0    0 -0.80962859072E+02 -0.56935522425E+02  0.18183145919E+03  0.24188184288E+03  0.12509000000E+03 0.  0.
         25    1    4    4    0    0  0.82306749057E+02  0.31645177460E+02  0.13231712241E+03  0.20231447595E+03  0.12509000000E+03 0.  0.
         25    1    4    4    0    0 -0.13438899851E+01  0.25290344965E+02  0.94920432416E+02  0.15905597813E+03  0.12509000000E+03 0.  0.
<mgrwt>
<rscale>  2 0.44336878E+03</rscale>
<asrwt>0</asrwt>
<pdfrwt beam="1">  1       21 0.74435389E-01 0.44336878E+03</pdfrwt>
<pdfrwt beam="2">  1       21 0.14278183E-01 0.44336878E+03</pdfrwt>
<totfact> 0.64175223E+04</totfact>
</mgrwt>
</event>
<event>
 7    0  0.4748297E-002  0.4531999E+03  0.7546771E-02  0.1026772E+00
         21   -1    0    0  502  501  0.00000000000E+00  0.00000000000E+00  0.19715425529E+03  0.19715425529E+03  0.00000000000E+00 0. -1.
         21   -1    0    0  501  502 -0.00000000000E+00 -0.00000000000E+00 -0.26044347714E+03  0.26044347714E+03  0.00000000000E+00 0. -1.
      99926    2    1    2    0    0  0.00000000000E+00  0.00000000000E+00 -0.63289221848E+02  0.45759773243E+03  0.45319991077E+03 0.  0.
      99925    2    3    3    0    0  0.98973521694E+02 -0.48221149136E+02 -0.22767561240E+02  0.28610268790E+03  0.26308810113E+03 0.  0.
         25    1    3    3    0    0 -0.98973521694E+02  0.48221149136E+02 -0.40521660608E+02  0.17149504453E+03  0.12509000000E+03 0.  0.
         25    1    4    4    0    0  0.69765658283E+02 -0.60470163700E+02 -0.22312844339E+02  0.15706450553E+03  0.12509000000E+03 0.  0.
         25    1    4    4    0    0  0.29207863411E+02  0.12249014564E+02 -0.45471690090E+00  0.12903818237E+03  0.12509000000E+03 0.  0.
<mgrwt>
<rscale>  2 0.45319991E+03</rscale>
<asrwt>0</asrwt>
<pdfrwt beam="1">  1       21 0.28993273E-01 0.45319991E+03</pdfrwt>
<pdfrwt beam="2">  1       21 0.38300511E-01 0.45319991E+03</pdfrwt>
<totfact> 0.69346149E+04</totfact>
</mgrwt>
</event>
<event>
 7    0  0.4748297E-002  0.4531963E+03  0.7546771E-02  0.1026773E+00
         21   -1    0    0  502  501  0.00000000000E+00  0.00000000000E+00  0.18768186090E+03  0.18768186090E+03  0.00000000000E+00 0.  1.
         21   -1    0    0  501  502 -0.00000000000E+00 -0.00000000000E+00 -0.27358387148E+03  0.27358387148E+03  0.00000000000E+00 0.  1.
      99926    2    1    2    0    0 -0.71054273576E-14  0.00000000000E+00 -0.85902010587E+02  0.46126573238E+03  0.45319633763E+03 0.  0.
      99925    2    3    3    0    0  0.59826960302E+02  0.52112398243E+02 -0.13390922210E+03  0.30555071163E+03  0.26293457434E+03 0.  0.
         25    1    3    3    0    0 -0.59826960302E+02 -0.52112398243E+02  0.48007211515E+02  0.15571502075E+03  0.12509000000E+03 0.  0.
         25    1    4    4    0    0  0.61920564104E+02  0.39807285727E+02 -0.96858862796E+02  0.17449333414E+03  0.12509000000E+03 0.  0.
         25    1    4    4    0    0 -0.20936038026E+01  0.12305112516E+02 -0.37050359307E+02  0.13105737749E+03  0.12509000000E+03 0.  0.
<mgrwt>
<rscale>  2 0.45319634E+03</rscale>
<asrwt>0</asrwt>
<pdfrwt beam="1">  1       21 0.27600274E-01 0.45319634E+03</pdfrwt>
<pdfrwt beam="2">  1       21 0.40232922E-01 0.45319634E+03</pdfrwt>
<totfact> 0.69073333E+04</totfact>
</mgrwt>
</event>
<event>
 7    0  0.4748297E-002  0.4491471E+03  0.7546771E-02  0.1027977E+00
         21   -1    0    0  502  501  0.00000000000E+00  0.00000000000E+00  0.95048918398E+03  0.95048918398E+03  0.00000000000E+00 0.  1.
         21   -1    0    0  501  502 -0.00000000000E+00 -0.00000000000E+00 -0.53060349064E+02  0.53060349064E+02  0.00000000000E+00 0.  1.
      99926    2    1    2    0    0  0.71054273576E-14 -0.71054273576E-14  0.89742883492E+03  0.10035495330E+04  0.44914713796E+03 0.  0.
      99925    2    3    3    0    0 -0.44129818644E+02  0.35084010584E+02  0.36247123569E+03  0.45127653012E+03  0.26284364409E+03 0.  0.
         25    1    4    4    0    0 -0.49071819985E+02  0.46034826482E+02  0.21274851976E+03  0.25580596069E+03  0.12509000000E+03 0.  0.
         25    1    3    3    0    0  0.44129818644E+02 -0.35084010584E+02  0.53495759922E+03  0.55227300293E+03  0.12509000000E+03 0.  0.
         25    1    4    4    0    0  0.49420013412E+01 -0.10950815897E+02  0.14972271594E+03  0.19547056943E+03  0.12509000000E+03 0.  0.
<mgrwt>
<rscale>  2 0.44914714E+03</rscale>
<asrwt>0</asrwt>
<pdfrwt beam="1">  1       21 0.13977781E+00 0.44914714E+03</pdfrwt>
<pdfrwt beam="2">  1       21 0.78029931E-02 0.44914714E+03</pdfrwt>
<totfact> 0.40865137E+04</totfact>
</mgrwt>
</event>
<event>
 7    0  0.4748297E-002  0.4521592E+03  0.7546771E-02  0.1027080E+00
         21   -1    0    0  502  501  0.00000000000E+00  0.00000000000E+00  0.28078801845E+03  0.28078801845E+03  0.00000000000E+00 0.  1.
         21   -1    0    0  501  502 -0.00000000000E+00 -0.00000000000E+00 -0.18203048866E+03  0.18203048866E+03  0.00000000000E+00 0.  1.
      99926    2    1    2    0    0  0.71054273576E-14  0.14210854715E-13  0.98757529787E+02  0.46281850711E+03  0.45215917644E+03 0.  0.
      99925    2    3    3    0    0  0.42932924158E+02  0.87065095451E+02  0.11618546125E+03  0.30352378743E+03  0.26306664804E+03 0.  0.
         25    1    3    3    0    0 -0.42932924158E+02 -0.87065095451E+02 -0.17427931464E+02  0.15929471968E+03  0.12509000000E+03 0.  0.
         25    1    4    4    0    0  0.28104576162E+02  0.56793628309E+02  0.18860643767E+02  0.14148715631E+03  0.12509000000E+03 0.  0.
         25    1    4    4    0    0  0.14828347996E+02  0.30271467143E+02  0.97324817484E+02  0.16203663112E+03  0.12509000000E+03 0.  0.
<mgrwt>
<rscale>  2 0.45215918E+03</rscale>
<asrwt>0</asrwt>
<pdfrwt beam="1">  1       21 0.41292356E-01 0.45215918E+03</pdfrwt>
<pdfrwt beam="2">  1       21 0.26769190E-01 0.45215918E+03</pdfrwt>
<totfact> 0.69527642E+04</totfact>
</mgrwt>
</event>
<event>
 7    0  0.4748297E-002  0.4540680E+03  0.7546771E-02  0.1026516E+00
         21   -1    0    0  502  501  0.00000000000E+00  0.00000000000E+00  0.25604087890E+04  0.25604087890E+04  0.00000000000E+00 0.  1.
         21   -1    0    0  501  502 -0.00000000000E+00 -0.00000000000E+00 -0.20131334640E+02  0.20131334640E+02  0.00000000000E+00 0.  1.
      99926    2    1    2    0    0  0.17763568394E-14 -0.14210854715E-13  0.25402774543E+04  0.25805401236E+04  0.45406803960E+03 0.  0.
      99925    2    3    3    0    0  0.29538390329E+01  0.73980897620E+02  0.11215465057E+04  0.11543820289E+04  0.26315281842E+03 0.  0.
         25    1    3    3    0    0 -0.29538390329E+01 -0.73980897620E+02  0.14187309487E+04  0.14261580947E+04  0.12509000000E+03 0.  0.
         25    1    4    4    0    0 -0.29745660390E+02  0.60461106320E+02  0.52953909719E+03  0.54826956257E+03  0.12509000000E+03 0.  0.
         25    1    4    4    0    0  0.32699499423E+02  0.13519791300E+02  0.59200740847E+03  0.60611246629E+03  0.12509000000E+03 0.  0.
<mgrwt>
<rscale>  2 0.45406804E+03</rscale>
<asrwt>0</asrwt>
<pdfrwt beam="1">  1       21 0.37653048E+00 0.45406804E+03</pdfrwt>
<pdfrwt beam="2">  1       21 0.29604922E-02 0.45406804E+03</pdfrwt>
<totfact> 0.63886483E+03</totfact>
</mgrwt>
</event>
<event>
 7    0  0.4748297E-002  0.4530269E+03  0.7546771E-02  0.1026823E+00
         21   -1    0    0  502  501  0.00000000000E+00  0.00000000000E+00  0.11469027841E+03  0.11469027841E+03  0.00000000000E+00 0. -1.
         21   -1    0    0  501  502 -0.00000000000E+00 -0.00000000000E+00 -0.44736434257E+03  0.44736434257E+03  0.00000000000E+00 0. -1.
      99926    2    1    2    0    0  0.00000000000E+00  0.00000000000E+00 -0.33267406417E+03  0.56205462098E+03  0.45302689103E+03 0.  0.
      99925    2    3    3    0    0  0.10407302044E+03  0.38934960927E+02 -0.20248545939E+03  0.35005531513E+03  0.26304227345E+03 0.  0.
         25    1    4    4    0    0  0.35623334327E+02  0.35770726905E+02 -0.13977261040E+03  0.19424844290E+03  0.12509000000E+03 0.  0.
         25    1    4    4    0    0  0.68449686114E+02  0.31642340221E+01 -0.62712848988E+02  0.15580687223E+03  0.12509000000E+03 0.  0.
         25    1    3    3    0    0 -0.10407302044E+03 -0.38934960927E+02 -0.13018860478E+03  0.21199930585E+03  0.12509000000E+03 0.  0.
<mgrwt>
<rscale>  2 0.45302689E+03</rscale>
<asrwt>0</asrwt>
<pdfrwt beam="1">  1       21 0.16866217E-01 0.45302689E+03</pdfrwt>
<pdfrwt beam="2">  1       21 0.65788875E-01 0.45302689E+03</pdfrwt>
<totfact> 0.62039435E+04</totfact>
</mgrwt>
</event>
<event>
 7    0  0.4748297E-002  0.4558185E+03  0.7546771E-02  0.1026001E+00
         21   -1    0    0  502  501  0.00000000000E+00  0.00000000000E+00  0.38230291085E+03  0.38230291085E+03  0.00000000000E+00 0.  1.
         21   -1    0    0  501  502 -0.00000000000E+00 -0.00000000000E+00 -0.13586770797E+03  0.13586770797E+03  0.00000000000E+00 0.  1.
      99926    2    1    2    0    0  0.00000000000E+00  0.14210854715E-13  0.24643520288E+03  0.51817061882E+03  0.45581847373E+03 0.  0.
      99925    2    3    3    0    0  0.40795500638E+02 -0.10579052434E+03  0.14152460788E+03  0.31940027658E+03  0.26292853426E+03 0.  0.
         25    1    3    3    0    0 -0.40795500638E+02  0.10579052434E+03  0.10491059500E+03  0.19877034224E+03  0.12509000000E+03 0.  0.
         25    1    4    4    0    0  0.14935925069E+02 -0.61393443255E+02  0.28170983808E+02  0.14294526631E+03  0.12509000000E+03 0.  0.
         25    1    4    4    0    0  0.25859575569E+02 -0.44397081090E+02  0.11335362407E+03  0.17645501027E+03  0.12509000000E+03 0.  0.
<mgrwt>
<rscale>  2 0.45581847E+03</rscale>
<asrwt>0</asrwt>
<pdfrwt beam="1">  1       21 0.56221016E-01 0.45581847E+03</pdfrwt>
<pdfrwt beam="2">  1       21 0.19980545E-01 0.45581847E+03</pdfrwt>
<totfact> 0.63598067E+04</totfact>
</mgrwt>
</event>
<event>
 7    0  0.4748297E-002  0.4533727E+03  0.7546771E-02  0.1026721E+00
         21   -1    0    0  502  501  0.00000000000E+00  0.00000000000E+00  0.53021960088E+03  0.53021960088E+03  0.00000000000E+00 0. -1.
         21   -1    0    0  501  502 -0.00000000000E+00 -0.00000000000E+00 -0.96915875555E+02  0.96915875555E+02  0.00000000000E+00 0. -1.
      99926    2    1    2    0    0  0.00000000000E+00 -0.71054273576E-14  0.43330372532E+03  0.62713547643E+03  0.45337268050E+03 0.  0.
      99925    2    3    3    0    0 -0.10221189938E+03  0.41123917927E+02  0.29804586320E+03  0.41247144506E+03  0.26298841689E+03 0.  0.
         25    1    3    3    0    0  0.10221189938E+03 -0.41123917927E+02  0.13525786212E+03  0.21466403138E+03  0.12509000000E+03 0.  0.
         25    1    4    4    0    0 -0.42224713712E+02  0.32262873896E+02  0.20215602106E+03  0.24359471347E+03  0.12509000000E+03 0.  0.
         25    1    4    4    0    0 -0.59987185669E+02  0.88610440308E+01  0.95889842144E+02  0.16887673159E+03  0.12509000000E+03 0.  0.
<mgrwt>
<rscale>  2 0.45337268E+03</rscale>
<asrwt>0</asrwt>
<pdfrwt beam="1">  1       21 0.77973469E-01 0.45337268E+03</pdfrwt>
<pdfrwt beam="2">  1       21 0.14252335E-01 0.45337268E+03</pdfrwt>
<totfact> 0.57777039E+04</totfact>
</mgrwt>
</event>
<event>
 7    0  0.4748297E-002  0.4543299E+03  0.7546771E-02  0.1026439E+00
         21   -1    0    0  502  501  0.00000000000E+00  0.00000000000E+00  0.13744333413E+03  0.13744333413E+03  0.00000000000E+00 0.  1.
         21   -1    0    0  501  502 -0.00000000000E+00 -0.00000000000E+00 -0.37545593433E+03  0.37545593433E+03  0.00000000000E+00 0.  1.
      99926    2    1    2    0    0  0.71054273576E-14  0.14210854715E-13 -0.23801260020E+03  0.51289926846E+03  0.45432990407E+03 0.  0.
      99925    2    3    3    0    0 -0.38287156778E+02 -0.74498483334E+02 -0.23483731701E+03  0.36232197629E+03  0.26289297945E+03 0.  0.
         25    1    4    4    0    0 -0.28919231992E+02  0.24499844661E+01 -0.10047265933E+03  0.16304780825E+03  0.12509000000E+03 0.  0.
         25    1    4    4    0    0 -0.93679247866E+01 -0.76948467800E+02 -0.13436465769E+03  0.19927416804E+03  0.12509000000E+03 0.  0.
         25    1    3    3    0    0  0.38287156778E+02  0.74498483334E+02 -0.31752831826E+01  0.15057729217E+03  0.12509000000E+03 0.  0.
<mgrwt>
<rscale>  2 0.45432990E+03</rscale>
<asrwt>0</asrwt>
<pdfrwt beam="1">  1       21 0.20212255E-01 0.45432990E+03</pdfrwt>
<pdfrwt beam="2">  1       21 0.55214107E-01 0.45432990E+03</pdfrwt>
<totfact> 0.64717074E+04</totfact>
</mgrwt>
</event>
<event>
 7    0  0.4748297E-002  0.4569479E+03  0.7546771E-02  0.1025670E+00
         21   -1    0    0  502  501  0.00000000000E+00  0.00000000000E+00  0.15745860365E+03  0.15745860365E+03  0.00000000000E+00 0. -1.
         21   -1    0    0  501  502 -0.00000000000E+00 -0.00000000000E+00 -0.33151795037E+03  0.33151795037E+03  0.00000000000E+00 0. -1.
      99926    2    1    2    0    0  0.00000000000E+00  0.14210854715E-13 -0.17405934672E+03  0.48897655402E+03  0.45694793379E+03 0.  0.
      99925    2    3    3    0    0 -0.79434359423E+02  0.80434914320E+02 -0.13067657365E+03  0.31488127551E+03  0.26323802512E+03 0.  0.
         25    1    3    3    0    0  0.79434359423E+02 -0.80434914320E+02 -0.43382773070E+02  0.17409527851E+03  0.12509000000E+03 0.  0.
         25    1    4    4    0    0 -0.24077384692E+02  0.49286837984E+02 -0.24101622644E+02  0.13869862712E+03  0.12509000000E+03 0.  0.
         25    1    4    4    0    0 -0.55356974731E+02  0.31148076335E+02 -0.10657495101E+03  0.17618264839E+03  0.12509000000E+03 0.  0.
<mgrwt>
<rscale>  2 0.45694793E+03</rscale>
<asrwt>0</asrwt>
<pdfrwt beam="1">  1       21 0.23155677E-01 0.45694793E+03</pdfrwt>
<pdfrwt beam="2">  1       21 0.48752640E-01 0.45694793E+03</pdfrwt>
<totfact> 0.65040637E+04</totfact>
</mgrwt>
</event>
<event>
 7    0  0.4748297E-002  0.4556721E+03  0.7546771E-02  0.1026044E+00
         21   -1    0    0  502  501  0.00000000000E+00  0.00000000000E+00  0.35888752093E+02  0.35888752093E+02  0.00000000000E+00 0.  1.
         21   -1    0    0  501  502 -0.00000000000E+00 -0.00000000000E+00 -0.14463938548E+04  0.14463938548E+04  0.00000000000E+00 0.  1.
      99926    2    1    2    0    0  0.00000000000E+00  0.35527136788E-14 -0.14105051027E+04  0.14822826069E+04  0.45567212109E+03 0.  0.
      99925    2    3    3    0    0  0.59327504133E+02 -0.15535703094E+02 -0.57736529916E+03  0.63757523083E+03  0.26342052972E+03 0.  0.
         25    1    3    3    0    0 -0.59327504133E+02  0.15535703094E+02 -0.83313980359E+03  0.84470737611E+03  0.12509000000E+03 0.  0.
         25    1    4    4    0    0  0.63505793346E+01 -0.34327034800E+02 -0.23024072552E+03  0.26434253340E+03  0.12509000000E+03 0.  0.
         25    1    4    4    0    0  0.52976924798E+02  0.18791331707E+02 -0.34712457364E+03  0.37323269743E+03  0.12509000000E+03 0.  0.
<mgrwt>
<rscale>  2 0.45567212E+03</rscale>
<asrwt>0</asrwt>
<pdfrwt beam="1">  1       21 0.52777581E-02 0.45567212E+03</pdfrwt>
<pdfrwt beam="2">  1       21 0.21270496E+00 0.45567212E+03</pdfrwt>
<totfact> 0.24090691E+04</totfact>
</mgrwt>
</event>
<event>
 7    0  0.4748297E-002  0.4412394E+03  0.7546771E-02  0.1030367E+00
         21   -1    0    0  502  501  0.00000000000E+00  0.00000000000E+00  0.10084852757E+04  0.10084852757E+04  0.00000000000E+00 0. -1.
         21   -1    0    0  501  502 -0.00000000000E+00 -0.00000000000E+00 -0.48263527290E+02  0.48263527290E+02  0.00000000000E+00 0. -1.
      99926    2    1    2    0    0  0.17763568394E-14  0.14210854715E-13  0.96022174841E+03  0.10567488030E+04  0.44123942084E+03 0.  0.
      99925    2    3    3    0    0  0.12617173022E+02 -0.95056118196E+02  0.54818533458E+03  0.61559534547E+03  0.26316460562E+03 0.  0.
         25    1    4    4    0    0 -0.62965026696E+01 -0.72953480875E+01  0.26723523699E+03  0.29522033812E+03  0.12509000000E+03 0.  0.
         25    1    3    3    0    0 -0.12617173022E+02  0.95056118196E+02  0.41203641382E+03  0.44115345752E+03  0.12509000000E+03 0.  0.
         25    1    4    4    0    0  0.18913675692E+02 -0.87760770108E+02  0.28095009759E+03  0.32037500735E+03  0.12509000000E+03 0.  0.
<mgrwt>
<rscale>  2 0.44123942E+03</rscale>
<asrwt>0</asrwt>
<pdfrwt beam="1">  1       21 0.14830664E+00 0.44123942E+03</pdfrwt>
<pdfrwt beam="2">  1       21 0.70975782E-02 0.44123942E+03</pdfrwt>
<totfact> 0.41290051E+04</totfact>
</mgrwt>
</event>
<event>
 7    0  0.4748297E-002  0.4577546E+03  0.7546771E-02  0.1025434E+00
         21   -1    0    0  502  501  0.00000000000E+00  0.00000000000E+00  0.16066114853E+03  0.16066114853E+03  0.00000000000E+00 0.  1.
         21   -1    0    0  501  502 -0.00000000000E+00 -0.00000000000E+00 -0.32605774518E+03  0.32605774518E+03  0.00000000000E+00 0.  1.
      99926    2    1    2    0    0  0.00000000000E+00  0.00000000000E+00 -0.16539659665E+03  0.48671889371E+03  0.45775457104E+03 0.  0.
      99925    2    3    3    0    0 -0.39198886837E+02 -0.10889693044E+03 -0.10416988714E+03  0.30563517758E+03  0.26299506117E+03 0.  0.
         25    1    4    4    0    0  0.59339220246E+01 -0.44935968867E+02 -0.82332938733E+02  0.15646301042E+03  0.12509000000E+03 0.  0.
         25    1    4    4    0    0 -0.45132808862E+02 -0.63960961575E+02 -0.21836948405E+02  0.14917216717E+03  0.12509000000E+03 0.  0.
         25    1    3    3    0    0  0.39198886837E+02  0.10889693044E+03 -0.61226709507E+02  0.18108371613E+03  0.12509000000E+03 0.  0.
<mgrwt>
<rscale>  2 0.45775457E+03</rscale>
<asrwt>0</asrwt>
<pdfrwt beam="1">  1       21 0.23626640E-01 0.45775457E+03</pdfrwt>
<pdfrwt beam="2">  1       21 0.47949668E-01 0.45775457E+03</pdfrwt>
<totfact> 0.64785883E+04</totfact>
</mgrwt>
</event>
<event>
 7    0  0.4748297E-002  0.4622404E+03  0.7546771E-02  0.1024133E+00
         21   -1    0    0  502  501  0.00000000000E+00  0.00000000000E+00  0.49749516978E+02  0.49749516978E+02  0.00000000000E+00 0.  1.
         21   -1    0    0  501  502 -0.00000000000E+00 -0.00000000000E+00 -0.10737099895E+04  0.10737099895E+04  0.00000000000E+00 0.  1.
      99926    2    1    2    0    0  0.00000000000E+00  0.00000000000E+00 -0.10239604725E+04  0.11234595065E+04  0.46224042814E+03 0.  0.
      99925    2    3    3    0    0 -0.16817172848E+02  0.71416095880E+02 -0.40982654010E+03  0.49243567879E+03  0.26296773324E+03 0.  0.
         25    1    4    4    0    0 -0.20964200668E+02  0.64825593410E+02 -0.26541436069E+03  0.30122109194E+03  0.12509000000E+03 0.  0.
         25    1    4    4    0    0  0.41470278201E+01  0.65905024698E+01 -0.14441217941E+03  0.19121458685E+03  0.12509000000E+03 0.  0.
         25    1    3    3    0    0  0.16817172848E+02 -0.71416095880E+02 -0.61413393243E+03  0.63102382769E+03  0.12509000000E+03 0.  0.
<mgrwt>
<rscale>  2 0.46224043E+03</rscale>
<asrwt>0</asrwt>
<pdfrwt beam="1">  1       21 0.73161050E-02 0.46224043E+03</pdfrwt>
<pdfrwt beam="2">  1       21 0.15789854E+00 0.46224043E+03</pdfrwt>
<totfact> 0.32790588E+04</totfact>
</mgrwt>
</event>
<event>
 7    0  0.4748297E-002  0.4544537E+03  0.7546771E-02  0.1026402E+00
         21   -1    0    0  502  501  0.00000000000E+00  0.00000000000E+00  0.24273356446E+03  0.24273356446E+03  0.00000000000E+00 0.  1.
         21   -1    0    0  501  502 -0.00000000000E+00 -0.00000000000E+00 -0.21271077531E+03  0.21271077531E+03  0.00000000000E+00 0.  1.
      99926    2    1    2    0    0  0.00000000000E+00  0.53290705182E-14  0.30022789152E+02  0.45544433977E+03  0.45445371465E+03 0.  0.
      99925    2    3    3    0    0 -0.82024127455E+02 -0.14702607284E+02 -0.57089094924E+02  0.28172009680E+03  0.26298844849E+03 0.  0.
         25    1    3    3    0    0  0.82024127455E+02  0.14702607284E+02  0.87111884076E+02  0.17372424296E+03  0.12509000000E+03 0.  0.
         25    1    4    4    0    0 -0.47745149521E+02  0.24980375410E+02 -0.52608371051E+02  0.14600947662E+03  0.12509000000E+03 0.  0.
         25    1    4    4    0    0 -0.34278977935E+02 -0.39682982694E+02 -0.44807238728E+01  0.13571062018E+03  0.12509000000E+03 0.  0.
<mgrwt>
<rscale>  2 0.45445371E+03</rscale>
<asrwt>0</asrwt>
<pdfrwt beam="1">  1       21 0.35696113E-01 0.45445371E+03</pdfrwt>
<pdfrwt beam="2">  1       21 0.31280996E-01 0.45445371E+03</pdfrwt>
<totfact> 0.68812734E+04</totfact>
</mgrwt>
</event>
<event>
 7    0  0.4748297E-002  0.4455493E+03  0.7546771E-02  0.1029058E+00
         21   -1    0    0  502  501  0.00000000000E+00  0.00000000000E+00  0.25389865916E+03  0.25389865916E+03  0.00000000000E+00 0. -1.
         21   -1    0    0  501  502 -0.00000000000E+00 -0.00000000000E+00 -0.19546596397E+03  0.19546596397E+03  0.00000000000E+00 0. -1.
      99926    2    1    2    0    0  0.00000000000E+00  0.00000000000E+00  0.58432695196E+02  0.44936462313E+03  0.44554930664E+03 0.  0.
      99925    2    3    3    0    0  0.71248574336E+02 -0.74559363760E+02  0.22910876221E+02  0.28339846455E+03  0.26297209622E+03 0.  0.
         25    1    4    4    0    0  0.27042884990E+02 -0.67906020410E+02 -0.13926981690E+02  0.14554729182E+03  0.12509000000E+03 0.  0.
         25    1    3    3    0    0 -0.71248574336E+02  0.74559363760E+02  0.35521818975E+02  0.16596615858E+03  0.12509000000E+03 0.  0.
         25    1    4    4    0    0  0.44205689346E+02 -0.66533433503E+01  0.36837857911E+02  0.13785117273E+03  0.12509000000E+03 0.  0.
<mgrwt>
<rscale>  2 0.44554931E+03</rscale>
<asrwt>0</asrwt>
<pdfrwt beam="1">  1       21 0.37338038E-01 0.44554931E+03</pdfrwt>
<pdfrwt beam="2">  1       21 0.28744994E-01 0.44554931E+03</pdfrwt>
<totfact> 0.74414995E+04</totfact>
</mgrwt>
</event>
<event>
 7    0  0.4748297E-002  0.4523202E+03  0.7546771E-02  0.1027032E+00
         21   -1    0    0  502  501  0.00000000000E+00  0.00000000000E+00  0.93525769358E+03  0.93525769358E+03  0.00000000000E+00 0. -1.
         21   -1    0    0  501  502 -0.00000000000E+00 -0.00000000000E+00 -0.54689086342E+02  0.54689086342E+02  0.00000000000E+00 0. -1.
      99926    2    1    2    0    0  0.00000000000E+00  0.00000000000E+00  0.88056860724E+03  0.98994677993E+03  0.45232019082E+03 0.  0.
      99925    2    3    3    0    0 -0.79081778760E+02  0.47517779622E+02  0.68900475295E+03  0.74325651769E+03  0.26304150696E+03 0.  0.
         25    1    4    4    0    0 -0.24325492979E+02  0.22582835706E+02  0.23223599532E+03  0.26586233224E+03  0.12509000000E+03 0.  0.
         25    1    4    4    0    0 -0.54756285781E+02  0.24934943916E+02  0.45676875763E+03  0.47739418545E+03  0.12509000000E+03 0.  0.
         25    1    3    3    0    0  0.79081778760E+02 -0.47517779622E+02  0.19156385429E+03  0.24669026224E+03  0.12509000000E+03 0.  0.
<mgrwt>
<rscale>  2 0.45232019E+03</rscale>
<asrwt>0</asrwt>
<pdfrwt beam="1">  1       21 0.13753789E+00 0.45232019E+03</pdfrwt>
<pdfrwt beam="2">  1       21 0.80425133E-02 0.45232019E+03</pdfrwt>
<totfact> 0.40399067E+04</totfact>
</mgrwt>
</event>
<event>
 7    0  0.4748297E-002  0.4651198E+03  0.7546771E-02  0.1023307E+00
         21   -1    0    0  502  501  0.00000000000E+00  0.00000000000E+00  0.32219383562E+03  0.32219383562E+03  0.00000000000E+00 0. -1.
         21   -1    0    0  501  502 -0.00000000000E+00 -0.00000000000E+00 -0.16786200651E+03  0.16786200651E+03  0.00000000000E+00 0. -1.
      99926    2    1    2    0    0  0.00000000000E+00  0.00000000000E+00  0.15433182911E+03  0.49005584214E+03  0.46511978558E+03 0.  0.
      99925    2    3    3    0    0 -0.10952533412E+03  0.53569603053E+02  0.82474375731E+02  0.30117359604E+03  0.26275085368E+03 0.  0.
         25    1    4    4    0    0 -0.35042511161E+02  0.26728009728E+02  0.76293650974E+02  0.15300520701E+03  0.12509000000E+03 0.  0.
         25    1    4    4    0    0 -0.74482822962E+02  0.26841593325E+02  0.61807247571E+01  0.14816838903E+03  0.12509000000E+03 0.  0.
         25    1    3    3    0    0  0.10952533412E+03 -0.53569603053E+02  0.71857453377E+02  0.18888224610E+03  0.12509000000E+03 0.  0.
<mgrwt>
<rscale>  2 0.46511979E+03</rscale>
<asrwt>0</asrwt>
<pdfrwt beam="1">  1       21 0.47381447E-01 0.46511979E+03</pdfrwt>
<pdfrwt beam="2">  1       21 0.24685589E-01 0.46511979E+03</pdfrwt>
<totfact> 0.60931219E+04</totfact>
</mgrwt>
</event>
<event>
 7    0  0.4748297E-002  0.4545658E+03  0.7546771E-02  0.1026369E+00
         21   -1    0    0  502  501  0.00000000000E+00  0.00000000000E+00  0.73419133142E+03  0.73419133142E+03  0.00000000000E+00 0. -1.
         21   -1    0    0  501  502 -0.00000000000E+00 -0.00000000000E+00 -0.70359732035E+02  0.70359732035E+02  0.00000000000E+00 0. -1.
      99926    2    1    2    0    0  0.00000000000E+00 -0.14210854715E-13  0.66383159939E+03  0.80455106346E+03  0.45456575032E+03 0.  0.
      99925    2    3    3    0    0  0.52976603166E+02  0.70059155915E+02  0.29255364697E+03  0.40304187071E+03  0.26294544563E+03 0.  0.
         25    1    3    3    0    0 -0.52976603166E+02 -0.70059155915E+02  0.37127795242E+03  0.40150919275E+03  0.12509000000E+03 0.  0.
         25    1    4    4    0    0  0.28216317274E+02  0.76321304547E+02  0.14783426045E+03  0.21005613238E+03  0.12509000000E+03 0.  0.
         25    1    4    4    0    0  0.24760285891E+02 -0.62621486320E+01  0.14471938652E+03  0.19298573833E+03  0.12509000000E+03 0.  0.
<mgrwt>
<rscale>  2 0.45456575E+03</rscale>
<asrwt>0</asrwt>
<pdfrwt beam="1">  1       21 0.10796931E+00 0.45456575E+03</pdfrwt>
<pdfrwt beam="2">  1       21 0.10347020E-01 0.45456575E+03</pdfrwt>
<totfact> 0.47707836E+04</totfact>
</mgrwt>
</event>
<event>
 7    0  0.4748297E-002  0.4479175E+03  0.7546771E-02  0.1028345E+00
         21   -1    0    0  502  501  0.00000000000E+00  0.00000000000E+00  0.22134975569E+03  0.22134975569E+03  0.00000000000E+00 0.  1.
         21   -1    0    0  501  502 -0.00000000000E+00 -0.00000000000E+00 -0.22659847395E+03  0.22659847395E+03  0.00000000000E+00 0.  1.
      99926    2    1    2    0    0  0.00000000000E+00  0.00000000000E+00 -0.52487182665E+01  0.44794822964E+03  0.44791747833E+03 0.  0.
      99925    2    3    3    0    0  0.85424435700E+01  0.49511653564E+02  0.90370537339E+02  0.28267594726E+03  0.26308644960E+03 0.  0.
         25    1    4    4    0    0 -0.34945427913E+01 -0.27629786928E+01  0.12310000253E+02  0.12577316918E+03  0.12509000000E+03 0.  0.
         25    1    3    3    0    0 -0.85424435700E+01 -0.49511653564E+02 -0.95619255606E+02  0.16527228238E+03  0.12509000000E+03 0.  0.
         25    1    4    4    0    0  0.12036986361E+02  0.52274632257E+02  0.78060537086E+02  0.15690277808E+03  0.12509000000E+03 0.  0.
<mgrwt>
<rscale>  2 0.44791748E+03</rscale>
<asrwt>0</asrwt>
<pdfrwt beam="1">  1       21 0.32551435E-01 0.44791748E+03</pdfrwt>
<pdfrwt beam="2">  1       21 0.33323305E-01 0.44791748E+03</pdfrwt>
<totfact> 0.73110545E+04</totfact>
</mgrwt>
</event>
<event>
 7    0  0.4748297E-002  0.4303770E+03  0.7546771E-02  0.1033741E+00
         21   -1    0    0  502  501  0.00000000000E+00  0.00000000000E+00  0.68175122492E+03  0.68175122492E+03  0.00000000000E+00 0.  1.
         21   -1    0    0  501  502 -0.00000000000E+00 -0.00000000000E+00 -0.67922265269E+02  0.67922265269E+02  0.00000000000E+00 0.  1.
      99926    2    1    2    0    0 -0.71054273576E-14  0.71054273576E-14  0.61382895966E+03  0.74967349019E+03  0.43037698613E+03 0.  0.
      99925    2    3    3    0    0 -0.51708048219E+02  0.60834080798E+02  0.46062614394E+03  0.53638233126E+03  0.26297348377E+03 0.  0.
         25    1    4    4    0    0 -0.20495258543E+02  0.51995391356E+02  0.30313369077E+03  0.33265766025E+03  0.12509000000E+03 0.  0.
         25    1    3    3    0    0  0.51708048219E+02 -0.60834080798E+02  0.15320281571E+03  0.21329115893E+03  0.12509000000E+03 0.  0.
         25    1    4    4    0    0 -0.31212789676E+02  0.88386894418E+01  0.15749245317E+03  0.20372467101E+03  0.12509000000E+03 0.  0.
<mgrwt>
<rscale>  2 0.43037699E+03</rscale>
<asrwt>0</asrwt>
<pdfrwt beam="1">  1       21 0.10025753E+00 0.43037699E+03</pdfrwt>
<pdfrwt beam="2">  1       21 0.99885688E-02 0.43037699E+03</pdfrwt>
<totfact> 0.61318833E+04</totfact>
</mgrwt>
</event>
<event>
 7    0  0.4748297E-002  0.4548198E+03  0.7546771E-02  0.1026294E+00
         21   -1    0    0  502  501  0.00000000000E+00  0.00000000000E+00  0.42606030224E+03  0.42606030224E+03  0.00000000000E+00 0. -1.
         21   -1    0    0  501  502 -0.00000000000E+00 -0.00000000000E+00 -0.12138014120E+03  0.12138014120E+03  0.00000000000E+00 0. -1.
      99926    2    1    2    0    0 -0.71054273576E-14  0.00000000000E+00  0.30468016104E+03  0.54744044344E+03  0.45481978693E+03 0.  0.
      99925    2    3    3    0    0  0.33477062636E+02 -0.10549221181E+03  0.21890030317E+03  0.35967726123E+03  0.26306096070E+03 0.  0.
         25    1    4    4    0    0 -0.13081615682E+02 -0.75037943280E+02  0.13451486565E+03  0.19885567324E+03  0.12509000000E+03 0.  0.
         25    1    3    3    0    0 -0.33477062636E+02  0.10549221181E+03  0.85779857871E+02  0.18776318220E+03  0.12509000000E+03 0.  0.
         25    1    4    4    0    0  0.46558678318E+02 -0.30454268529E+02  0.84385437518E+02  0.16082158799E+03  0.12509000000E+03 0.  0.
<mgrwt>
<rscale>  2 0.45481979E+03</rscale>
<asrwt>0</asrwt>
<pdfrwt beam="1">  1       21 0.62655926E-01 0.45481979E+03</pdfrwt>
<pdfrwt beam="2">  1       21 0.17850021E-01 0.45481979E+03</pdfrwt>
<totfact> 0.62124504E+04</totfact>
</mgrwt>
</event>
<event>
 7    0  0.4748297E-002  0.4509211E+03  0.7546771E-02  0.1027448E+00
         21   -1    0    0  502  501  0.00000000000E+00  0.00000000000E+00  0.79350106096E+03  0.79350106096E+03  0.00000000000E+00 0.  1.
         21   -1    0    0  501  502 -0.00000000000E+00 -0.00000000000E+00 -0.64060974651E+02  0.64060974651E+02  0.00000000000E+00 0.  1.
      99926    2    1    2    0    0  0.00000000000E+00  0.35527136788E-14  0.72944008631E+03  0.85756203561E+03  0.45092106339E+03 0.  0.
      99925    2    3    3    0    0  0.31240772379E+02  0.14177829042E+02  0.65816629052E+03  0.70956048575E+03  0.26289963915E+03 0.  0.
         25    1    4    4    0    0  0.13114385598E+02 -0.30058378134E+02  0.36578133881E+03  0.38796776815E+03  0.12509000000E+03 0.  0.
         25    1    3    3    0    0 -0.31240772379E+02 -0.14177829042E+02  0.71273795786E+02  0.14800154986E+03  0.12509000000E+03 0.  0.
         25    1    4    4    0    0  0.18126386781E+02  0.44236207176E+02  0.29238495171E+03  0.32159271759E+03  0.12509000000E+03 0.  0.
<mgrwt>
<rscale>  2 0.45092106E+03</rscale>
<asrwt>0</asrwt>
<pdfrwt beam="1">  1       21 0.11669133E+00 0.45092106E+03</pdfrwt>
<pdfrwt beam="2">  1       21 0.94207320E-02 0.45092106E+03</pdfrwt>
<totfact> 0.46575300E+04</totfact>
</mgrwt>
</event>
<event>
 7    0  0.4748297E-002  0.4414742E+03  0.7546771E-02  0.1030295E+00
         21   -1    0    0  502  501  0.00000000000E+00  0.00000000000E+00  0.90928825994E+02  0.90928825994E+02  0.00000000000E+00 0. -1.
         21   -1    0    0  501  502 -0.00000000000E+00 -0.00000000000E+00 -0.53585714706E+03  0.53585714706E+03  0.00000000000E+00 0. -1.
      99926    2    1    2    0    0  0.00000000000E+00  0.17763568394E-14 -0.44492832107E+03  0.62678597306E+03  0.44147417267E+03 0.  0.
      99925    2    3    3    0    0 -0.66835387912E+02  0.99868885062E+01 -0.17909641592E+03  0.32532151924E+03  0.26304345205E+03 0.  0.
         25    1    3    3    0    0  0.66835387912E+02 -0.99868885062E+01 -0.26583190515E+03  0.30146445382E+03  0.12509000000E+03 0.  0.
         25    1    4    4    0    0 -0.36928573924E+02  0.35788705521E+02 -0.59313714364E+02  0.14768268628E+03  0.12509000000E+03 0.  0.
         25    1    4    4    0    0 -0.29906813987E+02 -0.25801817014E+02 -0.11978270155E+03  0.17763883296E+03  0.12509000000E+03 0.  0.
<mgrwt>
<rscale>  2 0.44147417E+03</rscale>
<asrwt>0</asrwt>
<pdfrwt beam="1">  1       21 0.13371886E-01 0.44147417E+03</pdfrwt>
<pdfrwt beam="2">  1       21 0.78802523E-01 0.44147417E+03</pdfrwt>
<totfact> 0.63580750E+04</totfact>
</mgrwt>
</event>
<event>
 6    0  0.4748297E-002  0.4533535E+03  0.7546771E-02  0.1026727E+00
         21   -1    0    0  502  501  0.00000000000E+00  0.00000000000E+00  0.21612860777E+03  0.21612860777E+03  0.00000000000E+00 0.  1.
         21   -1    0    0  501  502 -0.00000000000E+00 -0.00000000000E+00 -0.23773973715E+03  0.23773973715E+03  0.00000000000E+00 0.  1.
      99926    2    1    2    0    0 -0.71054273576E-14  0.00000000000E+00 -0.21611129375E+02  0.45386834492E+03  0.45335354152E+03 0.  0.
         25    1    3    3    0    0 -0.36124705709E+02 -0.25126934815E+02 -0.36181739336E+02  0.13745175000E+03  0.12509000000E+03 0.  0.
         25    1    3    3    0    0 -0.19087026691E+02  0.82471687563E+02  0.58190222773E+02  0.16186260829E+03  0.12509000000E+03 0.  0.
         25    1    3    3    0    0  0.55211732400E+02 -0.57344752748E+02 -0.43619612813E+02  0.15455398663E+03  0.12509000000E+03 0.  0.
<mgrwt>
<rscale>  2 0.45335354E+03</rscale>
<asrwt>0</asrwt>
<pdfrwt beam="1">  1       21 0.31783619E-01 0.45335354E+03</pdfrwt>
<pdfrwt beam="2">  1       21 0.34961726E-01 0.45335354E+03</pdfrwt>
<totfact> 0.69537831E+04</totfact>
</mgrwt>
</event>
<event>
 7    0  0.4748297E-002  0.4557102E+03  0.7546771E-02  0.1026033E+00
         21   -1    0    0  502  501  0.00000000000E+00  0.00000000000E+00  0.28583421284E+04  0.28583421284E+04  0.00000000000E+00 0.  1.
         21   -1    0    0  501  502 -0.00000000000E+00 -0.00000000000E+00 -0.18163655976E+02  0.18163655976E+02  0.00000000000E+00 0.  1.
      99926    2    1    2    0    0  0.00000000000E+00  0.71054273576E-14  0.28401784725E+04  0.28765057844E+04  0.45571018458E+03 0.  0.
      99925    2    3    3    0    0 -0.53009819967E+02  0.30454235100E+02  0.23920298972E+04  0.24072274501E+04  0.26305791370E+03 0.  0.
         25    1    4    4    0    0 -0.17908277167E+02 -0.11573653895E+02  0.88953415880E+03  0.89853947249E+03  0.12509000000E+03 0.  0.
         25    1    4    4    0    0 -0.35101542800E+02  0.42027888995E+02  0.15024957384E+04  0.15086879776E+04  0.12509000000E+03 0.  0.
         25    1    3    3    0    0  0.53009819967E+02 -0.30454235100E+02  0.44814857526E+03  0.46927833432E+03  0.12509000000E+03 0.  0.
<mgrwt>
<rscale>  2 0.45571018E+03</rscale>
<asrwt>0</asrwt>
<pdfrwt beam="1">  1       21 0.42034412E+00 0.45571018E+03</pdfrwt>
<pdfrwt beam="2">  1       21 0.26711278E-02 0.45571018E+03</pdfrwt>
<totfact> 0.39736117E+03</totfact>
</mgrwt>
</event>
<event>
 7    0  0.4748297E-002  0.3998274E+03  0.7546771E-02  0.1043839E+00
         21   -1    0    0  502  501  0.00000000000E+00  0.00000000000E+00  0.40197600198E+02  0.40197600198E+02  0.00000000000E+00 0. -1.
         21   -1    0    0  501  502 -0.00000000000E+00 -0.00000000000E+00 -0.99422558631E+03  0.99422558631E+03  0.00000000000E+00 0. -1.
      99926    2    1    2    0    0  0.00000000000E+00  0.00000000000E+00 -0.95402798611E+03  0.10344231865E+04  0.39982737588E+03 0.  0.
      99925    2    3    3    0    0 -0.31959966506E+01  0.43195767109E+02 -0.66872458011E+03  0.71990509440E+03  0.26304883995E+03 0.  0.
         25    1    3    3    0    0  0.31959966506E+01 -0.43195767109E+02 -0.28530340599E+03  0.31451809211E+03  0.12509000000E+03 0.  0.
         25    1    4    4    0    0  0.46936177401E+01  0.30390321631E+02 -0.44358395510E+03  0.46190890338E+03  0.12509000000E+03 0.  0.
         25    1    4    4    0    0 -0.78896143907E+01  0.12805445479E+02 -0.22514062501E+03  0.25799619102E+03  0.12509000000E+03 0.  0.
<mgrwt>
<rscale>  2 0.39982738E+03</rscale>
<asrwt>0</asrwt>
<pdfrwt beam="1">  1       21 0.59114113E-02 0.39982738E+03</pdfrwt>
<pdfrwt beam="2">  1       21 0.14620966E+00 0.39982738E+03</pdfrwt>
<totfact> 0.59723684E+04</totfact>
</mgrwt>
</event>
<event>
 7    0  0.4748297E-002  0.4585917E+03  0.7546771E-02  0.1025190E+00
         21   -1    0    0  502  501  0.00000000000E+00  0.00000000000E+00  0.74543981600E+02  0.74543981600E+02  0.00000000000E+00 0. -1.
         21   -1    0    0  501  502 -0.00000000000E+00 -0.00000000000E+00 -0.70530948601E+03  0.70530948601E+03  0.00000000000E+00 0. -1.
      99926    2    1    2    0    0  0.44408920985E-15  0.00000000000E+00 -0.63076550441E+03  0.77985346760E+03  0.45859165866E+03 0.  0.
      99925    2    3    3    0    0 -0.18539024056E+01  0.11453576198E+03 -0.43191444310E+03  0.51848948690E+03  0.26298171827E+03 0.  0.
         25    1    3    3    0    0  0.18539024056E+01 -0.11453576198E+03 -0.19885106130E+03  0.26136398070E+03  0.12509000000E+03 0.  0.
         25    1    4    4    0    0 -0.81660860946E+01  0.38392660546E+02 -0.26959417647E+03  0.29978193647E+03  0.12509000000E+03 0.  0.
         25    1    4    4    0    0  0.63121836890E+01  0.76143101432E+02 -0.16232026663E+03  0.21870755043E+03  0.12509000000E+03 0.  0.
<mgrwt>
<rscale>  2 0.45859166E+03</rscale>
<asrwt>0</asrwt>
<pdfrwt beam="1">  1       21 0.10962350E-01 0.45859166E+03</pdfrwt>
<pdfrwt beam="2">  1       21 0.10372198E+00 0.45859166E+03</pdfrwt>
<totfact> 0.47404158E+04</totfact>
</mgrwt>
</event>
<event>
 7    0  0.4748297E-002  0.4594203E+03  0.7546771E-02  0.1024949E+00
         21   -1    0    0  502  501  0.00000000000E+00  0.00000000000E+00  0.38664024260E+03  0.38664024260E+03  0.00000000000E+00 0.  1.
         21   -1    0    0  501  502 -0.00000000000E+00 -0.00000000000E+00 -0.13647506347E+03  0.13647506347E+03  0.00000000000E+00 0.  1.
      99926    2    1    2    0    0  0.35527136788E-14  0.00000000000E+00  0.25016517913E+03  0.52311530607E+03  0.45942029406E+03 0.  0.
      99925    2    3    3    0    0 -0.29545762319E+02  0.11333311846E+03  0.16355648570E+03  0.33111030174E+03  0.26299422065E+03 0.  0.
         25    1    4    4    0    0  0.12205271804E+02  0.85189347454E+02  0.71405557759E+02  0.16778693441E+03  0.12509000000E+03 0.  0.
         25    1    4    4    0    0 -0.41751034123E+02  0.28143771002E+02  0.92150927943E+02  0.16332336733E+03  0.12509000000E+03 0.  0.
         25    1    3    3    0    0  0.29545762319E+02 -0.11333311846E+03  0.86608693427E+02  0.19200500433E+03  0.12509000000E+03 0.  0.
<mgrwt>
<rscale>  2 0.45942029E+03</rscale>
<asrwt>0</asrwt>
<pdfrwt beam="1">  1       21 0.56858859E-01 0.45942029E+03</pdfrwt>
<pdfrwt beam="2">  1       21 0.20069862E-01 0.45942029E+03</pdfrwt>
<totfact> 0.61490611E+04</totfact>
</mgrwt>
</event>
<event>
 7    0  0.4748297E-002  0.4412210E+03  0.7546771E-02  0.1030373E+00
         21   -1    0    0  502  501  0.00000000000E+00  0.00000000000E+00  0.72794791771E+02  0.72794791771E+02  0.00000000000E+00 0. -1.
         21   -1    0    0  501  502 -0.00000000000E+00 -0.00000000000E+00 -0.66857782580E+03  0.66857782580E+03  0.00000000000E+00 0. -1.
      99926    2    1    2    0    0  0.00000000000E+00  0.35527136788E-14 -0.59578303403E+03  0.74137261757E+03  0.44122095876E+03 0.  0.
      99925    2    3    3    0    0 -0.67073911496E+02 -0.25390101257E+02 -0.49642635595E+03  0.56626458114E+03  0.26281720286E+03 0.  0.
         25    1    3    3    0    0  0.67073911496E+02  0.25390101257E+02 -0.99356678074E+02  0.17510803643E+03  0.12509000000E+03 0.  0.
         25    1    4    4    0    0 -0.90057701033E+01 -0.65042596321E+01 -0.16962826130E+03  0.21105606938E+03  0.12509000000E+03 0.  0.
         25    1    4    4    0    0 -0.58068141393E+02 -0.18885841625E+02 -0.32679809465E+03  0.35520851176E+03  0.12509000000E+03 0.  0.
<mgrwt>
<rscale>  2 0.44122096E+03</rscale>
<asrwt>0</asrwt>
<pdfrwt beam="1">  1       21 0.10705117E-01 0.44122096E+03</pdfrwt>
<pdfrwt beam="2">  1       21 0.98320261E-01 0.44122096E+03</pdfrwt>
<totfact> 0.56599744E+04</totfact>
</mgrwt>
</event>
<event>
 7    0  0.4748297E-002  0.4586508E+03  0.7546771E-02  0.1025173E+00
         21   -1    0    0  502  501  0.00000000000E+00  0.00000000000E+00  0.32464991865E+03  0.32464991865E+03  0.00000000000E+00 0.  1.
         21   -1    0    0  501  502 -0.00000000000E+00 -0.00000000000E+00 -0.16199032650E+03  0.16199032650E+03  0.00000000000E+00 0.  1.
      99926    2    1    2    0    0  0.00000000000E+00  0.00000000000E+00  0.16265959214E+03  0.48664024515E+03  0.45865083155E+03 0.  0.
      99925    2    3    3    0    0  0.80029660414E+02  0.11287620017E+02  0.19119971625E+03  0.33500184733E+03  0.26293867974E+03 0.  0.
         25    1    3    3    0    0 -0.80029660414E+02 -0.11287620017E+02 -0.28540124106E+02  0.15163839783E+03  0.12509000000E+03 0.  0.
         25    1    4    4    0    0  0.60835035098E+02 -0.29108756027E+02  0.93811558852E+02  0.17028311087E+03  0.12509000000E+03 0.  0.
         25    1    4    4    0    0  0.19194625317E+02  0.40396376045E+02  0.97388157398E+02  0.16471873646E+03  0.12509000000E+03 0.  0.
<mgrwt>
<rscale>  2 0.45865083E+03</rscale>
<asrwt>0</asrwt>
<pdfrwt beam="1">  1       21 0.47742635E-01 0.45865083E+03</pdfrwt>
<pdfrwt beam="2">  1       21 0.23822107E-01 0.45865083E+03</pdfrwt>
<totfact> 0.64334997E+04</totfact>
</mgrwt>
</event>
<event>
 7    0  0.4748297E-002  0.4540262E+03  0.7546771E-02  0.1026528E+00
         21   -1    0    0  502  501  0.00000000000E+00  0.00000000000E+00  0.48199973211E+03  0.48199973211E+03  0.00000000000E+00 0.  1.
         21   -1    0    0  501  502 -0.00000000000E+00 -0.00000000000E+00 -0.10691901631E+03  0.10691901631E+03  0.00000000000E+00 0.  1.
      99926    2    1    2    0    0 -0.71054273576E-14  0.00000000000E+00  0.37508071580E+03  0.58891874842E+03  0.45402615440E+03 0.  0.
      99925    2    3    3    0    0 -0.58247477155E+02 -0.87452871249E+02  0.18490139898E+03  0.33820685415E+03  0.26297257569E+03 0.  0.
         25    1    4    4    0    0 -0.54239135518E+02 -0.35300638170E+02  0.57393282136E+02  0.15208391043E+03  0.12509000000E+03 0.  0.
         25    1    4    4    0    0 -0.40083416369E+01 -0.52152233079E+02  0.12750811685E+03  0.18612294372E+03  0.12509000000E+03 0.  0.
         25    1    3    3    0    0  0.58247477155E+02  0.87452871249E+02  0.19017931682E+03  0.25071189427E+03  0.12509000000E+03 0.  0.
<mgrwt>
<rscale>  2 0.45402615E+03</rscale>
<asrwt>0</asrwt>
<pdfrwt beam="1">  1       21 0.70882313E-01 0.45402615E+03</pdfrwt>
<pdfrwt beam="2">  1       21 0.15723385E-01 0.45402615E+03</pdfrwt>
<totfact> 0.59824726E+04</totfact>
</mgrwt>
</event>
<event>
 7    0  0.4748297E-002  0.4509347E+03  0.7546771E-02  0.1027444E+00
         21   -1    0    0  502  501  0.00000000000E+00  0.00000000000E+00  0.10768568660E+03  0.10768568660E+03  0.00000000000E+00 0. -1.
         21   -1    0    0  501  502 -0.00000000000E+00 -0.00000000000E+00 -0.47207313371E+03  0.47207313371E+03  0.00000000000E+00 0. -1.
      99926    2    1    2    0    0  0.00000000000E+00  0.00000000000E+00 -0.36438744711E+03  0.57975882031E+03  0.45093467167E+03 0.  0.
      99925    2    3    3    0    0 -0.83218991295E+02  0.66000255763E+02 -0.19586690959E+03  0.34453953126E+03  0.26279689507E+03 0.  0.
         25    1    4    4    0    0 -0.84104667890E+01  0.85356686375E+01 -0.10243689337E+03  0.16212470143E+03  0.12509000000E+03 0.  0.
         25    1    4    4    0    0 -0.74808524506E+02  0.57464587126E+02 -0.93430016222E+02  0.18241482983E+03  0.12509000000E+03 0.  0.
         25    1    3    3    0    0  0.83218991295E+02 -0.66000255763E+02 -0.16852053752E+03  0.23521928905E+03  0.12509000000E+03 0.  0.
<mgrwt>
<rscale>  2 0.45093467E+03</rscale>
<asrwt>0</asrwt>
<pdfrwt beam="1">  1       21 0.15836130E-01 0.45093467E+03</pdfrwt>
<pdfrwt beam="2">  1       21 0.69422519E-01 0.45093467E+03</pdfrwt>
<totfact> 0.61907579E+04</totfact>
</mgrwt>
</event>
<event>
 7    0  0.4748297E-002  0.4543669E+03  0.7546771E-02  0.1026428E+00
         21   -1    0    0  502  501  0.00000000000E+00  0.00000000000E+00  0.18491198541E+03  0.18491198541E+03  0.00000000000E+00 0.  1.
         21   -1    0    0  501  502 -0.00000000000E+00 -0.00000000000E+00 -0.27911834873E+03  0.27911834873E+03  0.00000000000E+00 0.  1.
      99926    2    1    2    0    0  0.00000000000E+00  0.00000000000E+00 -0.94206363315E+02  0.46403033414E+03  0.45436693554E+03 0.  0.
      99925    2    3    3    0    0 -0.33873785847E+02 -0.99868355984E+02 -0.18581895327E+02  0.28378691497E+03  0.26280906450E+03 0.  0.
         25    1    4    4    0    0 -0.74997557712E+01 -0.93330506409E+01 -0.19290115766E+02  0.12713366524E+03  0.12509000000E+03 0.  0.
         25    1    4    4    0    0 -0.26374030076E+02 -0.90535305343E+02  0.70822043884E+00  0.15665324973E+03  0.12509000000E+03 0.  0.
         25    1    3    3    0    0  0.33873785847E+02  0.99868355984E+02 -0.75624467988E+02  0.18024341917E+03  0.12509000000E+03 0.  0.
<mgrwt>
<rscale>  2 0.45436694E+03</rscale>
<asrwt>0</asrwt>
<pdfrwt beam="1">  1       21 0.27192940E-01 0.45436694E+03</pdfrwt>
<pdfrwt beam="2">  1       21 0.41046815E-01 0.45436694E+03</pdfrwt>
<totfact> 0.68225013E+04</totfact>
</mgrwt>
</event>
<event>
 7    0  0.4748297E-002  0.4516587E+03  0.7546771E-02  0.1027229E+00
         21   -1    0    0  502  501  0.00000000000E+00  0.00000000000E+00  0.54581204668E+02  0.54581204668E+02  0.00000000000E+00 0.  1.
         21   -1    0    0  501  502 -0.00000000000E+00 -0.00000000000E+00 -0.93436743892E+03  0.93436743892E+03  0.00000000000E+00 0.  1.
      99926    2    1    2    0    0  0.00000000000E+00  0.71054273576E-14 -0.87978623425E+03  0.98894864359E+03  0.45165872257E+03 0.  0.
      99925    2    3    3    0    0  0.88557247045E+02  0.57038887251E+02 -0.48830009539E+03  0.56467900564E+03  0.26330509982E+03 0.  0.
         25    1    4    4    0    0  0.67045408489E+02  0.95087178265E+01 -0.30668445474E+03  0.33806562291E+03  0.12509000000E+03 0.  0.
         25    1    4    4    0    0  0.21511838557E+02  0.47530169424E+02 -0.18161564065E+03  0.22661338273E+03  0.12509000000E+03 0.  0.
         25    1    3    3    0    0 -0.88557247045E+02 -0.57038887251E+02 -0.39148613886E+03  0.42426963795E+03  0.12509000000E+03 0.  0.
<mgrwt>
<rscale>  2 0.45165872E+03</rscale>
<asrwt>0</asrwt>
<pdfrwt beam="1">  1       21 0.80266481E-02 0.45165872E+03</pdfrwt>
<pdfrwt beam="2">  1       21 0.13740697E+00 0.45165872E+03</pdfrwt>
<totfact> 0.40649926E+04</totfact>
</mgrwt>
</event>
<event>
 7    0  0.4748297E-002  0.4551512E+03  0.7546771E-02  0.1026197E+00
         21   -1    0    0  502  501  0.00000000000E+00  0.00000000000E+00  0.21332315834E+03  0.21332315834E+03  0.00000000000E+00 0. -1.
         21   -1    0    0  501  502 -0.00000000000E+00 -0.00000000000E+00 -0.24278024278E+03  0.24278024278E+03  0.00000000000E+00 0. -1.
      99926    2    1    2    0    0  0.14210854715E-13 -0.71054273576E-14 -0.29457084436E+02  0.45610340112E+03  0.45515117564E+03 0.  0.
      99925    2    3    3    0    0  0.82251251937E+02 -0.61641672571E+02 -0.66327647581E+02  0.29005548403E+03  0.26299783790E+03 0.  0.
         25    1    3    3    0    0 -0.82251251937E+02  0.61641672571E+02  0.36870563145E+02  0.16604791709E+03  0.12509000000E+03 0.  0.
         25    1    4    4    0    0  0.75873698120E+02 -0.10961229842E+02 -0.25561638516E+02  0.14892236934E+03  0.12509000000E+03 0.  0.
         25    1    4    4    0    0  0.63775538164E+01 -0.50680442729E+02 -0.40766009065E+02  0.14113311469E+03  0.12509000000E+03 0.  0.
<mgrwt>
<rscale>  2 0.45515118E+03</rscale>
<asrwt>0</asrwt>
<pdfrwt beam="1">  1       21 0.31371053E-01 0.45515118E+03</pdfrwt>
<pdfrwt beam="2">  1       21 0.35702977E-01 0.45515118E+03</pdfrwt>
<totfact> 0.68382549E+04</totfact>
</mgrwt>
</event>
<event>
 6    0  0.4748297E-002  0.4581662E+03  0.7546771E-02  0.1025314E+00
         21   -1    0    0  502  501  0.00000000000E+00  0.00000000000E+00  0.33320047280E+04  0.33320047280E+04  0.00000000000E+00 0.  1.
         21   -1    0    0  501  502 -0.00000000000E+00 -0.00000000000E+00 -0.15750000704E+02  0.15750000704E+02  0.00000000000E+00 0.  1.
      99926    2    1    2    0    0  0.00000000000E+00  0.00000000000E+00  0.33162547273E+04  0.33477547287E+04  0.45816624412E+03 0.  0.
         25    1    3    3    0    0  0.48613436213E+02  0.22542934568E+02  0.13836508164E+04  0.13903267745E+04  0.12509000000E+03 0.  0.
         25    1    3    3    0    0  0.53171750072E+02  0.25406294468E+02  0.10345391893E+04  0.10437392190E+04  0.12509000000E+03 0.  0.
         25    1    3    3    0    0 -0.10178518628E+03 -0.47949229036E+02  0.89806472158E+03  0.91368873527E+03  0.12509000000E+03 0.  0.
<mgrwt>
<rscale>  2 0.45816624E+03</rscale>
<asrwt>0</asrwt>
<pdfrwt beam="1">  1       21 0.49000021E+00 0.45816624E+03</pdfrwt>
<pdfrwt beam="2">  1       21 0.23161789E-02 0.45816624E+03</pdfrwt>
<totfact> 0.16891840E+03</totfact>
</mgrwt>
</event>
<event>
 7    0  0.4748297E-002  0.4475587E+03  0.7546771E-02  0.1028453E+00
         21   -1    0    0  502  501  0.00000000000E+00  0.00000000000E+00  0.16998925027E+03  0.16998925027E+03  0.00000000000E+00 0. -1.
         21   -1    0    0  501  502 -0.00000000000E+00 -0.00000000000E+00 -0.29459037401E+03  0.29459037401E+03  0.00000000000E+00 0. -1.
      99926    2    1    2    0    0  0.00000000000E+00  0.14210854715E-13 -0.12460112374E+03  0.46457962429E+03  0.44755869701E+03 0.  0.
      99925    2    3    3    0    0  0.74388158025E+02  0.68647586628E+02 -0.45830154861E+02  0.28541918546E+03  0.26290229959E+03 0.  0.
         25    1    4    4    0    0  0.65985075083E+02  0.50801816499E+02 -0.50959571638E+02  0.15867967965E+03  0.12509000000E+03 0.  0.
         25    1    3    3    0    0 -0.74388158025E+02 -0.68647586628E+02 -0.78770968878E+02  0.17916043883E+03  0.12509000000E+03 0.  0.
         25    1    4    4    0    0  0.84030829414E+01  0.17845770129E+02  0.51294167774E+01  0.12673950580E+03  0.12509000000E+03 0.  0.
<mgrwt>
<rscale>  2 0.44755870E+03</rscale>
<asrwt>0</asrwt>
<pdfrwt beam="1">  1       21 0.24998420E-01 0.44755870E+03</pdfrwt>
<pdfrwt beam="2">  1       21 0.43322113E-01 0.44755870E+03</pdfrwt>
<totfact> 0.71998278E+04</totfact>
</mgrwt>
</event>
<event>
 7    0  0.4748297E-002  0.4447769E+03  0.7546771E-02  0.1029291E+00
         21   -1    0    0  502  501  0.00000000000E+00  0.00000000000E+00  0.10852734921E+04  0.10852734921E+04  0.00000000000E+00 0.  1.
         21   -1    0    0  501  502 -0.00000000000E+00 -0.00000000000E+00 -0.45570655829E+02  0.45570655829E+02  0.00000000000E+00 0.  1.
      99926    2    1    2    0    0  0.00000000000E+00  0.00000000000E+00  0.10397028362E+04  0.11308441479E+04  0.44477690941E+03 0.  0.
      99925    2    3    3    0    0  0.96187110704E+02  0.10661305318E+02  0.75251697527E+03  0.80298922490E+03  0.26295298730E+03 0.  0.
         25    1    3    3    0    0 -0.96187110704E+02 -0.10661305318E+02  0.28718586096E+03  0.32785492300E+03  0.12509000000E+03 0.  0.
         25    1    4    4    0    0  0.72931276914E+02  0.16841122914E+02  0.31110098881E+03  0.34356066118E+03  0.12509000000E+03 0.  0.
         25    1    4    4    0    0  0.23255833791E+02 -0.61798175962E+01  0.44141598646E+03  0.45942856371E+03  0.12509000000E+03 0.  0.
<mgrwt>
<rscale>  2 0.44477691E+03</rscale>
<asrwt>0</asrwt>
<pdfrwt beam="1">  1       21 0.15959903E+00 0.44477691E+03</pdfrwt>
<pdfrwt beam="2">  1       21 0.67015677E-02 0.44477691E+03</pdfrwt>
<totfact> 0.37314551E+04</totfact>
</mgrwt>
</event>
<event>
 7    0  0.4748297E-002  0.4709193E+03  0.7546771E-02  0.1021661E+00
         21   -1    0    0  502  501  0.00000000000E+00  0.00000000000E+00  0.41639256332E+02  0.41639256332E+02  0.00000000000E+00 0.  1.
         21   -1    0    0  501  502 -0.00000000000E+00 -0.00000000000E+00 -0.13314658939E+04  0.13314658939E+04  0.00000000000E+00 0.  1.
      99926    2    1    2    0    0  0.14210854715E-13 -0.35527136788E-14 -0.12898266376E+04  0.13731051503E+04  0.47091931222E+03 0.  0.
      99925    2    3    3    0    0 -0.11788079252E+03  0.20046788258E+02 -0.92900143436E+03  0.97293007563E+03  0.26315682028E+03 0.  0.
         25    1    3    3    0    0  0.11788079252E+03 -0.20046788258E+02 -0.36082520323E+03  0.40017507462E+03  0.12509000000E+03 0.  0.
         25    1    4    4    0    0 -0.99666864406E+02 -0.37301405524E+01 -0.48817370391E+03  0.51372022648E+03  0.12509000000E+03 0.  0.
         25    1    4    4    0    0 -0.18213928110E+02  0.23776928810E+02 -0.44082773045E+03  0.45920984915E+03  0.12509000000E+03 0.  0.
<mgrwt>
<rscale>  2 0.47091931E+03</rscale>
<asrwt>0</asrwt>
<pdfrwt beam="1">  1       21 0.61234199E-02 0.47091931E+03</pdfrwt>
<pdfrwt beam="2">  1       21 0.19580381E+00 0.47091931E+03</pdfrwt>
<totfact> 0.23953884E+04</totfact>
</mgrwt>
</event>
<event>
 7    0  0.4748297E-002  0.4557989E+03  0.7546771E-02  0.1026007E+00
         21   -1    0    0  502  501  0.00000000000E+00  0.00000000000E+00  0.60678446008E+03  0.60678446008E+03  0.00000000000E+00 0.  1.
         21   -1    0    0  501  502 -0.00000000000E+00 -0.00000000000E+00 -0.85595745061E+02  0.85595745061E+02  0.00000000000E+00 0.  1.
      99926    2    1    2    0    0  0.14210854715E-13 -0.71054273576E-14  0.52118871502E+03  0.69238020514E+03  0.45579893792E+03 0.  0.
      99925    2    3    3    0    0 -0.75446102134E+02  0.46426900922E+02  0.43641426912E+03  0.51721803390E+03  0.26307700174E+03 0.  0.
         25    1    4    4    0    0 -0.56935977321E+02  0.56396905232E+02  0.26744744378E+03  0.30593783637E+03  0.12509000000E+03 0.  0.
         25    1    3    3    0    0  0.75446102134E+02 -0.46426900922E+02  0.84774445903E+02  0.17516217124E+03  0.12509000000E+03 0.  0.
         25    1    4    4    0    0 -0.18510124813E+02 -0.99700043099E+01  0.16896682533E+03  0.21128019753E+03  0.12509000000E+03 0.  0.
<mgrwt>
<rscale>  2 0.45579894E+03</rscale>
<asrwt>0</asrwt>
<pdfrwt beam="1">  1       21 0.89233007E-01 0.45579894E+03</pdfrwt>
<pdfrwt beam="2">  1       21 0.12587610E-01 0.45579894E+03</pdfrwt>
<totfact> 0.52984685E+04</totfact>
</mgrwt>
</event>
<event>
 7    0  0.4748297E-002  0.4529709E+03  0.7546771E-02  0.1026840E+00
         21   -1    0    0  502  501  0.00000000000E+00  0.00000000000E+00  0.37550345759E+03  0.37550345759E+03  0.00000000000E+00 0.  1.
         21   -1    0    0  501  502 -0.00000000000E+00 -0.00000000000E+00 -0.13660504410E+03  0.13660504410E+03  0.00000000000E+00 0.  1.
      99926    2    1    2    0    0  0.00000000000E+00  0.00000000000E+00  0.23889841349E+03  0.51210850168E+03  0.45297093232E+03 0.  0.
      99925    2    3    3    0    0  0.66269919376E+01  0.68571925709E+02  0.24896837345E+03  0.36894796868E+03  0.26342233504E+03 0.  0.
         25    1    4    4    0    0 -0.28390783663E+02  0.16651373545E+02  0.14720021485E+03  0.19595590369E+03  0.12509000000E+03 0.  0.
         25    1    4    4    0    0  0.35017775600E+02  0.51920552164E+02  0.10176815860E+03  0.17299206499E+03  0.12509000000E+03 0.  0.
         25    1    3    3    0    0 -0.66269919376E+01 -0.68571925709E+02 -0.10069959957E+02  0.14316053301E+03  0.12509000000E+03 0.  0.
<mgrwt>
<rscale>  2 0.45297093E+03</rscale>
<asrwt>0</asrwt>
<pdfrwt beam="1">  1       21 0.55221097E-01 0.45297093E+03</pdfrwt>
<pdfrwt beam="2">  1       21 0.20088977E-01 0.45297093E+03</pdfrwt>
<totfact> 0.65476043E+04</totfact>
</mgrwt>
</event>
<event>
 7    0  0.4748297E-002  0.4575089E+03  0.7546771E-02  0.1025506E+00
         21   -1    0    0  502  501  0.00000000000E+00  0.00000000000E+00  0.29829524968E+02  0.29829524968E+02  0.00000000000E+00 0.  1.
         21   -1    0    0  501  502 -0.00000000000E+00 -0.00000000000E+00 -0.17542548382E+04  0.17542548382E+04  0.00000000000E+00 0.  1.
      99926    2    1    2    0    0  0.14210854715E-13 -0.35527136788E-14 -0.17244253133E+04  0.17840843632E+04  0.45750885673E+03 0.  0.
      99925    2    3    3    0    0  0.83030731681E+02 -0.80956882394E+01 -0.77175297113E+03  0.81961987856E+03  0.26308640084E+03 0.  0.
         25    1    3    3    0    0 -0.83030731681E+02  0.80956882394E+01 -0.95267234213E+03  0.96446448464E+03  0.12509000000E+03 0.  0.
         25    1    4    4    0    0  0.63494490533E+02  0.28788477697E+02 -0.36824408564E+03  0.39510953099E+03  0.12509000000E+03 0.  0.
         25    1    4    4    0    0  0.19536241148E+02 -0.36884165936E+02 -0.40350888550E+03  0.42451034757E+03  0.12509000000E+03 0.  0.
<mgrwt>
<rscale>  2 0.45750886E+03</rscale>
<asrwt>0</asrwt>
<pdfrwt beam="1">  1       21 0.43866959E-02 0.45750886E+03</pdfrwt>
<pdfrwt beam="2">  1       21 0.25797859E+00 0.45750886E+03</pdfrwt>
<totfact> 0.17229243E+04</totfact>
</mgrwt>
</event>
<event>
 7    0  0.4748297E-002  0.4439850E+03  0.7546771E-02  0.1029531E+00
         21   -1    0    0  502  501  0.00000000000E+00  0.00000000000E+00  0.21394045365E+04  0.21394045365E+04  0.00000000000E+00 0. -1.
         21   -1    0    0  501  502 -0.00000000000E+00 -0.00000000000E+00 -0.23034758731E+02  0.23034758731E+02  0.00000000000E+00 0. -1.
      99926    2    1    2    0    0 -0.71054273576E-14  0.00000000000E+00  0.21163697778E+04  0.21624392953E+04  0.44398498771E+03 0.  0.
      99925    2    3    3    0    0  0.43706609053E+02  0.79187156716E+02  0.11157986049E+04  0.11500307544E+04  0.26340716755E+03 0.  0.
         25    1    3    3    0    0 -0.43706609053E+02 -0.79187156716E+02  0.10005711729E+04  0.10124085409E+04  0.12509000000E+03 0.  0.
         25    1    4    4    0    0  0.17367076381E+02  0.37788459122E+02  0.38395077010E+03  0.40594985521E+03  0.12509000000E+03 0.  0.
         25    1    4    4    0    0  0.26339532672E+02  0.41398697594E+02  0.73184783480E+03  0.74408089920E+03  0.12509000000E+03 0.  0.
<mgrwt>
<rscale>  2 0.44398499E+03</rscale>
<asrwt>0</asrwt>
<pdfrwt beam="1">  1       21 0.31461818E+00 0.44398499E+03</pdfrwt>
<pdfrwt beam="2">  1       21 0.33874660E-02 0.44398499E+03</pdfrwt>
<totfact> 0.12249243E+04</totfact>
</mgrwt>
</event>
<event>
 7    0  0.4748297E-002  0.4587419E+03  0.7546771E-02  0.1025147E+00
         21   -1    0    0  502  501  0.00000000000E+00  0.00000000000E+00  0.18179699111E+03  0.18179699111E+03  0.00000000000E+00 0. -1.
         21   -1    0    0  501  502 -0.00000000000E+00 -0.00000000000E+00 -0.28939439206E+03  0.28939439206E+03  0.00000000000E+00 0. -1.
      99926    2    1    2    0    0  0.00000000000E+00  0.44408920985E-15 -0.10759740095E+03  0.47119138316E+03  0.45874188699E+03 0.  0.
      99925    2    3    3    0    0 -0.26742728608E+02 -0.30387707682E+01  0.49027708267E+02  0.26894564008E+03  0.26306583487E+03 0.  0.
         25    1    4    4    0    0 -0.76381064867E+01  0.24315026263E+02  0.55762629479E+02  0.13930735845E+03  0.12509000000E+03 0.  0.
         25    1    3    3    0    0  0.26742728608E+02  0.30387707682E+01 -0.15662510921E+03  0.20224574309E+03  0.12509000000E+03 0.  0.
         25    1    4    4    0    0 -0.19104622121E+02 -0.27353797032E+02 -0.67349212117E+01  0.12963828162E+03  0.12509000000E+03 0.  0.
<mgrwt>
<rscale>  2 0.45874189E+03</rscale>
<asrwt>0</asrwt>
<pdfrwt beam="1">  1       21 0.26734852E-01 0.45874189E+03</pdfrwt>
<pdfrwt beam="2">  1       21 0.42557999E-01 0.45874189E+03</pdfrwt>
<totfact> 0.65384875E+04</totfact>
</mgrwt>
</event>
<event>
 7    0  0.4748297E-002  0.4581857E+03  0.7546771E-02  0.1025309E+00
         21   -1    0    0  502  501  0.00000000000E+00  0.00000000000E+00  0.20102738950E+03  0.20102738950E+03  0.00000000000E+00 0. -1.
         21   -1    0    0  501  502 -0.00000000000E+00 -0.00000000000E+00 -0.26107656564E+03  0.26107656564E+03  0.00000000000E+00 0. -1.
      99926    2    1    2    0    0 -0.71054273576E-14  0.00000000000E+00 -0.60049176142E+02  0.46210395514E+03  0.45818572850E+03 0.  0.
      99925    2    3    3    0    0 -0.52476936035E+02 -0.95658890844E+02 -0.77967349313E+02  0.29515180258E+03  0.26292817802E+03 0.  0.
         25    1    3    3    0    0  0.52476936035E+02  0.95658890844E+02  0.17918173171E+02  0.16695215256E+03  0.12509000000E+03 0.  0.
         25    1    4    4    0    0 -0.62161665729E+02 -0.33714566808E+02 -0.26836974729E+02  0.14617960191E+03  0.12509000000E+03 0.  0.
         25    1    4    4    0    0  0.96847296936E+01 -0.61944324036E+02 -0.51130374584E+02  0.14897220068E+03  0.12509000000E+03 0.  0.
<mgrwt>
<rscale>  2 0.45818573E+03</rscale>
<asrwt>0</asrwt>
<pdfrwt beam="1">  1       21 0.29562852E-01 0.45818573E+03</pdfrwt>
<pdfrwt beam="2">  1       21 0.38393612E-01 0.45818573E+03</pdfrwt>
<totfact> 0.66326347E+04</totfact>
</mgrwt>
</event>
<event>
 7    0  0.4748297E-002  0.4525643E+03  0.7546771E-02  0.1026960E+00
         21   -1    0    0  502  501  0.00000000000E+00  0.00000000000E+00  0.90139494902E+03  0.90139494902E+03  0.00000000000E+00 0. -1.
         21   -1    0    0  501  502 -0.00000000000E+00 -0.00000000000E+00 -0.56804852655E+02  0.56804852655E+02  0.00000000000E+00 0. -1.
      99926    2    1    2    0    0  0.17763568394E-14  0.00000000000E+00  0.84459009637E+03  0.95819980168E+03  0.45256428168E+03 0.  0.
      99925    2    3    3    0    0 -0.11576740983E+02  0.41722186702E+02  0.31373463330E+03  0.41108939914E+03  0.26208836708E+03 0.  0.
         25    1    4    4    0    0  0.26556243018E+02  0.19737394192E+02  0.12108395611E+03  0.17721069748E+03  0.12509000000E+03 0.  0.
         25    1    3    3    0    0  0.11576740983E+02 -0.41722186702E+02  0.53085546307E+03  0.54711040254E+03  0.12509000000E+03 0.  0.
         25    1    4    4    0    0 -0.38132984001E+02  0.21984792510E+02  0.19265067718E+03  0.23387870166E+03  0.12509000000E+03 0.  0.
<mgrwt>
<rscale>  2 0.45256428E+03</rscale>
<asrwt>0</asrwt>
<pdfrwt beam="1">  1       21 0.13255807E+00 0.45256428E+03</pdfrwt>
<pdfrwt beam="2">  1       21 0.83536554E-02 0.45256428E+03</pdfrwt>
<totfact> 0.41597151E+04</totfact>
</mgrwt>
</event>
<event>
 7    0  0.4748297E-002  0.4452311E+03  0.7546771E-02  0.1029154E+00
         21   -1    0    0  502  501  0.00000000000E+00  0.00000000000E+00  0.40222264088E+03  0.40222264088E+03  0.00000000000E+00 0.  1.
         21   -1    0    0  501  502 -0.00000000000E+00 -0.00000000000E+00 -0.12320956696E+03  0.12320956696E+03  0.00000000000E+00 0.  1.
      99926    2    1    2    0    0  0.00000000000E+00  0.14210854715E-13  0.27901307393E+03  0.52543220784E+03  0.44523107440E+03 0.  0.
      99925    2    3    3    0    0  0.33349975028E+02 -0.95908875562E+02  0.15220335595E+03  0.32039819622E+03  0.26301788786E+03 0.  0.
         25    1    4    4    0    0  0.54127556099E+01 -0.22676621497E+02  0.10631421467E+03  0.16581238623E+03  0.12509000000E+03 0.  0.
         25    1    3    3    0    0 -0.33349975028E+02  0.95908875562E+02  0.12680971798E+03  0.20503401162E+03  0.12509000000E+03 0.  0.
         25    1    4    4    0    0  0.27937219418E+02 -0.73232254065E+02  0.45889141272E+02  0.15458580999E+03  0.12509000000E+03 0.  0.
<mgrwt>
<rscale>  2 0.44523107E+03</rscale>
<asrwt>0</asrwt>
<pdfrwt beam="1">  1       21 0.59150388E-01 0.44523107E+03</pdfrwt>
<pdfrwt beam="2">  1       21 0.18119054E-01 0.44523107E+03</pdfrwt>
<totfact> 0.68679128E+04</totfact>
</mgrwt>
</event>
<event>
 7    0  0.4748297E-002  0.4528811E+03  0.7546771E-02  0.1026866E+00
         21   -1    0    0  502  501  0.00000000000E+00  0.00000000000E+00  0.29922466663E+03  0.29922466663E+03  0.00000000000E+00 0.  1.
         21   -1    0    0  501  502 -0.00000000000E+00 -0.00000000000E+00 -0.17136062441E+03  0.17136062441E+03  0.00000000000E+00 0.  1.
      99926    2    1    2    0    0  0.00000000000E+00  0.00000000000E+00  0.12786404222E+03  0.47058529103E+03  0.45288111337E+03 0.  0.
      99925    2    3    3    0    0  0.28577698043E+02  0.34018621182E+02 -0.25251683017E+02  0.26793809805E+03  0.26301943935E+03 0.  0.
         25    1    3    3    0    0 -0.28577698043E+02 -0.34018621182E+02  0.15311572523E+03  0.20264719299E+03  0.12509000000E+03 0.  0.
         25    1    4    4    0    0 -0.16209968453E+02 -0.76450695103E+01 -0.24337138100E+02  0.12868960547E+03  0.12509000000E+03 0.  0.
         25    1    4    4    0    0  0.44787666496E+02  0.41663690692E+02 -0.91454491686E+00  0.13924849258E+03  0.12509000000E+03 0.  0.
<mgrwt>
<rscale>  2 0.45288111E+03</rscale>
<asrwt>0</asrwt>
<pdfrwt beam="1">  1       21 0.44003627E-01 0.45288111E+03</pdfrwt>
<pdfrwt beam="2">  1       21 0.25200092E-01 0.45288111E+03</pdfrwt>
<totfact> 0.68537171E+04</totfact>
</mgrwt>
</event>
<event>
 7    0  0.4748297E-002  0.4571191E+03  0.7546771E-02  0.1025620E+00
         21   -1    0    0  502  501  0.00000000000E+00  0.00000000000E+00  0.12356709914E+04  0.12356709914E+04  0.00000000000E+00 0. -1.
         21   -1    0    0  501  502 -0.00000000000E+00 -0.00000000000E+00 -0.42276193508E+02  0.42276193508E+02  0.00000000000E+00 0. -1.
      99926    2    1    2    0    0  0.00000000000E+00  0.00000000000E+00  0.11933947979E+04  0.12779471849E+04  0.45711909147E+03 0.  0.
      99925    2    3    3    0    0  0.28826336032E+02  0.85868601375E+02  0.94862041087E+03  0.98852295822E+03  0.26285467595E+03 0.  0.
         25    1    4    4    0    0 -0.23290461716E+00  0.48397955559E+02  0.60703152829E+03  0.62167290498E+03  0.12509000000E+03 0.  0.
         25    1    3    3    0    0 -0.28826336032E+02 -0.85868601375E+02  0.24477438705E+03  0.28942422671E+03  0.12509000000E+03 0.  0.
         25    1    4    4    0    0  0.29059240649E+02  0.37470645816E+02  0.34158888257E+03  0.36685005324E+03  0.12509000000E+03 0.  0.
<mgrwt>
<rscale>  2 0.45711909E+03</rscale>
<asrwt>0</asrwt>
<pdfrwt beam="1">  1       21 0.18171630E+00 0.45711909E+03</pdfrwt>
<pdfrwt beam="2">  1       21 0.62170881E-02 0.45711909E+03</pdfrwt>
<totfact> 0.29276212E+04</totfact>
</mgrwt>
</event>
