<event>
 6    0  0.2120126E-005  0.1020563E+04  0.7546771E-02  0.9286275E-01
         21   -1    0    0  502  501  0.00000000000E+00  0.00000000000E+00  0.10943359190E+04  0.10943359190E+04  0.00000000000E+00 0.  1.
         21   -1    0    0  501  502 -0.00000000000E+00 -0.00000000000E+00 -0.23794061941E+03  0.23794061941E+03  0.00000000000E+00 0. -1.
      99926    2    1    2    0    0 -0.24192787379E+03 -0.31653800335E+03  0.59462636542E+03  0.83943185021E+03  0.43856574536E+03 0.  0.
         25    1    3    3    0    0  0.66391103258E+02 -0.18808291607E+03  0.25175839848E+03  0.34469227031E+03  0.12509000000E+03 0.  0.
         25    1    1    2    0    0  0.24192787379E+03  0.31653800335E+03  0.26176893416E+03  0.49284468819E+03  0.12509000000E+03 0.  0.
         25    1    3    3    0    0 -0.30831897705E+03 -0.12845508728E+03  0.34286796694E+03  0.49473957989E+03  0.12509000000E+03 0.  0.
<mgrwt>
<rscale>  2 0.10205625E+04</rscale>
<asrwt>0</asrwt>
<pdfrwt beam="1">  1       21 0.16093175E+00 0.10205625E+04</pdfrwt>
<pdfrwt beam="2">  1       21 0.34991268E-01 0.10205625E+04</pdfrwt>
<totfact> 0.14326466E+03</totfact>
</mgrwt>
</event>
<event>
 6    0  0.2120126E-005  0.8669920E+03  0.7546771E-02  0.9467810E-01
         21   -1    0    0  502  501  0.00000000000E+00  0.00000000000E+00  0.62372476503E+03  0.62372476503E+03  0.00000000000E+00 0. -1.
         21   -1    0    0  501  502 -0.00000000000E+00 -0.00000000000E+00 -0.30128480056E+03  0.30128480056E+03  0.00000000000E+00 0. -1.
      99926    2    1    2    0    0  0.11053037251E+03  0.12032638425E+02  0.49733346653E+03  0.68294140825E+03  0.45465002203E+03 0.  0.
         25    1    3    3    0    0  0.19990697161E+03 -0.11081673963E+03  0.20986424231E+03  0.33456487469E+03  0.12509000000E+03 0.  0.
         25    1    3    3    0    0 -0.89376599103E+02  0.12284937805E+03  0.28746922423E+03  0.34837653356E+03  0.12509000000E+03 0.  0.
         25    1    1    2    0    0 -0.11053037251E+03 -0.12032638425E+02 -0.17489350207E+03  0.24206815734E+03  0.12509000000E+03 0.  0.
<mgrwt>
<rscale>  2 0.86699202E+03</rscale>
<asrwt>0</asrwt>
<pdfrwt beam="1">  1       21 0.91724230E-01 0.86699202E+03</pdfrwt>
<pdfrwt beam="2">  1       21 0.44306588E-01 0.86699202E+03</pdfrwt>
<totfact> 0.39070881E+03</totfact>
</mgrwt>
</event>
<event>
 6    0  0.2120126E-005  0.7536842E+03  0.7546771E-02  0.9629588E-01
         21   -1    0    0  502  501  0.00000000000E+00  0.00000000000E+00  0.65640030124E+02  0.65640030124E+02  0.00000000000E+00 0.  1.
         21   -1    0    0  501  502 -0.00000000000E+00 -0.00000000000E+00 -0.21634657486E+04  0.21634657486E+04  0.00000000000E+00 0.  1.
      99926    2    1    2    0    0  0.10714790415E+03  0.11365184396E+03 -0.18404962106E+04  0.19031251064E+04  0.45832461691E+03 0.  0.
         25    1    3    3    0    0  0.11353963884E+03  0.24828314052E+03 -0.11334158738E+04  0.11725249757E+04  0.12509000000E+03 0.  0.
         25    1    3    3    0    0 -0.63917346832E+01 -0.13463129657E+03 -0.70708033675E+03  0.73060013072E+03  0.12509000000E+03 0.  0.
         25    1    1    2    0    0 -0.10714790415E+03 -0.11365184396E+03 -0.25732950795E+03  0.32598067237E+03  0.12509000000E+03 0.  0.
<mgrwt>
<rscale>  2 0.75368417E+03</rscale>
<asrwt>0</asrwt>
<pdfrwt beam="1">  1       21 0.96529443E-02 0.75368417E+03</pdfrwt>
<pdfrwt beam="2">  1       21 0.31815677E+00 0.75368417E+03</pdfrwt>
<totfact> 0.16702538E+03</totfact>
</mgrwt>
</event>
<event>
 6    0  0.2120126E-005  0.6833555E+03  0.7546771E-02  0.9746128E-01
         21   -1    0    0  502  501  0.00000000000E+00  0.00000000000E+00  0.50238930292E+03  0.50238930292E+03  0.00000000000E+00 0.  1.
         21   -1    0    0  501  502 -0.00000000000E+00 -0.00000000000E+00 -0.23237691577E+03  0.23237691577E+03  0.00000000000E+00 0.  1.
      99926    2    1    2    0    0  0.11372193978E+03 -0.62758329481E+02  0.92073727162E+02  0.48142660015E+03  0.45433766362E+03 0.  0.
         25    1    3    3    0    0  0.80408371087E+02 -0.17741223980E+03 -0.72629289827E+02  0.24261725168E+03  0.12509000000E+03 0.  0.
         25    1    1    2    0    0 -0.11372193978E+03  0.62758329481E+02  0.17793865998E+03  0.25333961854E+03  0.12509000000E+03 0.  0.
         25    1    3    3    0    0  0.33313568698E+02  0.11465391032E+03  0.16470301699E+03  0.23880934847E+03  0.12509000000E+03 0.  0.
<mgrwt>
<rscale>  2 0.68335548E+03</rscale>
<asrwt>0</asrwt>
<pdfrwt beam="1">  1       21 0.73880780E-01 0.68335548E+03</pdfrwt>
<pdfrwt beam="2">  1       21 0.34173076E-01 0.68335548E+03</pdfrwt>
<totfact> 0.11515585E+04</totfact>
</mgrwt>
</event>
<event>
 6    0  0.2120126E-005  0.6733804E+03  0.7546771E-02  0.9763870E-01
         21   -1    0    0  502  501  0.00000000000E+00  0.00000000000E+00  0.12528310214E+04  0.12528310214E+04  0.00000000000E+00 0.  1.
         21   -1    0    0  501  502 -0.00000000000E+00 -0.00000000000E+00 -0.90483306395E+02  0.90483306395E+02  0.00000000000E+00 0.  1.
      99926    2    1    2    0    0  0.14193096295E+02  0.13491264737E+03  0.64944023823E+03  0.79822309302E+03  0.44382949067E+03 0.  0.
         25    1    1    2    0    0 -0.14193096295E+02 -0.13491264737E+03  0.51290747677E+03  0.54509123478E+03  0.12509000000E+03 0.  0.
         25    1    3    3    0    0  0.80071939406E+02  0.12368297658E+03  0.62513627034E+03  0.65433314052E+03  0.12509000000E+03 0.  0.
         25    1    3    3    0    0 -0.65878843111E+02  0.11229670787E+02  0.24303967886E+02  0.14388995250E+03  0.12509000000E+03 0.  0.
<mgrwt>
<rscale>  2 0.67338041E+03</rscale>
<asrwt>0</asrwt>
<pdfrwt beam="1">  1       21 0.18423985E+00 0.67338041E+03</pdfrwt>
<pdfrwt beam="2">  1       21 0.13306369E-01 0.67338041E+03</pdfrwt>
<totfact> 0.67722467E+03</totfact>
</mgrwt>
</event>
<event>
 6    0  0.2120126E-005  0.6073986E+03  0.7546771E-02  0.9890174E-01
         21   -1    0    0  502  501  0.00000000000E+00  0.00000000000E+00  0.27989905806E+04  0.27989905806E+04  0.00000000000E+00 0. -1.
         21   -1    0    0  501  502 -0.00000000000E+00 -0.00000000000E+00 -0.32952331343E+02  0.32952331343E+02  0.00000000000E+00 0.  1.
      99926    2    1    2    0    0  0.63109679366E+02 -0.61745558451E+01  0.22369071721E+04  0.22845416316E+04  0.45973450308E+03 0.  0.
         25    1    1    2    0    0 -0.63109679366E+02  0.61745558451E+01  0.52913107723E+03  0.54740128038E+03  0.12509000000E+03 0.  0.
         25    1    3    3    0    0  0.96921589062E+02 -0.17586191243E+03  0.89422781102E+03  0.92499302310E+03  0.12509000000E+03 0.  0.
         25    1    3    3    0    0 -0.33811909696E+02  0.16968735659E+03  0.13426793610E+04  0.13595486085E+04  0.12509000000E+03 0.  0.
<mgrwt>
<rscale>  2 0.60739860E+03</rscale>
<asrwt>0</asrwt>
<pdfrwt beam="1">  1       21 0.41161610E+00 0.60739860E+03</pdfrwt>
<pdfrwt beam="2">  1       21 0.48459330E-02 0.60739860E+03</pdfrwt>
<totfact> 0.15293890E+03</totfact>
</mgrwt>
</event>
<event>
 6    0  0.2120126E-005  0.5671854E+03  0.7546771E-02  0.9975926E-01
         21   -1    0    0  502  501  0.00000000000E+00  0.00000000000E+00  0.68166705180E+03  0.68166705180E+03  0.00000000000E+00 0. -1.
         21   -1    0    0  501  502 -0.00000000000E+00 -0.00000000000E+00 -0.11798256978E+03  0.11798256978E+03  0.00000000000E+00 0. -1.
      99926    2    1    2    0    0 -0.45498680053E+01  0.34323788649E+02  0.39689329972E+03  0.58830717351E+03  0.43287667444E+03 0.  0.
         25    1    1    2    0    0  0.45498680053E+01 -0.34323788649E+02  0.16679118230E+03  0.21134244807E+03  0.12509000000E+03 0.  0.
         25    1    3    3    0    0  0.16386681785E+03  0.75037134596E+02  0.17946895447E+03  0.28344226799E+03  0.12509000000E+03 0.  0.
         25    1    3    3    0    0 -0.16841668586E+03 -0.40713345947E+02  0.21742434525E+03  0.30486490553E+03  0.12509000000E+03 0.  0.
<mgrwt>
<rscale>  2 0.56718544E+03</rscale>
<asrwt>0</asrwt>
<pdfrwt beam="1">  1       21 0.10024515E+00 0.56718544E+03</pdfrwt>
<pdfrwt beam="2">  1       21 0.17350378E-01 0.56718544E+03</pdfrwt>
<totfact> 0.21550827E+04</totfact>
</mgrwt>
</event>
<event>
 6    0  0.2120126E-005  0.8739687E+03  0.7546771E-02  0.9458720E-01
         21   -1    0    0  502  501  0.00000000000E+00  0.00000000000E+00  0.42259895731E+03  0.42259895731E+03  0.00000000000E+00 0.  1.
         21   -1    0    0  501  502 -0.00000000000E+00 -0.00000000000E+00 -0.45185938027E+03  0.45185938027E+03  0.00000000000E+00 0. -1.
      99926    2    1    2    0    0  0.45310743020E+02 -0.30252178796E+03 -0.10420292792E+03  0.53558316473E+03  0.42710488236E+03 0.  0.
         25    1    3    3    0    0 -0.95755546136E+02 -0.35306337611E+02 -0.13036439187E+03  0.20750432492E+03  0.12509000000E+03 0.  0.
         25    1    3    3    0    0  0.14106628916E+03 -0.26721545034E+03  0.26161463950E+02  0.32807883982E+03  0.12509000000E+03 0.  0.
         25    1    1    2    0    0 -0.45310743020E+02  0.30252178796E+03  0.74942504961E+02  0.33887517284E+03  0.12509000000E+03 0.  0.
<mgrwt>
<rscale>  2 0.87396866E+03</rscale>
<asrwt>0</asrwt>
<pdfrwt beam="1">  1       21 0.62146906E-01 0.87396866E+03</pdfrwt>
<pdfrwt beam="2">  1       21 0.66449909E-01 0.87396866E+03</pdfrwt>
<totfact> 0.39704661E+03</totfact>
</mgrwt>
</event>
<event>
 6    0  0.2120126E-005  0.7901511E+03  0.7546771E-02  0.9574383E-01
         21   -1    0    0  502  501  0.00000000000E+00  0.00000000000E+00  0.39994297758E+03  0.39994297758E+03  0.00000000000E+00 0. -1.
         21   -1    0    0  501  502 -0.00000000000E+00 -0.00000000000E+00 -0.39026736438E+03  0.39026736438E+03  0.00000000000E+00 0. -1.
      99926    2    1    2    0    0  0.23905293164E+03  0.40072636296E+02 -0.48082206591E+02  0.51139930533E+03  0.44773343698E+03 0.  0.
         25    1    3    3    0    0 -0.54354377557E+02  0.11527068643E+03  0.88119233298E+01  0.17879286228E+03  0.12509000000E+03 0.  0.
         25    1    1    2    0    0 -0.23905293164E+03 -0.40072636296E+02  0.57757819789E+02  0.27881103664E+03  0.12509000000E+03 0.  0.
         25    1    3    3    0    0  0.29340730920E+03 -0.75198050139E+02 -0.56894129921E+02  0.33260644304E+03  0.12509000000E+03 0.  0.
<mgrwt>
<rscale>  2 0.79015110E+03</rscale>
<asrwt>0</asrwt>
<pdfrwt beam="1">  1       21 0.58815144E-01 0.79015110E+03</pdfrwt>
<pdfrwt beam="2">  1       21 0.57392259E-01 0.79015110E+03</pdfrwt>
<totfact> 0.63141143E+03</totfact>
</mgrwt>
</event>
<event>
 6    0  0.2120126E-005  0.7449384E+03  0.7546771E-02  0.9643325E-01
         21   -1    0    0  502  501  0.00000000000E+00  0.00000000000E+00  0.81801052908E+02  0.81801052908E+02  0.00000000000E+00 0. -1.
         21   -1    0    0  501  502 -0.00000000000E+00 -0.00000000000E+00 -0.16959841659E+04  0.16959841659E+04  0.00000000000E+00 0.  1.
      99926    2    1    2    0    0 -0.19790081733E+03  0.68126190594E+02 -0.98621026022E+03  0.11041359605E+04  0.45022175701E+03 0.  0.
         25    1    3    3    0    0 -0.12286716208E+03 -0.15017645824E+03 -0.40055201810E+03  0.46231886770E+03  0.12509000000E+03 0.  0.
         25    1    3    3    0    0 -0.75033655247E+02  0.21830264883E+03 -0.58565824211E+03  0.64181709276E+03  0.12509000000E+03 0.  0.
         25    1    1    2    0    0  0.19790081733E+03 -0.68126190594E+02 -0.62797285273E+03  0.67364925830E+03  0.12509000000E+03 0.  0.
<mgrwt>
<rscale>  2 0.74493836E+03</rscale>
<asrwt>0</asrwt>
<pdfrwt beam="1">  1       21 0.12029567E-01 0.74493836E+03</pdfrwt>
<pdfrwt beam="2">  1       21 0.24940943E+00 0.74493836E+03</pdfrwt>
<totfact> 0.29792865E+03</totfact>
</mgrwt>
</event>
<event>
 6    0  0.2120126E-005  0.1083215E+04  0.7546771E-02  0.9221708E-01
         21   -1    0    0  502  501  0.00000000000E+00  0.00000000000E+00  0.23442298522E+04  0.23442298522E+04  0.00000000000E+00 0. -1.
         21   -1    0    0  501  502 -0.00000000000E+00 -0.00000000000E+00 -0.12513217005E+03  0.12513217005E+03  0.00000000000E+00 0.  1.
      99926    2    1    2    0    0  0.33523506998E+03  0.27708794152E+03  0.11976554727E+04  0.13521548012E+04  0.45253032557E+03 0.  0.
         25    1    3    3    0    0  0.35198250561E+03  0.22585022536E+03  0.61741242288E+03  0.75613862260E+03  0.12509000000E+03 0.  0.
         25    1    1    2    0    0 -0.33523506998E+03 -0.27708794152E+03  0.10214422095E+04  0.11172072211E+04  0.12509000000E+03 0.  0.
         25    1    3    3    0    0 -0.16747435631E+02  0.51237716165E+02  0.58024304985E+03  0.59601617860E+03  0.12509000000E+03 0.  0.
<mgrwt>
<rscale>  2 0.10832148E+04</rscale>
<asrwt>0</asrwt>
<pdfrwt beam="1">  1       21 0.34473966E+00 0.10832148E+04</pdfrwt>
<pdfrwt beam="2">  1       21 0.18401791E-01 0.10832148E+04</pdfrwt>
<totfact> 0.31433414E+02</totfact>
</mgrwt>
</event>
<event>
 6    0  0.2120126E-005  0.8275894E+03  0.7546771E-02  0.9520919E-01
         21   -1    0    0  502  501  0.00000000000E+00  0.00000000000E+00  0.38055116011E+04  0.38055116011E+04  0.00000000000E+00 0. -1.
         21   -1    0    0  501  502 -0.00000000000E+00 -0.00000000000E+00 -0.44994223348E+02  0.44994223348E+02  0.00000000000E+00 0.  1.
      99926    2    1    2    0    0 -0.23025975279E+03  0.13135051948E+03  0.21848859364E+04  0.22478410249E+04  0.45693566866E+03 0.  0.
         25    1    1    2    0    0  0.23025975279E+03 -0.13135051948E+03  0.15756314413E+04  0.16026647996E+04  0.12509000000E+03 0.  0.
         25    1    3    3    0    0  0.21967311112E+02  0.99738506676E+02  0.29032798848E+03  0.33221706980E+03  0.12509000000E+03 0.  0.
         25    1    3    3    0    0 -0.25222706390E+03  0.31612012805E+02  0.18945579479E+04  0.19156239551E+04  0.12509000000E+03 0.  0.
<mgrwt>
<rscale>  2 0.82758936E+03</rscale>
<asrwt>0</asrwt>
<pdfrwt beam="1">  1       21 0.55963384E+00 0.82758936E+03</pdfrwt>
<pdfrwt beam="2">  1       21 0.66168001E-02 0.82758936E+03</pdfrwt>
<totfact> 0.73248524E+01</totfact>
</mgrwt>
</event>
<event>
 6    0  0.2120126E-005  0.5854299E+03  0.7546771E-02  0.9936104E-01
         21   -1    0    0  502  501  0.00000000000E+00  0.00000000000E+00  0.31522834501E+02  0.31522834501E+02  0.00000000000E+00 0. -1.
         21   -1    0    0  501  502 -0.00000000000E+00 -0.00000000000E+00 -0.27180946992E+04  0.27180946992E+04  0.00000000000E+00 0.  1.
      99926    2    1    2    0    0 -0.64503025485E+02 -0.13815416608E+02 -0.20033220310E+04  0.20518859597E+04  0.43884544617E+03 0.  0.
         25    1    1    2    0    0  0.64503025485E+02  0.13815416608E+02 -0.68324983369E+03  0.69773157401E+03  0.12509000000E+03 0.  0.
         25    1    3    3    0    0  0.78342022417E+02  0.13693186357E+03 -0.90565225259E+03  0.92776145558E+03  0.12509000000E+03 0.  0.
         25    1    3    3    0    0 -0.14284504790E+03 -0.15074728018E+03 -0.10976697785E+04  0.11241245041E+04  0.12509000000E+03 0.  0.
<mgrwt>
<rscale>  2 0.58542993E+03</rscale>
<asrwt>0</asrwt>
<pdfrwt beam="1">  1       21 0.46357113E-02 0.58542993E+03</pdfrwt>
<pdfrwt beam="2">  1       21 0.39971978E+00 0.58542993E+03</pdfrwt>
<totfact> 0.19917937E+03</totfact>
</mgrwt>
</event>
